 +---------------------------------------------------------------+
 |                                                               |
 |        ####### #     # ####### ####### ####### ######         |
 |        #     # ##    # #          #    #       #     #        |
 |        #     # # #   # #          #    #       #     #        |
 |        #     # #  #  # #####      #    #####   ######         |
 |        #     # #   # # #          #    #       #              |
 |        #     # #    ## #          #    #       #              |
 |        ####### #     # #######    #    ####### #              |
 |                                                               |
 |        Linear-Scaling Ab Initio Total Energy Program          |
 |                                                               |
 |          Release for academic collaborators of ODG            |
 |                                             Version 5.3.2.6.  |
 |                                                               |
 +---------------------------------------------------------------+
 |                                                               |
 |  Authors:                                                     |
 |  Jacek Dziedzic, Peter D. Haynes, Nicholas D. M. Hine,        |
 |  Arash. A. Mostofi, Mike C. Payne and Chris-Kriton Skylaris   |
 |                                                               |
 |  Contributors:                                                |
 |  J. Aarons, L. Andrinopoulos, P. W. Avraam, R. A. Bell,       |
 |  A. Bhandari, G. A. Bramley, R. J. Charlton, S. J. Clark,     |
 |  R. J. Clements, G. C. Constantinescu, F. Corsetti,           |
 |  N. Corsini, O. Dieguez, S. M. M. Dubois, K. K. B. Duff,      |
 |  J. M. Escartin, A. Greco, H. Helal, Q. O. Hill, L. P. Lee,   |
 |  J.-H. Li, E. B. Linscott, G. Moynihan, D. D. O`Regan,        |
 |  O. K. Okan, M. J. S. Phipps, C. J. Pickard,                  |
 |  J. C. A. Prentice, M. I. J. Probert, L. E. Ratcliff,         |
 |  M. Robinson, A. Ruiz Serrano, J. S. Spencer, E. W. Tait,     |
 |  G. Teobaldi, D. Turban, V. Vitale, K. A. Wilkinson,          |
 |  C. Weber, J. C. Womack, N. Yeung and T. J. Zuehlsdorff       |
 |                                                               |
 |                                   Copyright (c) 2004-2019     |
 |                                                               |
 |  Please cite:                                                 |
 |  "Introducing ONETEP: Linear-scaling density functional       |
 |   simulations on parallel computers".                         |
 |   C.-K. Skylaris, P. D. Haynes, A. A. Mostofi, M. C. Payne.   |
 |   J. Chem. Phys. 122 084119 (2005).                           |
 |                                                               |
 |          in all publications arising from your use of ONETEP. |
 |                                                               |
 +---------------------------------------------------------------+
 |                                                               |
 |   ONETEP is based on developments described in the following  |
 |   publications:                                               |
 |                                                               |
 |  "Nonorthogonal generalized Wannier function pseudopotential  |
 |   plane-wave method".                                         |
 |   C.-K. Skylaris, A. A. Mostofi, P. D. Haynes, O. Dieguez,    |
 |   M. C. Payne.                                                |
 |   Phys. Rev. B 66 035119 (2002).                              |
 |                                                               |
 |  "Preconditioned iterative minimization for linear-scaling    |
 |   electronic structure calculations".                         |
 |   A. A. Mostofi, P. D. Haynes, C.-K. Skylaris, M. C. Payne.   |
 |   J. Chem. Phys. 119(17), pp.8842-8848 (2003).                |
 |                                                               |
 |  "Total-energy calculations on a real space grid with         |
 |   localized functions and a plane-wave basis".                |
 |   A. A. Mostofi, C.-K. Skylaris, P. D. Haynes, M. C. Payne.   |
 |   Comput. Phys. Commun. 147, pp.788-802 (2002).               |
 |                                                               |
 |  "Accurate kinetic energy evaluation in electronic structure  |
 |   calculations with localized functions on real space grids"  |
 |   C.-K. Skylaris, A. A. Mostofi, P. D. Haynes, C. J. Pickard, |
 |   M. C. Payne.                                                |
 |   Comput. Phys. Commun. 140, pp.315-322 (2001).               |
 |                                                               |
 |  "Accurate ionic forces and geometry optimization in linear-  |
 |   scaling density-functional theory with local orbitals"      |
 |   N. D. M. Hine, M. Robinson, P. D. Haynes, C.-K. Skylaris,   |
 |   M. C. Payne, and A. A. Mostofi.                             |
 |   Phys. Rev. B 83 195102 (2011).                              |
 |                                                               |
 +---------------------------------------------------------------+

Job started: 16-01-2020 10:30 (-0000)
 
Reading parameters from file "host_36201.dat" ...... done

If your calculation crashes here, before "Checking processes and threads..."
is displayed, then your stack size is insufficient.
If so, use "ulimit -s unlimited" at runtime.
You can disable this check with "check_stack_size F".

Checking processes and threads...
   Determining the default number of threads...
      No default threads set at compilation time: defaulting to 1.
      OpenMP library call suggests 4 threads.
      Hybrid MPI-OpenMP compilation detected.
      Number of MPI processes > 1.
      OMP_NUM_THREADS environment variable present and
      its value matches the one obtained from the OpenMP library call.
      Using this value as default.
      Default threads: 4
      Default applies to threads_max and threads_num_fftboxes.
      Settings in the input file override this default.
   ... done

   Running with 40 MPI processes.
   There are 10 MPI processes running on the same node as the root process.
   Each MPI process is using: 
               1 threads for simulation cell FFTs.
               1 threads for parallel FFT box operations.
               4 threads for loops over batched FFT box operations.
               4 threads in other parallel regions.
... done

Basic input checks...... done

Reading geometry and species blocks from file "host_36201.dat" ...
  <species_atomic_set> block not found: NGWF initialisation set to SOLVE
IS: Dielectric excluded regions:
    - NONE.
    
  Number of PPD points along a3 set to 1.  This is 
  the default value, it may have been provided also in the input file.
... done
 Writing xyz coordinates to file "host_36201.xyz" ... done


--------------------------------------------------------------------------------
---------------------------------- INPUT FILE ----------------------------------
--------------------------------------------------------------------------------

cutoff_energy       : 800 eV                                                    
xc_functional PBE                                                               
task SINGLEPOINT                                                                
write_xyz true                                                                  
output_detail VERBOSE                                                           
ngwf_threshold_orig : 0.000002                                                  
kernel_cutoff       : 1000                                                      
k_zero              : 3.5                                                       
elec_cg_max 0                                                                   
occ_mix 1.0                                                                     
dispersion 1                                                                    
maxit_ngwf_cg 40                                                                
minit_lnv 10                                                                    
maxit_lnv 10                                                                    
write_denskern T                                                                
write_tightbox_ngwfs T                                                          
charge 9                                                                        
is_implicit_solvent T                                                           
is_auto_solvation T                                                             
is_include_apolar T                                                             
is_smeared_ion_rep T                                                            
is_solvent_surf_tension 4.7624E-5 Ha/bohr**2                                    
is_apolar_scaling_factor 0.281075                                               
is_solvation_beta 1.3                                                           
is_density_threshold 0.00035                                                    
is_bulk_permittivity 78.54                                                      
is_dielectric_model fix_initial                                                 
is_smeared_ion_width 0.8                                                        
mg_defco_fd_order 8                                                             
is_bc_coarseness 10                                                             
is_bc_surface_coarseness 1                                                      
fine_grid_scale 2.0                                                             
%block species                                                                  
N   N   7 4 8.0                                                                 
H   H   1 1 8.0                                                                 
C   C   6 4 8.0                                                                 
S   S  16 9 8.0                                                                 
O   O   8 4 8.0                                                                 
%endblock species                                                               
%block species_pot                                                              
N   N_00.recpot                                                                 
H   H_04.recpot                                                                 
C   C_01.recpot                                                                 
S   S_00.recpot                                                                 
O   O_02.recpot                                                                 
%endblock species_pot                                                           
%block lattice_cart                                                             
135.996   0.000   0.000                                                         
0.000 142.663   0.000                                                           
0.000   0.000   160.158                                                         
%endblock lattice_cart                                                          
%block positions_abs                                                            
     Hash =  -000000950883477113686114
%endblock positions_abs                                                         

--------------------------------------------------------------------------------
-------------------------------- END INPUT FILE --------------------------------
--------------------------------------------------------------------------------


 
 ESDF WARNING(1): "kernelcutoff" (esdf_physical) has no units. Assume "bohr".
 ESDF WARNING(2): "kzero" (esdf_physical) has no units. Assume "1/bohr".
 ESDF WARNING(3
 ): "issmearedionwidth" (esdf_physical) has no units. Assume "bohr".
<<<<<<<<<<<<<<<<<<<<<<<<<<<<<<<<< Full system >>>>>>>>>>>>>>>>>>>>>>>>>>>>>>>>>>
<<<<<<<<<<<<<<<<<<<<<<<<< Pseudopotential information >>>>>>>>>>>>>>>>>>>>>>>>>>
File: N_00.recpot [ 2001 points up to Gmax=  52.9 (1/bohr)]
  Atomic number:  7;  ionic charge:  5.000000
    Shell 1: l = 0; rc = 1.48 bohr
File: H_04.recpot [ 2001 points up to Gmax=  52.9 (1/bohr)]
  Atomic number:  1;  ionic charge:  1.000000
    Local potential
File: C_01.recpot [ 2001 points up to Gmax=  52.9 (1/bohr)]
  Atomic number:  6;  ionic charge:  4.000000
    Shell 1: l = 0; rc = 1.48 bohr
File: S_00.recpot [ 2001 points up to Gmax=  52.9 (1/bohr)]
  Atomic number: 16;  ionic charge:  6.000000
    Shell 1: l = 0; rc = 1.90 bohr
    Shell 2: l = 2; rc = 1.84 bohr
File: O_02.recpot [ 2001 points up to Gmax=  52.9 (1/bohr)]
  Atomic number:  8;  ionic charge:  6.000000
    Shell 1: l = 0; rc = 1.31 bohr
<<<<<<<<<<<<<<<<<<<<<<<<<<<<<<<<<<<<<<<<>>>>>>>>>>>>>>>>>>>>>>>>>>>>>>>>>>>>>>>>

-------------------------- Atom counting information ---------------------------
Symbol    Natoms    Nngwfs    Nprojs
  N        236       944       236
  H       1311      1311         0
  C        810      3240       810
  S          6        54        36
  O        239       956       239
.......   ......    ......    ......
Totals:   2602      6505      1321
--------------------------------------------------------------------------------

=============================== PSINC grid sizes ===============================
                      Simulation cell:  270 x 286 x 315
                              FFT-box:   99 x 105 x  99
                                  PPD:    5 x  11 x   1
Grid space d1=  0.503688888889a0 (KE cutoff=  29.94189Eh = 814.76038eV)
Grid space d2=  0.498821678322a0 (KE cutoff=  30.52906Eh = 830.73786eV)
Grid space d3=  0.508438095238a0 (KE cutoff=  29.38514Eh = 799.61048eV)
================================================================================

********************* Fourier parallelisation information **********************
       Coarse grid (whole simulation cell) dimensions:    270   286   315
          Real-space ('12') slabs/node (min max mean):      7     8     7
         Recip-space ('23') slabs/node (min max mean):      3     4     3
********************************************************************************

********************* Fourier parallelisation information **********************
       Double grid (whole simulation cell) dimensions:    540   572   630
          Real-space ('12') slabs/node (min max mean):     15    16    15
         Recip-space ('23') slabs/node (min max mean):      6     7     6
********************************************************************************
ONETEP fine grid is 540 x 572 x 630 gridpoints, 135.9960 x 142.6630 x 160.1580 bohr.
FD multigrid is     537 x 569 x 625 gridpoints, 135.2405 x 141.9148 x 158.8869 bohr.


Calculating local pseudopotential in open BC on a radial grid ...
Discrepancy between calculated realspace psloc and -Z/x on [5a0,253.965a0]:
max |rel. diff| # avg |rel. diff| #  avg rel. diff #  f # pseudopotential file
 0.000259282084    0.000004141996   0.000000074978   54  'N_00.recpot'
 0.000405386992    0.000016970607  -0.000000075982   54  'H_04.recpot'
 0.000371694516    0.000017434762   0.000000149329   54  'C_01.recpot'
 0.000461642895    0.000020341726   0.000000491514   54  'S_00.recpot'
 0.000682525123    0.000027368244   0.000000159803   54  'O_02.recpot'
... done

Atom SCF Calculation for N  : Z (AE atom) =   7 : Z (PS atom) =   5
Config String:
Orbitals (num,occ):  2     2.00 3.00
Orbitals   (num,l):  2        0    1
Real-space Grid (nr,dr,rmax): 1203    0.0066555740    8.0000000000
Spherical Bessel Basis (nsws,lmax,cutoff):   47    1  176.3951722778
Confining potential (l,width,scale):  0    3.0000000000  100.0000000000
Confining potential (l,width,scale):  1    3.0000000000  100.0000000000
  1         -4.7312375307   -3.4155304497    7.0523828109   -1.9351020946
  2         -9.7309464766   -2.0532547791    8.2966052865   -2.2494486027
  3         -9.6627394379   -2.1124926340    8.2327997121   -2.2369778124
  4         -9.6814993499   -2.1215521045    8.2229805960   -2.2365178421
  5         -9.6843326483   -2.1250939529    8.2191374534   -2.2362718126
  6         -9.6859628709   -2.1267894855    8.2172963573   -2.2362066344
  7         -9.6867347035   -2.1276425665    8.2163697352   -2.2361903369
  8         -9.6870802100   -2.1280764625    8.2158983890   -2.2361891460
  9         -9.6872290423   -2.1282977424    8.2156580222   -2.2361920435
 10         -9.6872901988   -2.1284107021    8.2155353368   -2.2361953393
 11         -9.6873135296   -2.1284684031    8.2154726809   -2.2361979819
 12         -9.6873212476   -2.1284978948    8.2154406648   -2.2361998431
 13         -9.6873229586   -2.1285129774    8.2154242957   -2.2362010676
 14         -9.6873226456   -2.1285206957    8.2154159216   -2.2362018403
 15         -9.6873218534   -2.1285246479    8.2154116349   -2.2362023142
 16         -9.6873212599   -2.1285262679    8.2154098784   -2.2362025420
 17         -9.6873207834   -2.1285272564    8.2154088068   -2.2362026955
 18         -9.6873204210   -2.1285278597    8.2154081529   -2.2362027982
 19         -9.6873201550   -2.1285282280    8.2154077538   -2.2362028667
 20         -9.6873199645   -2.1285284529    8.2154075102   -2.2362029121
 21         -9.6873198305   -2.1285285903    8.2154073614   -2.2362029421
 22         -9.6873197377   -2.1285286742    8.2154072705   -2.2362029618
Atom SCF converged after  22 iterations to a total energy of     -9.68731974

Atom SCF Calculation for H  : Z (AE atom) =   1 : Z (PS atom) =   1
Config String:
Orbitals (num,occ):  1     1.00
Orbitals   (num,l):  1        0
Real-space Grid (nr,dr,rmax): 1203    0.0066555740    8.0000000000
Spherical Bessel Basis (nsws,lmax,cutoff):   47    0  176.3951722778
Confining potential (l,width,scale):  0    3.0000000000  100.0000000000
  1         -0.3194257691   -0.2393854593    0.2820953124   -0.2424203209
  2         -0.3951823392   -0.2377116493    0.2886404059   -0.2475147891
  3         -0.4317044583   -0.2352244387    0.2921333887   -0.2514046172
  4         -0.4470703708   -0.2341892222    0.2934391879   -0.2531009782
  5         -0.4532132900   -0.2338556667    0.2938388426   -0.2537313520
  6         -0.4556579251   -0.2337612552    0.2939448584   -0.2539550462
  7         -0.4566418315   -0.2337377355    0.2939680120   -0.2540342273
  8         -0.4570437922   -0.2337331116    0.2939708287   -0.2540627372
  9         -0.4572102946   -0.2337328328    0.2939698291   -0.2540732650
 10         -0.4572800424   -0.2337332404    0.2939687193   -0.2540772588
 11         -0.4573095100   -0.2337335791    0.2939680317   -0.2540788122
 12         -0.4573220379   -0.2337337762    0.2939676699   -0.2540794294
 13         -0.4573273880   -0.2337338775    0.2939674931   -0.2540796787
 14         -0.4573296803   -0.2337339266    0.2939674099   -0.2540797808
 15         -0.4573306647   -0.2337339495    0.2939673718   -0.2540798230
 16         -0.4573310882   -0.2337339601    0.2939673545   -0.2540798406
 17         -0.4573312706   -0.2337339649    0.2939673467   -0.2540798479
 18         -0.4573313493   -0.2337339670    0.2939673433   -0.2540798510
Atom SCF converged after  18 iterations to a total energy of     -0.45733135

Atom SCF Calculation for C  : Z (AE atom) =   6 : Z (PS atom) =   4
Config String:
Orbitals (num,occ):  2     2.00 2.00
Orbitals   (num,l):  2        0    1
Real-space Grid (nr,dr,rmax): 1203    0.0066555740    8.0000000000
Spherical Bessel Basis (nsws,lmax,cutoff):   47    1  176.3951722778
Confining potential (l,width,scale):  0    3.0000000000  100.0000000000
Confining potential (l,width,scale):  1    3.0000000000  100.0000000000
  1         -5.2976922011   -1.3069684169    4.5135249990   -1.4493313817
  2         -5.3721716256   -1.3429755895    4.4750154450   -1.4361613026
  3         -5.3809959565   -1.3617365618    4.4541655428   -1.4305930207
  4         -5.3918938866   -1.3667928461    4.4484735100   -1.4294652294
  5         -5.3956096428   -1.3688539142    4.4461376126   -1.4290734646
  6         -5.3968271862   -1.3696852393    4.4451910874   -1.4289366866
  7         -5.3972028401   -1.3700178062    4.4448112275   -1.4288900460
  8         -5.3973067903   -1.3701500158    4.4446598370   -1.4288749220
  9         -5.3973286940   -1.3702023868    4.4445997329   -1.4288704293
 10         -5.3973289850   -1.3702230869    4.4445759233   -1.4288693188
 11         -5.3973254264   -1.3702312560    4.4445665049   -1.4288691775
 12         -5.3973224003   -1.3702344755    4.4445627836   -1.4288692549
 13         -5.3973208708   -1.3702354890    4.4445616088   -1.4288693270
 14         -5.3973198783   -1.3702360102    4.4445610034   -1.4288693814
 15         -5.3973192535   -1.3702362780    4.4445606917   -1.4288694190
 16         -5.3973188684   -1.3702364155    4.4445605313   -1.4288694437
 17         -5.3973186349   -1.3702364860    4.4445604489   -1.4288694595
 18         -5.3973184951   -1.3702365221    4.4445604065   -1.4288694693
 19         -5.3973184122   -1.3702365405    4.4445603848   -1.4288694753
Atom SCF converged after  19 iterations to a total energy of     -5.39731841

Atom SCF Calculation for S  : Z (AE atom) =  16 : Z (PS atom) =   6
Config String:
Orbitals (num,occ):  3     2.00 4.00 0.00
Orbitals   (num,l):  3        0    1    2
Real-space Grid (nr,dr,rmax): 1203    0.0066555740    8.0000000000
Spherical Bessel Basis (nsws,lmax,cutoff):   47    2  176.3951722778
Confining potential (l,width,scale):  0    3.0000000000  100.0000000000
Confining potential (l,width,scale):  1    3.0000000000  100.0000000000
Confining potential (l,width,scale):  2    3.0000000000  100.0000000000
  1        -12.4735062396   -1.0328741412   10.1554312477   -2.4512393157
  2         -9.9458301913   -2.4607392455    8.3041325857   -2.0306994528
  3        -10.1450417646   -2.2931184565    8.4831893826   -2.0812538287
  4        -10.1528335592   -2.2733105793    8.5050388867   -2.0896035179
  5        -10.1571940363   -2.2633716629    8.5160794258   -2.0939370707
  6        -10.1594380571   -2.2584938667    8.5215163935   -2.0961289008
  7        -10.1605856507   -2.2561081821    8.5241804044   -2.0972291378
  8        -10.1611799191   -2.2549395235    8.5254868240   -2.0977806248
  9        -10.1614918752   -2.2543658586    8.5261285885   -2.0980571586
 10        -10.1616572884   -2.2540839121    8.5264441898   -2.0981959233
 11        -10.1617455602   -2.2539453058    8.5265994231   -2.0982656006
 12        -10.1617928447   -2.2538772062    8.5266757320   -2.0983006047
 13        -10.1618182292   -2.2538437891    8.5267131983   -2.0983181961
 14        -10.1618318741   -2.2538274201    8.5267315620   -2.0983270391
 15        -10.1618392144   -2.2538194197    8.5267405433   -2.0983314852
 16        -10.1618431651   -2.2538155200    8.5267449245   -2.0983337210
 17        -10.1618452923   -2.2538136252    8.5267470551   -2.0983348455
 18        -10.1618464380   -2.2538127080    8.5267480875   -2.0983354110
 19        -10.1618470552   -2.2538122659    8.5267485856   -2.0983356955
 20        -10.1618473878   -2.2538120540    8.5267488248   -2.0983358386
 21        -10.1618475670   -2.2538119530    8.5267489389   -2.0983359106
 22        -10.1618476637   -2.2538119053    8.5267489929   -2.0983359468
Atom SCF converged after  22 iterations to a total energy of    -10.16184766

Atom SCF Calculation for O  : Z (AE atom) =   8 : Z (PS atom) =   6
Config String:
Orbitals (num,occ):  2     2.00 4.00
Orbitals   (num,l):  2        0    1
Real-space Grid (nr,dr,rmax): 1203    0.0066555740    8.0000000000
Spherical Bessel Basis (nsws,lmax,cutoff):   47    1  176.3951722778
Confining potential (l,width,scale):  0    3.0000000000  100.0000000000
Confining potential (l,width,scale):  1    3.0000000000  100.0000000000
  1         -1.8735052164   -7.5539365035   10.1554312477   -2.4512393157
  2        -16.0318313751   -3.1285771268   13.6395848164   -3.2358799643
  3        -15.9524020423   -3.0762819706   13.6967272503   -3.2536856837
  4        -15.8521515939   -3.0781493909   13.6951909330   -3.2561700440
  5        -15.8357139793   -3.0748501933   13.6988803334   -3.2580493133
  6        -15.8246052853   -3.0740779781   13.6997881576   -3.2588327446
  7        -15.8189019501   -3.0737449687   13.7001869911   -3.2592378801
  8        -15.8159785510   -3.0736026016   13.7003615168   -3.2594475790
  9        -15.8144776168   -3.0735437994   13.7004360379   -3.2595560735
 10        -15.8137058024   -3.0735207882   13.7004667348   -3.2596122456
 11        -15.8133083127   -3.0735125946   13.7004786868   -3.2596413656
 12        -15.8131032938   -3.0735102195   13.7004828997   -3.2596564858
 13        -15.8129973902   -3.0735099286   13.7004840891   -3.2596643505
 14        -15.8129426040   -3.0735102506   13.7004842061   -3.2596684489
 15        -15.8129142203   -3.0735106556   13.7004840157   -3.2596705887
 16        -15.8128994940   -3.0735109855   13.7004837906   -3.2596717080
 17        -15.8128918425   -3.0735112169   13.7004836103   -3.2596722946
 18        -15.8128878614   -3.0735113674   13.7004834848   -3.2596726026
 19        -15.8128857871   -3.0735114608   13.7004834035   -3.2596727646
 20        -15.8128847048   -3.0735115170   13.7004833533   -3.2596728500
 21        -15.8128841394   -3.0735115501   13.7004833231   -3.2596728951
 22        -15.8128838436   -3.0735115693   13.7004833054   -3.2596729190
 23        -15.8128836887   -3.0735115802   13.7004832951   -3.2596729316
 24        -15.8128836074   -3.0735115864   13.7004832893   -3.2596729383
Atom SCF converged after  24 iterations to a total energy of    -15.81288361

========================== Calculation in vacuum ==============================
= Adjusting the following parameters: 
= is_implicit_solvent: F
= is_include_apolar: F
= write_denskern: T
= write_tightbox_ngwfs: T
= restart read filename prefix: ""
= restart write filename prefix: "vacuum_"
===============================================================================

Determining parallel strategy ...
... using space-filling curve
... NGWF load balancing: max    163;  min    162;  average    163
... Projector load balancing: max     36;  min     32;  average     33
... done
Calculating direct Ion-Ion energy ...
Ion-Ion Energy        :    833813.81839936075266
======================= Empirical dispersion information =======================
Model : Elstner
Dispersion Correction Energy: -0.32884968E+01 Hartree
================================================================================
Basis initialisation ...... NGWF spheres initialised
... Projector spheres initialised
... NGWF tight boxes initialised
... Tight-boxes gathered
... NGWF basis size (local,global):    1264849  50797883
... Nonlocal pseudopotential projector initialisation
... done

========================== Sparse matrix information ===========================
                        Overlap matrix filling:   6.81%
                        Density kernel filling: 100.00%
              NGWF-Proj overlap matrix filling:   1.79%
                    Hamiltonian matrix filling:   7.69%
                  NGWF diagonal matrix filling:   0.05%
                             KS matrix filling: 100.00% 
                           KSKS matrix filling: 100.00% 
================================================================================

Sparse matrix initialisation ... done

Generating smeared ion density ... done
Smeared ion self correction:     -14457.169564
Smeared ion non-self correction: -833765.686673
NGWF initialisation ...... done
============ Calculation of NGWF S^-1 using Hotelling algorithm ================ 
         Iteration  |  Frobenius norm and Maximum abs value    (of I-S*S_n^-1)   
               1       0.78484588E+02     0.98266925E+00
               2       0.76636987E+02     0.96576182E+00
               3       0.73644498E+02     0.93315060E+00
               4       0.69389788E+02     0.87256157E+00
               5       0.64088983E+02     0.76880692E+00
               6       0.58129744E+02     0.70304551E+00
               7       0.52132246E+02     0.67089887E+00
               8       0.46587070E+02     0.64525289E+00
               9       0.40535144E+02     0.60452602E+00
              10       0.32294237E+02     0.53313231E+00
              11       0.21739331E+02     0.42071973E+00
              12       0.11130265E+02     0.26771533E+00
              13       0.36780172E+01     0.12366288E+00
              14       0.58455610E+00     0.36988643E-01
              15       0.28601442E-01     0.37862810E-02
              16       0.18910232E-03     0.43449107E-04
              17       0.19598376E-07     0.58888330E-08
              18       0.93932889E-13     0.46629367E-14
================================================================================
Calculating local pseudopotential in open BC on the fine real space grid ...
... done

MG BCs: +ve charge blocks (gridpoints):     20162 (   15898699).
MG BCs: -ve charge blocks (gridpoints):      8001 (    1084037).
MG BCs:     Elided blocks (gridpoints):    173752 (  173987889).
MG BCs: Computational effort saved:  99.9853%.
MG BCs: Charge after coarse-graining:           -9.0002174.
MG DL_MG: Calling solver with defect correction order = 8
MG DL_MG: Solver finished
MG Hartree energy from (\int phi*rho dr):              1462.362112
MG Hartree energy from (\int eps (grad phi)^2 dr):     1461.745121
MG Discrepancy due to finite box and discretization:     -0.616991 (  -0.04219%)
MG Correction to account for finite box:                  0.466417
MG Remaining discrepancy, due to discretization:         -0.150574 (  -0.01030%)
Up spin density kernel initialisation ... 
======= Optimisation of K by Palser-Manolopoulos canonical purification ======== 
         Iteration  |  Band structure energy |    c_n   
               1       -2587.09375634044000    0.5273068
               2       -2762.85956337730477    0.5173217
               3       -2943.49475168047229    0.5153602
               4       -3094.99264902724826    0.5284602
               5       -3188.71463083987965    0.5638535
               6       -3228.14094225311101    0.6090763
               7       -3241.50025000807636    0.6209359
               8       -3247.26751853566748    0.6168144
               9       -3250.08895459125551    0.6255860
              10       -3251.27159009404158    0.6491760
              11       -3251.71614142592716    0.6686090
              12       -3251.89637544391417    0.6616462
              13       -3251.98589909050406    0.6171359
              14       -3252.03805125008921    0.5521271
              15       -3252.06540386320830    0.5220140
              16       -3252.07296871004655    0.5458669
              17       -3252.07464240309218    0.5846587
              18       -3252.07532416981758    0.5864716
              19       -3252.07575870333858    0.5525535
              20       -3252.07611952726256    0.5188520
              21       -3252.07633446916043    0.5024715
              22       -3252.07639076998976    0.5000407
              23       -3252.07639387110794    0.5000008
              24       -3252.07639388014741    0.5000008
Termination criterion satisfied: band energy change below threshold.
Final occupancy bounds: [    0.00000000000006:    1.00000000000000]
Closest occupancy to 0.5:     1.00000000000000
================================================================================
... done

Writing density kernel to file "host_36201.vacuum_dkn" ... done

>>> Optimising kernel for current NGWFs:
   Initial electron number for spin 1:    7192.00000000
     Final electron number for spin 1:    7192.00000000

=================== Penalty functional idempotency correction ==================
 RMS occupancy error at iteration   1:  0.000000 (step -0.5000 Ne1=   7192.0000)
            Final RMS occupancy error   :  0.000000 (Ne1=   7192.0000)
               Final occupancy bounds   : [  0.0000,  1.0000]
================================================================================

................................................................................
<<<<<<<<<<<<<< LNV (Original version) density kernel optimisation >>>>>>>>>>>>>>
~~~~~~~~~~~~~~~~~~~~~~~~~~~~~~~~~~~~~~~~~~~~~~~~~~~~~~~~~~~~~~~~~~~~~~~~~~~~~~~~
   iter  |      energy (Eh)       | rms gradient |  commutator  |   dE (Eh)
MG BCs: +ve charge blocks (gridpoints):     30763 (   17027065).
MG BCs: -ve charge blocks (gridpoints):      8335 (    1115900).
MG BCs:     Elided blocks (gridpoints):    163148 (  172827660).
MG BCs: Computational effort saved:  99.9795%.
MG BCs: Charge after coarse-graining:           -9.0009508.
MG DL_MG: Calling solver with defect correction order = 8
MG DL_MG: Solver finished
MG Hartree energy from (\int phi*rho dr):              1417.059666
MG Hartree energy from (\int eps (grad phi)^2 dr):     1416.383146
MG Discrepancy due to finite box and discretization:     -0.676520 (  -0.04774%)
MG Correction to account for finite box:                  0.483268
MG Remaining discrepancy, due to discretization:         -0.193252 (  -0.01364%)
      ideal mu1:      -0.714536381744
             Q0:  -11507.068594542798
             G0:    -144.385672033731
   RMS gradient:       0.001847203524
MG BCs: +ve charge blocks (gridpoints):     30756 (   17103241).
MG BCs: -ve charge blocks (gridpoints):      8227 (    1096141).
MG BCs:     Elided blocks (gridpoints):    163155 (  172771243).
MG BCs: Computational effort saved:  99.9796%.
MG BCs: Charge after coarse-graining:           -9.0009722.
MG DL_MG: Calling solver with defect correction order = 8
MG DL_MG: Solver finished
MG Hartree energy from (\int phi*rho dr):              1442.755557
MG Hartree energy from (\int eps (grad phi)^2 dr):     1442.096166
MG Discrepancy due to finite box and discretization:     -0.659391 (  -0.04570%)
MG Correction to account for finite box:                  0.481855
MG Remaining discrepancy, due to discretization:         -0.177537 (  -0.01231%)
     Trial step:       0.500000000000
             Q1:  -11518.499302895856
 Quadratic coef:      60.762127663807
 Linear coef   :     -72.192836016866
           Qmin:  -11528.512073287464
Quadratic minimum step length (  0.297030563249) accepted
    Initial Ne1:    7192.00000000
      Final Ne1:    7192.00000000

=================== Penalty functional idempotency correction ==================
 RMS occupancy error at iteration   1:  0.003379 (step -0.4886 Ne1=   7192.0000)
 RMS occupancy error at iteration   2:  0.000027 (step -0.5001 Ne1=   7192.0000)
            Final RMS occupancy error   :  0.000000 (Ne1=   7192.0000)
               Final occupancy bounds   : [  0.0000,  1.0000]
================================================================================

    1        -1.150706859454E+04     1.8472E-03     1.6708E-03
MG BCs: +ve charge blocks (gridpoints):     30743 (   17074166).
MG BCs: -ve charge blocks (gridpoints):      8271 (    1104338).
MG BCs:     Elided blocks (gridpoints):    163167 (  172792121).
MG BCs: Computational effort saved:  99.9796%.
MG BCs: Charge after coarse-graining:           -9.0009631.
MG DL_MG: Calling solver with defect correction order = 8
MG DL_MG: Solver finished
MG Hartree energy from (\int phi*rho dr):              1424.426768
MG Hartree energy from (\int eps (grad phi)^2 dr):     1423.761386
MG Discrepancy due to finite box and discretization:     -0.665382 (  -0.04671%)
MG Correction to account for finite box:                  0.482290
MG Remaining discrepancy, due to discretization:         -0.183092 (  -0.01285%)
      ideal mu1:      -0.757961146439
             Q0:  -11528.904487448395
             G0:     -12.065445192234
   RMS gradient:       0.000530429473
MG BCs: +ve charge blocks (gridpoints):     30760 (   17090052).
MG BCs: -ve charge blocks (gridpoints):      8247 (    1099236).
MG BCs:     Elided blocks (gridpoints):    163150 (  172781337).
MG BCs: Computational effort saved:  99.9796%.
MG BCs: Charge after coarse-graining:           -9.0009669.
MG DL_MG: Calling solver with defect correction order = 8
MG DL_MG: Solver finished
MG Hartree energy from (\int phi*rho dr):              1429.581754
MG Hartree energy from (\int eps (grad phi)^2 dr):     1428.920741
MG Discrepancy due to finite box and discretization:     -0.661012 (  -0.04624%)
MG Correction to account for finite box:                  0.481040
MG Remaining discrepancy, due to discretization:         -0.179973 (  -0.01259%)
     Trial step:       0.385376804731
             Q1:  -11531.731123102945
 Quadratic coef:       1.823107061291
 Linear coef   :      -4.649742715841
           Qmin:  -11531.869221086721
Quadratic minimum step length (  0.491442063030) accepted
    Initial Ne1:    7191.99986709
      Final Ne1:    7192.00000000

=================== Penalty functional idempotency correction ==================
 RMS occupancy error at iteration   1:  0.001795 (step -0.4930 Ne1=   7192.0000)
 RMS occupancy error at iteration   2:  0.000013 (step -0.5003 Ne1=   7192.0000)
            Final RMS occupancy error   :  0.000000 (Ne1=   7192.0000)
               Final occupancy bounds   : [  0.0000,  1.0000]
================================================================================

    2        -1.152890448745E+04     5.3043E-04     4.7976E-04    -2.1836E+01
MG BCs: +ve charge blocks (gridpoints):     30763 (   17094373).
MG BCs: -ve charge blocks (gridpoints):      8246 (    1097817).
MG BCs:     Elided blocks (gridpoints):    163147 (  172778435).
MG BCs: Computational effort saved:  99.9796%.
MG BCs: Charge after coarse-graining:           -9.0009681.
MG DL_MG: Calling solver with defect correction order = 8
MG DL_MG: Solver finished
MG Hartree energy from (\int phi*rho dr):              1431.049007
MG Hartree energy from (\int eps (grad phi)^2 dr):     1430.389115
MG Discrepancy due to finite box and discretization:     -0.659892 (  -0.04611%)
MG Correction to account for finite box:                  0.480716
MG Remaining discrepancy, due to discretization:         -0.179176 (  -0.01252%)
      ideal mu1:      -0.781119347644
             Q0:  -11531.905554752913
             G0:      -1.950386302033
   RMS gradient:       0.000213340279
MG BCs: +ve charge blocks (gridpoints):     30760 (   17093631).
MG BCs: -ve charge blocks (gridpoints):      8252 (    1098850).
MG BCs:     Elided blocks (gridpoints):    163150 (  172778144).
MG BCs: Computational effort saved:  99.9796%.
MG BCs: Charge after coarse-graining:           -9.0009678.
MG DL_MG: Calling solver with defect correction order = 8
MG DL_MG: Solver finished
MG Hartree energy from (\int phi*rho dr):              1428.772768
MG Hartree energy from (\int eps (grad phi)^2 dr):     1428.113741
MG Discrepancy due to finite box and discretization:     -0.659028 (  -0.04613%)
MG Correction to account for finite box:                  0.480066
MG Remaining discrepancy, due to discretization:         -0.178962 (  -0.01253%)
     Trial step:       0.435190041202
             Q1:  -11532.403866745764
 Quadratic coef:       0.350476702290
 Linear coef   :      -0.848788695141
           Qmin:  -11532.419456421907
Quadratic minimum step length (  0.526974239367) accepted
    Initial Ne1:    7191.99987286
      Final Ne1:    7192.00000000

=================== Penalty functional idempotency correction ==================
 RMS occupancy error at iteration   1:  0.000647 (step -0.4969 Ne1=   7192.0000)
 RMS occupancy error at iteration   2:  0.000003 (step -0.5000 Ne1=   7192.0000)
            Final RMS occupancy error   :  0.000000 (Ne1=   7192.0000)
               Final occupancy bounds   : [  0.0000,  1.0000]
================================================================================

    3        -1.153190555475E+04     2.1334E-04     1.9296E-04    -3.0011E+00
MG BCs: +ve charge blocks (gridpoints):     30759 (   17093540).
MG BCs: -ve charge blocks (gridpoints):      8255 (    1099074).
MG BCs:     Elided blocks (gridpoints):    163151 (  172778011).
MG BCs: Computational effort saved:  99.9796%.
MG BCs: Charge after coarse-graining:           -9.0009677.
MG DL_MG: Calling solver with defect correction order = 8
MG DL_MG: Solver finished
MG Hartree energy from (\int phi*rho dr):              1428.302355
MG Hartree energy from (\int eps (grad phi)^2 dr):     1427.643499
MG Discrepancy due to finite box and discretization:     -0.658857 (  -0.04613%)
MG Correction to account for finite box:                  0.479930
MG Remaining discrepancy, due to discretization:         -0.178926 (  -0.01253%)
      ideal mu1:      -0.781653274059
             Q0:  -11532.424276384292
             G0:      -0.515575769787
   RMS gradient:       0.000109819506
MG BCs: +ve charge blocks (gridpoints):     30762 (   17094422).
MG BCs: -ve charge blocks (gridpoints):      8250 (    1098776).
MG BCs:     Elided blocks (gridpoints):    163148 (  172777427).
MG BCs: Computational effort saved:  99.9796%.
MG BCs: Charge after coarse-graining:           -9.0009679.
MG DL_MG: Calling solver with defect correction order = 8
MG DL_MG: Solver finished
MG Hartree energy from (\int phi*rho dr):              1429.566991
MG Hartree energy from (\int eps (grad phi)^2 dr):     1428.908298
MG Discrepancy due to finite box and discretization:     -0.658693 (  -0.04608%)
MG Correction to account for finite box:                  0.479652
MG Remaining discrepancy, due to discretization:         -0.179040 (  -0.01252%)
     Trial step:       0.478888234291
             Q1:  -11532.553752366453
 Quadratic coef:       0.117427187875
 Linear coef   :      -0.246903170036
           Qmin:  -11532.554061437646
Quadratic minimum step length (  0.503456760223) accepted
    Initial Ne1:    7191.99996788
      Final Ne1:    7192.00000000

=================== Penalty functional idempotency correction ==================
 RMS occupancy error at iteration   1:  0.000298 (step -0.4955 Ne1=   7192.0000)
 RMS occupancy error at iteration   2:  0.000003 (step -0.5000 Ne1=   7192.0000)
            Final RMS occupancy error   :  0.000000 (Ne1=   7192.0000)
               Final occupancy bounds   : [  0.0000,  1.0000]
================================================================================

    4        -1.153242427638E+04     1.0982E-04     9.9329E-05    -5.1872E-01
MG BCs: +ve charge blocks (gridpoints):     30762 (   17094454).
MG BCs: -ve charge blocks (gridpoints):      8250 (    1098752).
MG BCs:     Elided blocks (gridpoints):    163148 (  172777419).
MG BCs: Computational effort saved:  99.9796%.
MG BCs: Charge after coarse-graining:           -9.0009680.
MG DL_MG: Calling solver with defect correction order = 8
MG DL_MG: Solver finished
MG Hartree energy from (\int phi*rho dr):              1429.632492
MG Hartree energy from (\int eps (grad phi)^2 dr):     1428.973807
MG Discrepancy due to finite box and discretization:     -0.658685 (  -0.04607%)
MG Correction to account for finite box:                  0.479638
MG Remaining discrepancy, due to discretization:         -0.179047 (  -0.01252%)
      ideal mu1:      -0.782085574213
             Q0:  -11532.554708096199
             G0:      -0.198863503446
   RMS gradient:       0.000068392815
MG BCs: +ve charge blocks (gridpoints):     30764 (   17094701).
MG BCs: -ve charge blocks (gridpoints):      8249 (    1098601).
MG BCs:     Elided blocks (gridpoints):    163146 (  172777323).
MG BCs: Computational effort saved:  99.9796%.
MG BCs: Charge after coarse-graining:           -9.0009679.
MG DL_MG: Calling solver with defect correction order = 8
MG DL_MG: Solver finished
MG Hartree energy from (\int phi*rho dr):              1430.044238
MG Hartree energy from (\int eps (grad phi)^2 dr):     1429.385531
MG Discrepancy due to finite box and discretization:     -0.658707 (  -0.04606%)
MG Correction to account for finite box:                  0.479502
MG Remaining discrepancy, due to discretization:         -0.179205 (  -0.01253%)
     Trial step:       0.491018858034
             Q1:  -11532.618649684126
 Quadratic coef:       0.033704142439
 Linear coef   :      -0.097645730367
           Qmin:  -11532.625431514514
Quadratic minimum step length (  0.711275996758) accepted
    Initial Ne1:    7191.99998236
      Final Ne1:    7192.00000000

=================== Penalty functional idempotency correction ==================
 RMS occupancy error at iteration   1:  0.000509 (step -0.4715 Ne1=   7192.0000)
 RMS occupancy error at iteration   2:  0.000013 (step -0.5000 Ne1=   7192.0000)
            Final RMS occupancy error   :  0.000000 (Ne1=   7192.0000)
               Final occupancy bounds   : [  0.0000,  1.0000]
================================================================================

    5        -1.153255470810E+04     6.8393E-05     6.1860E-05    -1.3043E-01
MG BCs: +ve charge blocks (gridpoints):     30763 (   17094815).
MG BCs: -ve charge blocks (gridpoints):      8247 (    1098567).
MG BCs:     Elided blocks (gridpoints):    163147 (  172777243).
MG BCs: Computational effort saved:  99.9796%.
MG BCs: Charge after coarse-graining:           -9.0009679.
MG DL_MG: Calling solver with defect correction order = 8
MG DL_MG: Solver finished
MG Hartree energy from (\int phi*rho dr):              1430.227176
MG Hartree energy from (\int eps (grad phi)^2 dr):     1429.568464
MG Discrepancy due to finite box and discretization:     -0.658712 (  -0.04606%)
MG Correction to account for finite box:                  0.479436
MG Remaining discrepancy, due to discretization:         -0.179276 (  -0.01253%)
      ideal mu1:      -0.782173869137
             Q0:  -11532.624747891561
             G0:      -0.186194913210
   RMS gradient:       0.000066768522
MG BCs: +ve charge blocks (gridpoints):     30762 (   17094065).
MG BCs: -ve charge blocks (gridpoints):      8251 (    1099000).
MG BCs:     Elided blocks (gridpoints):    163148 (  172777560).
MG BCs: Computational effort saved:  99.9796%.
MG BCs: Charge after coarse-graining:           -9.0009677.
MG DL_MG: Calling solver with defect correction order = 8
MG DL_MG: Solver finished
MG Hartree energy from (\int phi*rho dr):              1428.865113
MG Hartree energy from (\int eps (grad phi)^2 dr):     1428.206637
MG Discrepancy due to finite box and discretization:     -0.658476 (  -0.04608%)
MG Correction to account for finite box:                  0.479213
MG Remaining discrepancy, due to discretization:         -0.179262 (  -0.01255%)
     Trial step:       0.590973711492
             Q1:  -11532.706993151223
 Quadratic coef:       0.027791039260
 Linear coef   :      -0.110036298921
           Qmin:  -11532.733667775477
Quadratic minimum step length (  1.169955527113) accepted
    Initial Ne1:    7191.99992673
      Final Ne1:    7192.00000000

=================== Penalty functional idempotency correction ==================
 RMS occupancy error at iteration   1:  0.003882 (step -0.3233 Ne1=   7192.0000)
 RMS occupancy error at iteration   2:  0.000328 (step -0.4868 Ne1=   7192.0000)
 RMS occupancy error at iteration   3:  0.000007 (step -0.5002 Ne1=   7192.0000)
            Final RMS occupancy error   :  0.000000 (Ne1=   7192.0000)
               Final occupancy bounds   : [  0.0000,  1.0000]
================================================================================

    6        -1.153262474789E+04     6.6769E-05     6.0391E-05    -7.0040E-02
MG BCs: +ve charge blocks (gridpoints):     30760 (   17093343).
MG BCs: -ve charge blocks (gridpoints):      8254 (    1099469).
MG BCs:     Elided blocks (gridpoints):    163150 (  172777813).
MG BCs: Computational effort saved:  99.9796%.
MG BCs: Charge after coarse-graining:           -9.0009675.
MG DL_MG: Calling solver with defect correction order = 8
MG DL_MG: Solver finished
MG Hartree energy from (\int phi*rho dr):              1427.545371
MG Hartree energy from (\int eps (grad phi)^2 dr):     1426.887118
MG Discrepancy due to finite box and discretization:     -0.658253 (  -0.04611%)
MG Correction to account for finite box:                  0.479003
MG Remaining discrepancy, due to discretization:         -0.179249 (  -0.01256%)
      ideal mu1:      -0.781722050900
             Q0:  -11532.715041311341
             G0:      -0.326885045372
   RMS gradient:       0.000087892178
MG BCs: +ve charge blocks (gridpoints):     30757 (   17095405).
MG BCs: -ve charge blocks (gridpoints):      8250 (    1098172).
MG BCs:     Elided blocks (gridpoints):    163153 (  172777048).
MG BCs: Computational effort saved:  99.9796%.
MG BCs: Charge after coarse-graining:           -9.0009683.
MG DL_MG: Calling solver with defect correction order = 8
MG DL_MG: Solver finished
MG Hartree energy from (\int phi*rho dr):              1430.791768
MG Hartree energy from (\int eps (grad phi)^2 dr):     1430.133881
MG Discrepancy due to finite box and discretization:     -0.657887 (  -0.04598%)
MG Correction to account for finite box:                  0.478832
MG Remaining discrepancy, due to discretization:         -0.179055 (  -0.01251%)
     Trial step:       0.831512453388
             Q1:  -11532.806912689935
 Quadratic coef:       0.179937607460
 Linear coef   :      -0.271808986053
           Qmin:  -11532.817688175915
Quadratic minimum step length (  0.628030349066) accepted
    Initial Ne1:    7191.99996219
      Final Ne1:    7192.00000000

=================== Penalty functional idempotency correction ==================
 RMS occupancy error at iteration   1:  0.000184 (step -0.4873 Ne1=   7192.0000)
 RMS occupancy error at iteration   2:  0.000001 (step -0.5000 Ne1=   7192.0000)
            Final RMS occupancy error   :  0.000000 (Ne1=   7192.0000)
               Final occupancy bounds   : [  0.0000,  1.0000]
================================================================================

    7        -1.153271504131E+04     8.7892E-05     7.9496E-05    -9.0293E-02
MG BCs: +ve charge blocks (gridpoints):     30762 (   17095001).
MG BCs: -ve charge blocks (gridpoints):      8249 (    1098421).
MG BCs:     Elided blocks (gridpoints):    163148 (  172777203).
MG BCs: Computational effort saved:  99.9796%.
MG BCs: Charge after coarse-graining:           -9.0009681.
MG DL_MG: Calling solver with defect correction order = 8
MG DL_MG: Solver finished
MG Hartree energy from (\int phi*rho dr):              1429.994139
MG Hartree energy from (\int eps (grad phi)^2 dr):     1429.336163
MG Discrepancy due to finite box and discretization:     -0.657975 (  -0.04601%)
MG Correction to account for finite box:                  0.478874
MG Remaining discrepancy, due to discretization:         -0.179101 (  -0.01252%)
      ideal mu1:      -0.782750337753
             Q0:  -11532.817903023446
             G0:      -0.232843419311
   RMS gradient:       0.000074113931
MG BCs: +ve charge blocks (gridpoints):     30761 (   17094812).
MG BCs: -ve charge blocks (gridpoints):      8248 (    1098495).
MG BCs:     Elided blocks (gridpoints):    163149 (  172777318).
MG BCs: Computational effort saved:  99.9796%.
MG BCs: Charge after coarse-graining:           -9.0009681.
MG DL_MG: Calling solver with defect correction order = 8
MG DL_MG: Solver finished
MG Hartree energy from (\int phi*rho dr):              1429.825898
MG Hartree energy from (\int eps (grad phi)^2 dr):     1429.168104
MG Discrepancy due to finite box and discretization:     -0.657794 (  -0.04601%)
MG Correction to account for finite box:                  0.478857
MG Remaining discrepancy, due to discretization:         -0.178937 (  -0.01251%)
     Trial step:       0.722644488219
             Q1:  -11532.916277050157
 Quadratic coef:       0.069888986873
 Linear coef   :      -0.168263013583
           Qmin:  -11532.919179501354
Quadratic minimum step length (  0.869910588049) accepted
    Initial Ne1:    7191.99996243
      Final Ne1:    7192.00000000

=================== Penalty functional idempotency correction ==================
 RMS occupancy error at iteration   1:  0.001428 (step -0.4160 Ne1=   7192.0000)
 RMS occupancy error at iteration   2:  0.000057 (step -0.4972 Ne1=   7192.0000)
 RMS occupancy error at iteration   3:  0.000000 (step -0.5000 Ne1=   7192.0000)
            Final RMS occupancy error   :  0.000000 (Ne1=   7192.0000)
               Final occupancy bounds   : [  0.0000,  1.0000]
================================================================================

    8        -1.153281790302E+04     7.4114E-05     6.7034E-05    -1.0286E-01
MG BCs: +ve charge blocks (gridpoints):     30762 (   17094790).
MG BCs: -ve charge blocks (gridpoints):      8248 (    1098519).
MG BCs:     Elided blocks (gridpoints):    163148 (  172777316).
MG BCs: Computational effort saved:  99.9796%.
MG BCs: Charge after coarse-graining:           -9.0009681.
MG DL_MG: Calling solver with defect correction order = 8
MG DL_MG: Solver finished
MG Hartree energy from (\int phi*rho dr):              1429.795042
MG Hartree energy from (\int eps (grad phi)^2 dr):     1429.137284
MG Discrepancy due to finite box and discretization:     -0.657758 (  -0.04600%)
MG Correction to account for finite box:                  0.478854
MG Remaining discrepancy, due to discretization:         -0.178904 (  -0.01251%)
      ideal mu1:      -0.782111809774
             Q0:  -11532.917973749805
             G0:      -0.245007931443
   RMS gradient:       0.000076266223
MG BCs: +ve charge blocks (gridpoints):     30759 (   17094000).
MG BCs: -ve charge blocks (gridpoints):      8250 (    1099055).
MG BCs:     Elided blocks (gridpoints):    163151 (  172777570).
MG BCs: Computational effort saved:  99.9796%.
MG BCs: Charge after coarse-graining:           -9.0009678.
MG DL_MG: Calling solver with defect correction order = 8
MG DL_MG: Solver finished
MG Hartree energy from (\int phi*rho dr):              1428.328227
MG Hartree energy from (\int eps (grad phi)^2 dr):     1427.670486
MG Discrepancy due to finite box and discretization:     -0.657741 (  -0.04605%)
MG Correction to account for finite box:                  0.478936
MG Remaining discrepancy, due to discretization:         -0.178806 (  -0.01252%)
     Trial step:       0.792865746326
             Q1:  -11532.998020136729
 Quadratic coef:       0.114212009496
 Linear coef   :      -0.194258396420
           Qmin:  -11533.000575230915
Quadratic minimum step length (  0.674275976483) accepted
    Initial Ne1:    7191.99996915
      Final Ne1:    7192.00000000

=================== Penalty functional idempotency correction ==================
 RMS occupancy error at iteration   1:  0.003296 (step -0.3480 Ne1=   7192.0000)
 RMS occupancy error at iteration   2:  0.000220 (step -0.4897 Ne1=   7192.0000)
 RMS occupancy error at iteration   3:  0.000004 (step -0.5000 Ne1=   7192.0000)
            Final RMS occupancy error   :  0.000000 (Ne1=   7192.0000)
               Final occupancy bounds   : [  0.0000,  1.0000]
================================================================================

    9        -1.153291797375E+04     7.6266E-05     6.8981E-05    -1.0007E-01
MG BCs: +ve charge blocks (gridpoints):     30759 (   17094079).
MG BCs: -ve charge blocks (gridpoints):      8249 (    1098992).
MG BCs:     Elided blocks (gridpoints):    163151 (  172777554).
MG BCs: Computational effort saved:  99.9796%.
MG BCs: Charge after coarse-graining:           -9.0009679.
MG DL_MG: Calling solver with defect correction order = 8
MG DL_MG: Solver finished
MG Hartree energy from (\int phi*rho dr):              1428.547559
MG Hartree energy from (\int eps (grad phi)^2 dr):     1427.889852
MG Discrepancy due to finite box and discretization:     -0.657708 (  -0.04604%)
MG Correction to account for finite box:                  0.478892
MG Remaining discrepancy, due to discretization:         -0.178815 (  -0.01252%)
      ideal mu1:      -0.781092614813
   10        -1.153300741085E+04     6.4693E-05     5.8513E-05    -8.9437E-02
Finished density kernel iterations (  10)

Writing density kernel to file "host_36201.vacuum_dkn" ... done


>>> Density kernel optimised for the current NGWF basis:
     ~~~~~~~~~~~~~~~~~~~~~~~~~~~~~~~~~~~~~~~~~~~~~~~~~~~~~~~~~~~
     Total energy                =  -1.15330074108540E+04  Eh
     Estimated bandgap           =  -3.3927E-01  Eh
     RMS occupancy error         =   1.7406E-09
     [H,K] commutator            =   5.8513E-05
     Occupancy bounds            = [  0.000:  1.000]
     ~~~~~~~~~~~~~~~~~~~~~~~~~~~~~~~~~~~~~~~~~~~~~~~~~~~~~~~~~~~




################################################################################
########################### NGWF CG iteration  001 #############################
################################################################################
****** Reciprocal space K.E. preconditioning with k_zero =  3.5000 a0^-1 *******

>>> Checking for convergence of NGWFs:   NOT CONVERGED
  ========================================================================
         NGWF RMS gradient =  1.5836E-03 >  2.0000E-06  | above tolerance
  ========================================================================

>>> Improving NGWFs using line search:
============ Calculation of NGWF S^-1 using Hotelling algorithm ================ 
         Iteration  |  Frobenius norm and Maximum abs value    (of I-S*S_n^-1)   
               1       0.19575525E+00     0.53213328E-02
               2       0.89453688E-03     0.39798597E-04
               3       0.32495722E-07     0.22891686E-08
               4       0.12985691E-12     0.78825835E-14
================================================================================
MG BCs: +ve charge blocks (gridpoints):     30260 (   17039611).
MG BCs: -ve charge blocks (gridpoints):      8261 (    1098930).
MG BCs:     Elided blocks (gridpoints):    163651 (  172832084).
MG BCs: Computational effort saved:  99.9798%.
MG BCs: Charge after coarse-graining:           -9.0009664.
MG DL_MG: Calling solver with defect correction order = 8
MG DL_MG: Solver finished
MG Hartree energy from (\int phi*rho dr):              1397.024542
MG Hartree energy from (\int eps (grad phi)^2 dr):     1396.367690
MG Discrepancy due to finite box and discretization:     -0.656852 (  -0.04702%)
MG Correction to account for finite box:                  0.478778
MG Remaining discrepancy, due to discretization:         -0.178074 (  -0.01275%)
============ Calculation of NGWF S^-1 using Hotelling algorithm ================ 
         Iteration  |  Frobenius norm and Maximum abs value    (of I-S*S_n^-1)   
               1       0.18452910E+01     0.43309909E-01
               2       0.70926669E-01     0.23953885E-02
               3       0.14376205E-03     0.78784624E-05
               4       0.11081172E-08     0.11696195E-09
               5       0.10992869E-12     0.51070259E-14
================================================================================
------------------------------- NGWF line search -------------------------------
RMS gradient                =       0.00158357842793
Trial step length           =               0.122474
Gradient along search dir.  =       -273.86671382677
Functional at step 0        =  -11533.00741085398477
Functional at step 1        =  -11563.99928485043347
Functional predicted        =  -11643.31406801300909
Selected quadratic step     =               0.805550
--------------------------- NGWF line search finished --------------------------
                                               
Writing NGWFs to file "host_36201.vacuum_tightbox_ngwfs"....  done

>>> Optimising kernel for current NGWFs:
   Initial electron number for spin 1:    7226.39291007
     Final electron number for spin 1:    7192.00000000

=================== Penalty functional idempotency correction ==================
 RMS occupancy error at iteration   1:  0.004287 (step -0.4858 Ne1=   7192.0000)
 RMS occupancy error at iteration   2:  0.000072 (step -0.5003 Ne1=   7192.0000)
            Final RMS occupancy error   :  0.000000 (Ne1=   7192.0000)
               Final occupancy bounds   : [  0.0000,  1.0000]
================================================================================

................................................................................
<<<<<<<<<<<<<< LNV (Original version) density kernel optimisation >>>>>>>>>>>>>>
~~~~~~~~~~~~~~~~~~~~~~~~~~~~~~~~~~~~~~~~~~~~~~~~~~~~~~~~~~~~~~~~~~~~~~~~~~~~~~~~
   iter  |      energy (Eh)       | rms gradient |  commutator  |   dE (Eh)
MG BCs: +ve charge blocks (gridpoints):     24478 (   16761124).
MG BCs: -ve charge blocks (gridpoints):      8424 (    1082472).
MG BCs:     Elided blocks (gridpoints):    169436 (  173127029).
MG BCs: Computational effort saved:  99.9828%.
MG BCs: Charge after coarse-graining:           -9.0006484.
MG DL_MG: Calling solver with defect correction order = 8
MG DL_MG: Solver finished
MG Hartree energy from (\int phi*rho dr):              1243.280661
MG Hartree energy from (\int eps (grad phi)^2 dr):     1242.623966
MG Discrepancy due to finite box and discretization:     -0.656695 (  -0.05282%)
MG Correction to account for finite box:                  0.478241
MG Remaining discrepancy, due to discretization:         -0.178454 (  -0.01435%)
      ideal mu1:      -0.721213692792
             Q0:  -11642.515560455853
             G0:      -9.959038868834
   RMS gradient:       0.000485133665
MG BCs: +ve charge blocks (gridpoints):     24539 (   16776007).
MG BCs: -ve charge blocks (gridpoints):      8403 (    1078843).
MG BCs:     Elided blocks (gridpoints):    169375 (  173115775).
MG BCs: Computational effort saved:  99.9828%.
MG BCs: Charge after coarse-graining:           -9.0006441.
MG DL_MG: Calling solver with defect correction order = 8
MG DL_MG: Solver finished
MG Hartree energy from (\int phi*rho dr):              1259.269793
MG Hartree energy from (\int eps (grad phi)^2 dr):     1258.607861
MG Discrepancy due to finite box and discretization:     -0.661932 (  -0.05256%)
MG Correction to account for finite box:                  0.477450
MG Remaining discrepancy, due to discretization:         -0.184482 (  -0.01465%)
     Trial step:       0.731170517269
             Q1:  -11641.773383145453
 Quadratic coef:       8.023932911627
 Linear coef   :      -7.281755601228
           Qmin:  -11644.167617035215
Quadratic minimum step length (  0.331770284486) accepted
    Initial Ne1:    7191.99956712
      Final Ne1:    7192.00000000

=================== Penalty functional idempotency correction ==================
 RMS occupancy error at iteration   1:  0.000363 (step -0.4985 Ne1=   7192.0000)
 RMS occupancy error at iteration   2:  0.000000 (step -0.5000 Ne1=   7192.0000)
            Final RMS occupancy error   :  0.000000 (Ne1=   7192.0000)
               Final occupancy bounds   : [  0.0000,  1.0000]
================================================================================

    1        -1.164251556046E+04     4.8513E-04     4.3879E-04
MG BCs: +ve charge blocks (gridpoints):     24503 (   16768011).
MG BCs: -ve charge blocks (gridpoints):      8418 (    1080884).
MG BCs:     Elided blocks (gridpoints):    169411 (  173121730).
MG BCs: Computational effort saved:  99.9828%.
MG BCs: Charge after coarse-graining:           -9.0006463.
MG DL_MG: Calling solver with defect correction order = 8
MG DL_MG: Solver finished
MG Hartree energy from (\int phi*rho dr):              1249.564469
MG Hartree energy from (\int eps (grad phi)^2 dr):     1248.905504
MG Discrepancy due to finite box and discretization:     -0.658965 (  -0.05274%)
MG Correction to account for finite box:                  0.477851
MG Remaining discrepancy, due to discretization:         -0.181113 (  -0.01449%)
      ideal mu1:      -0.727921867133
             Q0:  -11644.141027235542
             G0:      -1.042972603034
   RMS gradient:       0.000157703103
MG BCs: +ve charge blocks (gridpoints):     24501 (   16767580).
MG BCs: -ve charge blocks (gridpoints):      8413 (    1081816).
MG BCs:     Elided blocks (gridpoints):    169413 (  173121229).
MG BCs: Computational effort saved:  99.9828%.
MG BCs: Charge after coarse-graining:           -9.0006462.
MG DL_MG: Calling solver with defect correction order = 8
MG DL_MG: Solver finished
MG Hartree energy from (\int phi*rho dr):              1250.593366
MG Hartree energy from (\int eps (grad phi)^2 dr):     1249.934052
MG Discrepancy due to finite box and discretization:     -0.659314 (  -0.05272%)
MG Correction to account for finite box:                  0.477799
MG Remaining discrepancy, due to discretization:         -0.181515 (  -0.01451%)
     Trial step:       0.492524771481
             Q1:  -11644.361820081365
 Quadratic coef:       0.292896997147
 Linear coef   :      -0.513689842970
           Qmin:  -11644.366257655571
Quadratic minimum step length (  0.431900932726) accepted
    Initial Ne1:    7191.99994044
      Final Ne1:    7192.00000000

=================== Penalty functional idempotency correction ==================
 RMS occupancy error at iteration   1:  0.000162 (step -0.4990 Ne1=   7192.0000)
 RMS occupancy error at iteration   2:  0.000000 (step -0.5000 Ne1=   7192.0000)
            Final RMS occupancy error   :  0.000000 (Ne1=   7192.0000)
               Final occupancy bounds   : [  0.0000,  1.0000]
================================================================================

    2        -1.164414102724E+04     1.5770E-04     1.4264E-04    -1.6255E+00
MG BCs: +ve charge blocks (gridpoints):     24502 (   16767627).
MG BCs: -ve charge blocks (gridpoints):      8413 (    1081679).
MG BCs:     Elided blocks (gridpoints):    169412 (  173121319).
MG BCs: Computational effort saved:  99.9828%.
MG BCs: Charge after coarse-graining:           -9.0006462.
MG DL_MG: Calling solver with defect correction order = 8
MG DL_MG: Solver finished
MG Hartree energy from (\int phi*rho dr):              1250.466563
MG Hartree energy from (\int eps (grad phi)^2 dr):     1249.807294
MG Discrepancy due to finite box and discretization:     -0.659269 (  -0.05272%)
MG Correction to account for finite box:                  0.477806
MG Remaining discrepancy, due to discretization:         -0.181464 (  -0.01451%)
      ideal mu1:      -0.728834673203
             Q0:  -11644.366766854073
             G0:      -0.184250552138
   RMS gradient:       0.000065912650
MG BCs: +ve charge blocks (gridpoints):     24505 (   16767027).
MG BCs: -ve charge blocks (gridpoints):      8414 (    1082132).
MG BCs:     Elided blocks (gridpoints):    169409 (  173121466).
MG BCs: Computational effort saved:  99.9828%.
MG BCs: Charge after coarse-graining:           -9.0006462.
MG DL_MG: Calling solver with defect correction order = 8
MG DL_MG: Solver finished
MG Hartree energy from (\int phi*rho dr):              1249.925960
MG Hartree energy from (\int eps (grad phi)^2 dr):     1249.266764
MG Discrepancy due to finite box and discretization:     -0.659196 (  -0.05274%)
MG Correction to account for finite box:                  0.477748
MG Remaining discrepancy, due to discretization:         -0.181449 (  -0.01452%)
     Trial step:       0.461217853290
             Q1:  -11644.426216790453
 Quadratic coef:       0.025529707746
 Linear coef   :      -0.084979644125
           Qmin:  -11644.437483878995
Quadratic minimum step length (  0.767618051626) accepted
    Initial Ne1:    7191.99998149
      Final Ne1:    7192.00000000

=================== Penalty functional idempotency correction ==================
 RMS occupancy error at iteration   1:  0.000227 (step -0.4886 Ne1=   7192.0000)
 RMS occupancy error at iteration   2:  0.000002 (step -0.5000 Ne1=   7192.0000)
            Final RMS occupancy error   :  0.000000 (Ne1=   7192.0000)
               Final occupancy bounds   : [  0.0000,  1.0000]
================================================================================

    3        -1.164436676685E+04     6.5913E-05     5.9616E-05    -2.2574E-01
MG BCs: +ve charge blocks (gridpoints):     24505 (   16766558).
MG BCs: -ve charge blocks (gridpoints):      8413 (    1082480).
MG BCs:     Elided blocks (gridpoints):    169409 (  173121587).
MG BCs: Computational effort saved:  99.9828%.
MG BCs: Charge after coarse-graining:           -9.0006461.
MG DL_MG: Calling solver with defect correction order = 8
MG DL_MG: Solver finished
MG Hartree energy from (\int phi*rho dr):              1249.566936
MG Hartree energy from (\int eps (grad phi)^2 dr):     1248.907789
MG Discrepancy due to finite box and discretization:     -0.659147 (  -0.05275%)
MG Correction to account for finite box:                  0.477708
MG Remaining discrepancy, due to discretization:         -0.181440 (  -0.01452%)
      ideal mu1:      -0.728017575068
             Q0:  -11644.437474730075
             G0:      -0.085668308500
   RMS gradient:       0.000044973540
MG BCs: +ve charge blocks (gridpoints):     24504 (   16766455).
MG BCs: -ve charge blocks (gridpoints):      8414 (    1082450).
MG BCs:     Elided blocks (gridpoints):    169410 (  173121720).
MG BCs: Computational effort saved:  99.9828%.
MG BCs: Charge after coarse-graining:           -9.0006462.
MG DL_MG: Calling solver with defect correction order = 8
MG DL_MG: Solver finished
MG Hartree energy from (\int phi*rho dr):              1249.592265
MG Hartree energy from (\int eps (grad phi)^2 dr):     1248.933319
MG Discrepancy due to finite box and discretization:     -0.658946 (  -0.05273%)
MG Correction to account for finite box:                  0.477647
MG Remaining discrepancy, due to discretization:         -0.181299 (  -0.01451%)
     Trial step:       0.595011890568
             Q1:  -11644.469574648188
 Quadratic coef:       0.018873744089
 Linear coef   :      -0.050973662202
           Qmin:  -11644.471891778250
Quadratic minimum step length (  0.803495453059) accepted
    Initial Ne1:    7191.99999004
      Final Ne1:    7192.00000000

=================== Penalty functional idempotency correction ==================
 RMS occupancy error at iteration   1:  0.000472 (step -0.4718 Ne1=   7192.0000)
 RMS occupancy error at iteration   2:  0.000006 (step -0.4999 Ne1=   7192.0000)
            Final RMS occupancy error   :  0.000000 (Ne1=   7192.0000)
               Final occupancy bounds   : [ -0.0000,  1.0000]
================================================================================

    4        -1.164443747473E+04     4.4974E-05     4.0678E-05    -7.0708E-02
MG BCs: +ve charge blocks (gridpoints):     24505 (   16766454).
MG BCs: -ve charge blocks (gridpoints):      8414 (    1082419).
MG BCs:     Elided blocks (gridpoints):    169409 (  173121752).
MG BCs: Computational effort saved:  99.9828%.
MG BCs: Charge after coarse-graining:           -9.0006463.
MG DL_MG: Calling solver with defect correction order = 8
MG DL_MG: Solver finished
MG Hartree energy from (\int phi*rho dr):              1249.603171
MG Hartree energy from (\int eps (grad phi)^2 dr):     1248.944297
MG Discrepancy due to finite box and discretization:     -0.658874 (  -0.05273%)
MG Correction to account for finite box:                  0.477623
MG Remaining discrepancy, due to discretization:         -0.181250 (  -0.01450%)
      ideal mu1:      -0.728565541109
             Q0:  -11644.471796115395
             G0:      -0.089291554097
   RMS gradient:       0.000045860047
MG BCs: +ve charge blocks (gridpoints):     24502 (   16767895).
MG BCs: -ve charge blocks (gridpoints):      8414 (    1081864).
MG BCs:     Elided blocks (gridpoints):    169412 (  173120866).
MG BCs: Computational effort saved:  99.9828%.
MG BCs: Charge after coarse-graining:           -9.0006460.
MG DL_MG: Calling solver with defect correction order = 8
MG DL_MG: Solver finished
MG Hartree energy from (\int phi*rho dr):              1250.617459
MG Hartree energy from (\int eps (grad phi)^2 dr):     1249.958848
MG Discrepancy due to finite box and discretization:     -0.658611 (  -0.05266%)
MG Correction to account for finite box:                  0.477453
MG Remaining discrepancy, due to discretization:         -0.181158 (  -0.01449%)
     Trial step:       0.691440054226
             Q1:  -11644.506548530771
 Quadratic coef:       0.026987341629
 Linear coef   :      -0.061739757007
           Qmin:  -11644.507107092368
Quadratic minimum step length (  0.790914153738) accepted
    Initial Ne1:    7192.00000569
      Final Ne1:    7192.00000000

=================== Penalty functional idempotency correction ==================
 RMS occupancy error at iteration   1:  0.001403 (step -0.4238 Ne1=   7192.0000)
 RMS occupancy error at iteration   2:  0.000043 (step -0.4985 Ne1=   7192.0000)
 RMS occupancy error at iteration   3:  0.000000 (step -0.5000 Ne1=   7192.0000)
            Final RMS occupancy error   :  0.000000 (Ne1=   7192.0000)
               Final occupancy bounds   : [  0.0000,  1.0000]
================================================================================

    5        -1.164447179612E+04     4.5860E-05     4.1479E-05    -3.4321E-02
MG BCs: +ve charge blocks (gridpoints):     24502 (   16768095).
MG BCs: -ve charge blocks (gridpoints):      8414 (    1081771).
MG BCs:     Elided blocks (gridpoints):    169412 (  173120759).
MG BCs: Computational effort saved:  99.9828%.
MG BCs: Charge after coarse-graining:           -9.0006460.
MG DL_MG: Calling solver with defect correction order = 8
MG DL_MG: Solver finished
MG Hartree energy from (\int phi*rho dr):              1250.764936
MG Hartree energy from (\int eps (grad phi)^2 dr):     1250.106358
MG Discrepancy due to finite box and discretization:     -0.658577 (  -0.05265%)
MG Correction to account for finite box:                  0.477432
MG Remaining discrepancy, due to discretization:         -0.181145 (  -0.01448%)
      ideal mu1:      -0.730210991330
             Q0:  -11644.507662802120
             G0:      -0.073291847841
   RMS gradient:       0.000040528876
MG BCs: +ve charge blocks (gridpoints):     24504 (   16768034).
MG BCs: -ve charge blocks (gridpoints):      8413 (    1081879).
MG BCs:     Elided blocks (gridpoints):    169410 (  173120712).
MG BCs: Computational effort saved:  99.9828%.
MG BCs: Charge after coarse-graining:           -9.0006460.
MG DL_MG: Calling solver with defect correction order = 8
MG DL_MG: Solver finished
MG Hartree energy from (\int phi*rho dr):              1250.476303
MG Hartree energy from (\int eps (grad phi)^2 dr):     1249.817915
MG Discrepancy due to finite box and discretization:     -0.658387 (  -0.05265%)
MG Correction to account for finite box:                  0.477206
MG Remaining discrepancy, due to discretization:         -0.181181 (  -0.01449%)
     Trial step:       0.739506406564
             Q1:  -11644.540301605593
 Quadratic coef:       0.021560987554
 Linear coef   :      -0.054199791028
           Qmin:  -11644.541724522856
Quadratic minimum step length (  0.929481838411) accepted
    Initial Ne1:    7192.00000522
      Final Ne1:    7192.00000000

=================== Penalty functional idempotency correction ==================
 RMS occupancy error at iteration   1:  0.002653 (step -0.3750 Ne1=   7192.0000)
 RMS occupancy error at iteration   2:  0.000119 (step -0.4956 Ne1=   7192.0000)
 RMS occupancy error at iteration   3:  0.000001 (step -0.5000 Ne1=   7192.0000)
            Final RMS occupancy error   :  0.000000 (Ne1=   7192.0000)
               Final occupancy bounds   : [  0.0000,  1.0000]
================================================================================

    6        -1.164450766280E+04     4.0529E-05     3.6657E-05    -3.5867E-02
MG BCs: +ve charge blocks (gridpoints):     24506 (   16768021).
MG BCs: -ve charge blocks (gridpoints):      8412 (    1081913).
MG BCs:     Elided blocks (gridpoints):    169408 (  173120691).
MG BCs: Computational effort saved:  99.9828%.
MG BCs: Charge after coarse-graining:           -9.0006460.
MG DL_MG: Calling solver with defect correction order = 8
MG DL_MG: Solver finished
MG Hartree energy from (\int phi*rho dr):              1250.403233
MG Hartree energy from (\int eps (grad phi)^2 dr):     1249.744873
MG Discrepancy due to finite box and discretization:     -0.658361 (  -0.05265%)
MG Correction to account for finite box:                  0.477171
MG Remaining discrepancy, due to discretization:         -0.181190 (  -0.01449%)
      ideal mu1:      -0.730375502469
             Q0:  -11644.543703715550
             G0:      -0.059275698191
   RMS gradient:       0.000037427519
MG BCs: +ve charge blocks (gridpoints):     24501 (   16766412).
MG BCs: -ve charge blocks (gridpoints):      8417 (    1082371).
MG BCs:     Elided blocks (gridpoints):    169413 (  173121842).
MG BCs: Computational effort saved:  99.9828%.
MG BCs: Charge after coarse-graining:           -9.0006463.
MG DL_MG: Calling solver with defect correction order = 8
MG DL_MG: Solver finished
MG Hartree energy from (\int phi*rho dr):              1249.597418
MG Hartree energy from (\int eps (grad phi)^2 dr):     1248.938974
MG Discrepancy due to finite box and discretization:     -0.658444 (  -0.05269%)
MG Correction to account for finite box:                  0.477218
MG Remaining discrepancy, due to discretization:         -0.181226 (  -0.01450%)
     Trial step:       0.829070427822
             Q1:  -11644.558741266723
 Quadratic coef:       0.034106177285
 Linear coef   :      -0.049143728458
           Qmin:  -11644.561406564704
Quadratic minimum step length (  0.597305462250) accepted
    Initial Ne1:    7191.99999975
      Final Ne1:    7192.00000000

=================== Penalty functional idempotency correction ==================
 RMS occupancy error at iteration   1:  0.000032 (step -0.4981 Ne1=   7192.0000)
            Final RMS occupancy error   :  0.000000 (Ne1=   7192.0000)
               Final occupancy bounds   : [ -0.0000,  1.0000]
================================================================================

    7        -1.164454370372E+04     3.7428E-05     3.3852E-05    -3.6041E-02
MG BCs: +ve charge blocks (gridpoints):     24503 (   16766903).
MG BCs: -ve charge blocks (gridpoints):      8417 (    1082244).
MG BCs:     Elided blocks (gridpoints):    169411 (  173121478).
MG BCs: Computational effort saved:  99.9828%.
MG BCs: Charge after coarse-graining:           -9.0006462.
MG DL_MG: Calling solver with defect correction order = 8
MG DL_MG: Solver finished
MG Hartree energy from (\int phi*rho dr):              1249.820846
MG Hartree energy from (\int eps (grad phi)^2 dr):     1249.162424
MG Discrepancy due to finite box and discretization:     -0.658422 (  -0.05268%)
MG Correction to account for finite box:                  0.477206
MG Remaining discrepancy, due to discretization:         -0.181216 (  -0.01450%)
      ideal mu1:      -0.729752276761
             Q0:  -11644.561414894997
             G0:      -0.046831757885
   RMS gradient:       0.000033260614
MG BCs: +ve charge blocks (gridpoints):     24503 (   16766806).
MG BCs: -ve charge blocks (gridpoints):      8416 (    1082217).
MG BCs:     Elided blocks (gridpoints):    169411 (  173121602).
MG BCs: Computational effort saved:  99.9828%.
MG BCs: Charge after coarse-graining:           -9.0006462.
MG DL_MG: Calling solver with defect correction order = 8
MG DL_MG: Solver finished
MG Hartree energy from (\int phi*rho dr):              1249.662525
MG Hartree energy from (\int eps (grad phi)^2 dr):     1249.004155
MG Discrepancy due to finite box and discretization:     -0.658370 (  -0.05268%)
MG Correction to account for finite box:                  0.477080
[...]
MG DL_MG: Calling solver with defect correction order = 8
MG DL_MG: Solver finished
MG Hartree energy from (\int phi*rho dr):              1208.067711
MG Hartree energy from (\int eps (grad phi)^2 dr):     1207.880788
MG Discrepancy due to finite box and discretization:     -0.186923 (  -0.01547%)
MG Correction to account for finite box:                  0.006457
MG Remaining discrepancy, due to discretization:         -0.180466 (  -0.01494%)
             Q2:  -11679.057301323162
  Cubic LS coeff:       0.983902217517
Predicted energy:  -11679.057301323171
Cubic minimum step length accepted
    Initial Ne1:    7192.00000000
      Final Ne1:    7192.00000000

=================== Penalty functional idempotency correction ==================
 RMS occupancy error at iteration   1:  0.000000 (step -0.5000 Ne1=   7192.0000)
            Final RMS occupancy error   :  0.000000 (Ne1=   7192.0000)
               Final occupancy bounds   : [  0.0000,  1.0000]
================================================================================

    7        -1.167905730132E+04     1.0285E-08     9.3023E-09    -3.0268E-09

Reusing previously generated solute cavity.
MG BCs: +ve charge blocks (gridpoints):     28618 (   18890331).
MG BCs: -ve charge blocks (gridpoints):      8401 (    1050674).
MG BCs:     Elided blocks (gridpoints):    165296 (  171029620).
MG BCs: Computational effort saved:  99.9806%.
MG BCs: Charge after coarse-graining:           -9.0009336.
MG DL_MG: Calling solver with defect correction order = 8
MG DL_MG: Solver finished
MG Hartree energy from (\int phi*rho dr):              1208.067711
MG Hartree energy from (\int eps (grad phi)^2 dr):     1207.880788
MG Discrepancy due to finite box and discretization:     -0.186923 (  -0.01547%)
MG Correction to account for finite box:                  0.006457
MG Remaining discrepancy, due to discretization:         -0.180466 (  -0.01494%)
      ideal mu1:      -0.481424314097
             Q0:  -11679.057301323162
             G0:      -0.000000005766
   RMS gradient:       0.000000011771

Reusing previously generated solute cavity.
MG BCs: +ve charge blocks (gridpoints):     28618 (   18890331).
MG BCs: -ve charge blocks (gridpoints):      8401 (    1050674).
MG BCs:     Elided blocks (gridpoints):    165296 (  171029620).
MG BCs: Computational effort saved:  99.9806%.
MG BCs: Charge after coarse-graining:           -9.0009336.
MG DL_MG: Calling solver with defect correction order = 8
MG DL_MG: Solver finished
MG Hartree energy from (\int phi*rho dr):              1208.067674
MG Hartree energy from (\int eps (grad phi)^2 dr):     1207.880751
MG Discrepancy due to finite box and discretization:     -0.186923 (  -0.01547%)
MG Correction to account for finite box:                  0.006457
MG Remaining discrepancy, due to discretization:         -0.180466 (  -0.01494%)
     Trial step:       0.698604154398
             Q1:  -11679.057301325374
 Quadratic coef:       0.000000001817
 Linear coef   :      -0.000000004028
           Qmin:  -11679.057301325394
Quadratic minimum step length (  0.774352139768) accepted
    Initial Ne1:    7192.00000000
      Final Ne1:    7192.00000000

=================== Penalty functional idempotency correction ==================
 RMS occupancy error at iteration   1:  0.000000 (step -0.5000 Ne1=   7192.0000)
            Final RMS occupancy error   :  0.000000 (Ne1=   7192.0000)
               Final occupancy bounds   : [  0.0000,  1.0000]
================================================================================

    8        -1.167905730132E+04     1.1771E-08     1.0647E-08    -5.1223E-09

Reusing previously generated solute cavity.
MG BCs: +ve charge blocks (gridpoints):     28618 (   18890331).
MG BCs: -ve charge blocks (gridpoints):      8401 (    1050675).
MG BCs:     Elided blocks (gridpoints):    165296 (  171029619).
MG BCs: Computational effort saved:  99.9806%.
MG BCs: Charge after coarse-graining:           -9.0009336.
MG DL_MG: Calling solver with defect correction order = 8
MG DL_MG: Solver finished
MG Hartree energy from (\int phi*rho dr):              1208.067670
MG Hartree energy from (\int eps (grad phi)^2 dr):     1207.880747
MG Discrepancy due to finite box and discretization:     -0.186923 (  -0.01547%)
MG Correction to account for finite box:                  0.006457
MG Remaining discrepancy, due to discretization:         -0.180466 (  -0.01494%)
      ideal mu1:      -0.481424262463
             Q0:  -11679.057301325374
             G0:      -0.000000002937
   RMS gradient:       0.000000007366

Reusing previously generated solute cavity.
MG BCs: +ve charge blocks (gridpoints):     28618 (   18890331).
MG BCs: -ve charge blocks (gridpoints):      8401 (    1050674).
MG BCs:     Elided blocks (gridpoints):    165296 (  171029620).
MG BCs: Computational effort saved:  99.9806%.
MG BCs: Charge after coarse-graining:           -9.0009336.
MG DL_MG: Calling solver with defect correction order = 8
MG DL_MG: Solver finished
MG Hartree energy from (\int phi*rho dr):              1208.067670
MG Hartree energy from (\int eps (grad phi)^2 dr):     1207.880746
MG Discrepancy due to finite box and discretization:     -0.186923 (  -0.01547%)
MG Correction to account for finite box:                  0.006457
MG Remaining discrepancy, due to discretization:         -0.180466 (  -0.01494%)
     Trial step:       0.735503651799
             Q1:  -11679.057301325491
 Quadratic coef:       0.000000002045
 Linear coef   :      -0.000000002160
           Qmin:  -11679.057301325945
Quadratic minimum step length (  0.388558946063) accepted
    Initial Ne1:    7192.00000000
      Final Ne1:    7192.00000000

=================== Penalty functional idempotency correction ==================
 RMS occupancy error at iteration   1:  0.000000 (step -0.5000 Ne1=   7192.0000)
            Final RMS occupancy error   :  0.000000 (Ne1=   7192.0000)
               Final occupancy bounds   : [ -0.0000,  1.0000]
================================================================================

    9        -1.167905730133E+04     7.3659E-09     6.6623E-09    -2.2119E-09

Reusing previously generated solute cavity.
MG BCs: +ve charge blocks (gridpoints):     28618 (   18890331).
MG BCs: -ve charge blocks (gridpoints):      8401 (    1050674).
MG BCs:     Elided blocks (gridpoints):    165296 (  171029620).
MG BCs: Computational effort saved:  99.9806%.
MG BCs: Charge after coarse-graining:           -9.0009336.
MG DL_MG: Calling solver with defect correction order = 8
MG DL_MG: Solver finished
MG Hartree energy from (\int phi*rho dr):              1208.067670
MG Hartree energy from (\int eps (grad phi)^2 dr):     1207.880746
MG Discrepancy due to finite box and discretization:     -0.186923 (  -0.01547%)
MG Correction to account for finite box:                  0.006457
MG Remaining discrepancy, due to discretization:         -0.180466 (  -0.01494%)
      ideal mu1:      -0.481424266457
   10        -1.167905730133E+04     4.5707E-09     4.1341E-09    -3.4925E-10
Finished density kernel iterations (  10)

Writing density kernel to file "host_36201.dkn" ... done


>>> Density kernel optimised for the current NGWF basis:
     ~~~~~~~~~~~~~~~~~~~~~~~~~~~~~~~~~~~~~~~~~~~~~~~~~~~~~~~~~~~
     Total energy                =  -1.16790573013257E+04  Eh
     Estimated bandgap           =   7.8819E-02  Eh
     RMS occupancy error         =   3.6009E-16
     [H,K] commutator            =   4.1341E-09
     Occupancy bounds            = [  0.000:  1.000]
     ~~~~~~~~~~~~~~~~~~~~~~~~~~~~~~~~~~~~~~~~~~~~~~~~~~~~~~~~~~~




################################################################################
########################### NGWF CG iteration  004 #############################
################################################################################
****** Reciprocal space K.E. preconditioning with k_zero =  3.5000 a0^-1 *******

>>> Checking for convergence of NGWFs: 
           ........................................................
           |         *** NGWF optimisation converged ***          |
           | RMS NGWF gradient =    0.00000194770714              |
           | Criteria satisfied:                                  |
           | -> RMS NGWF gradient lower than set threshold.       |
           ========================================================

Reusing previously generated solute cavity.
MG BCs: +ve charge blocks (gridpoints):     28618 (   18890331).
MG BCs: -ve charge blocks (gridpoints):      8401 (    1050674).
MG BCs:     Elided blocks (gridpoints):    165296 (  171029620).
MG BCs: Computational effort saved:  99.9806%.
MG BCs: Charge after coarse-graining:           -9.0009336.
MG DL_MG: Calling solver with defect correction order = 8
MG DL_MG: Solver finished
MG Hartree energy from (\int phi*rho dr):              1208.067670
MG Hartree energy from (\int eps (grad phi)^2 dr):     1207.880746
MG Discrepancy due to finite box and discretization:     -0.186923 (  -0.01547%)
MG Correction to account for finite box:                  0.006457
MG Remaining discrepancy, due to discretization:         -0.180466 (  -0.01494%)

================================================================================
           ---------------- ENERGY COMPONENTS (Eh) ----------------
           | Kinetic                    :     8532.76464430896522 |
           | Pseudo. (local,OBC,corr'd) :    -5052.98837620779159 |
           | Pseudopotential (non-local):     1403.04546995246506 |
           | Hartree (molecular)        :     1208.06766983773673 |
           | Exchange-correlation       :    -3358.26753620807131 |
           | Ion-ion (open BC)          :   833813.81839936075266 |
           | Dispersion Correction      :       -3.28849683272337 |
           | Smeared ion non-self corr. :  -833765.68667272385210 |
           | Smeared ion self corr.     :   -14457.16956389741972 |
           | Solvent cavitation energy  :        2.30244982370770 |
           | Solute-solvent dis-rep en. :       -1.65528873950906 |
           | Total                      :   -11679.05730132564531 |
           --------------------------------------------------------
           ------ LOCAL ENERGY COMPONENTS FROM MATRIX TRACES ------
           | Pseudopotential (local)    :    -5052.98837620780068 |
           | Hartree                    :    -1991.51677447119528 |
           --------------------------------------------------------
           Integrated density           :     7191.99999999837746
           Integrated density tr(KS)    :     7192.00000000000000
================================================================================


                        <<<<< CALCULATION SUMMARY >>>>>                         
|ITER|    RMS GRADIENT   |     TOTAL ENERGY    |   step   |     Epredicted              
   0     0.00003931878884 -11678.99705942498986   0.615164 -11679.04898974170828        
   1     0.00001005961549 -11679.05669436976314   0.091278 -11679.05719875131217        
   2     0.00000439674972 -11679.05728151206858   0.016359 -11679.05729878036436        
   3     0.00000194770714 -11679.05730132572353  <-- CG                                 

=================== Finished the calculation in solvent ========================
= Adjusting the following parameters: 
= read_denskern: F
= read_tightbox_ngwfs: F
= maxit_pen: 0 (restored to user-specified value)
= restart read filename prefix: ""
= restart write filename prefix: ""
================================================================================

================================================================================
IS: Calculation in solvent completed (NGWFs converged).      

Individual components of total energy in solvent:     hartree           kcal/mol
- Usual non-electrostatic DFT terms:    -12887.77213224766092    -8087198.937099
- Electrostatic fixed charge energy:      1208.06766983773673      758073.891686
- Apolar cavitation energy:                  2.30244982370770        1444.809047
- Apolar dispersion-repulsion energy:       -1.65528873950906       -1038.709344
 -------------------------------------------------------------------------------
- Total energy in solvent:              -11679.05730132572353    -7328718.945710

Components of total energy in solvent:                hartree           kcal/mol
- Usual non-electrostatic DFT terms:    -12887.77213224766092    -8087198.937099
- Electrostatic energy:                   1208.06766983773673      758073.891686
- Apolar energy terms:                       0.64716108419864         406.099703
 -------------------------------------------------------------------------------
- Total energy in solvent:              -11679.05730132572353    -7328718.945710

Calculation of free energy of solvation:              hartree           kcal/mol
- Total energy in solvent:         (+)  -11679.05730132572353    -7328718.945710
- Total energy in vacuum:          (-)  -11675.24686172744259    -7326327.858814
 -------------------------------------------------------------------------------
- Total free energy of solvation:           -3.81043959828094       -2391.086896

Components of polar term in f.e. of solvation:        hartree           kcal/mol
- Electrostatic:                            -4.67275399100504       -2932.197336
- Change in nonelectrostatic DFT terms:      0.21515330852344         135.010737
 -------------------------------------------------------------------------------
- Polar term in f.e. of solvation:          -4.45760068248160       -2797.186599

Components of free energy of solvation:               hartree           kcal/mol
- Polar term in f.e. of solvation: (+)      -4.45760068248160       -2797.186599
- Apolar (cavitation, dis., rep.): (+)       0.64716108419864         406.099703
 -------------------------------------------------------------------------------
- Total free energy of solvation:           -3.81043959828295       -2391.086896
================================================================================


------------------------------ TIMING INFORMATION ------------------------------
AVERAGE TIME:   30427.982s on     40 node(s)                                    
TOTAL TIME:     30427.982s on     40 node(s)                                    
================= AVERAGE TIMINGS FROM ALL NODES (CUMULATIVE) ==================
|| TAG                                    #calls    cpu time   %total  Gflops ||
|| work_imbalance                       :     1        0.00s   0.000%  ------ ||
|| parallel_prepare_fd_halos_request    :  2187        0.02s   0.000%  ------ ||
|| sparse_set_to_garbage                :   200        0.05s   0.000%  ------ ||
|| parallel_prepare_fd_halos_satisfy    :  2187        0.07s   0.000%  ------ ||
|| ngwfs_initialise_from_radial         :     1        0.17s   0.001%  ------ ||
|| parallel_prepare_fd_halos_alloc      :  2187        0.21s   0.001%  ------ ||
|| basis_extract_function_from_box      :  6017        0.24s   0.001%  ------ ||
|| restart_ngwfs_tightbox_input         :     1        0.93s   0.003%  ------ ||
|| pseudopotentials_nonlocal_mat        :    34        1.30s   0.004%  ------ ||
|| parallel_prepare_fd_halos_comms_imbal:  2187        3.54s   0.012%  ------ ||
|| density_init_guess_real              :     1        3.89s   0.013%  ------ ||
|| openbc_locps_radial                  :     1        4.37s   0.014%  ------ ||
|| restart_kernel_read                  :     1        5.15s   0.017%  ------ ||
|| parallel_prepare_fd_halos_clear      :  2187       15.99s   0.053%  ------ ||
|| restart_kernel_write                 :    19       17.74s   0.058%  ------ ||
|| sparse_init                          :     2       22.56s   0.074%  ------ ||
|| projectors_func_ovlp_box             :    34       27.19s   0.089%  ------ ||
|| parallel_prepare_fd_halos_comms_wait :  2187       27.42s   0.090%  ------ ||
|| function_ops_brappd_ketppd           :    34       30.83s   0.101%  ------ ||
|| projectors_init_fftbox_recip         :   232       31.75s   0.104%  ------ ||
|| palser_mano_kernel_optimise          :     1       41.78s   0.137%  ------ ||
|| parallel_prepare_fd_halos            :  2187       47.27s   0.155%  ------ ||
|| pseudo_make_structure_factor         :     2       55.28s   0.182%  ------ ||
|| fourier_apply_box_pair               :  8629       62.75s   0.206% 565.362 ||
|| basis_copy_function_to_box           : 97900       66.05s   0.217%  ------ ||
|| ngwf_gradient_coeffs                 :    18       71.81s   0.236%  ------ ||
|| restart_ngwfs_tightbox_output        :    16       92.01s   0.302%  ------ ||
|| sparse_embed_hotelling_invert_embed  :    34      106.60s   0.350%  ------ ||
|| finite_difference_derivative         :  2187      121.37s   0.399%  ------ ||
|| integrals_kinetic                    :    34      190.83s   0.627%  ------ ||
|| openbc_locps_on_grid                 :     2      195.96s   0.644%  ------ ||
|| fourier_apply_cell_backward          :  1459      242.00s   0.795%  80.962 ||
|| projectors_gradient_batch            :   198      252.43s   0.830%  ------ ||
|| fourier_apply_cell_forward           :  1457      264.53s   0.869%  73.967 ||
|| basis_dot_function_with_box          : 14.97M     299.07s   0.983%  ------ ||
|| sparse_trace                         :  6060      299.65s   0.985%  ------ ||
|| kernel_purify                        :   557      394.68s   1.297%  ------ ||
|| hamiltonian_energy_components        :     4      433.16s   1.424%  ------ ||
|| xc_energy_potential                  :   364      589.92s   1.939%  ------ ||
|| basis_add_function_to_box            : 31.34M     616.10s   2.025%  ------ ||
|| lnv_gradient_norm                    :   180      645.95s   2.123%  ------ ||
|| kernel_fix                           :   180      755.51s   2.483%  ------ ||
|| ngwf_gradient_build_batch            :   198      917.46s   3.015%  ------ ||
|| integrals_locpot_mat_els_batch       :  2079     1024.25s   3.366%  ------ ||
|| cell_grid_deposit_box_real           : 61420     1053.33s   3.462%  ------ ||
|| cell_grid_extract_box_real           : 56862     1115.72s   3.667%  ------ ||
|| ngwf_gradient_batch                  :   198     1252.88s   4.118%  ------ ||
|| density_batch_row_sums               :  3993     1409.61s   4.633%  ------ ||
|| ngwf_gradient_lnv                    :    18     1439.39s   4.730%  ------ ||
|| density_fftbox_deposit_to_cell       : 59169     1813.85s   5.961%  ------ ||
|| sparse_product                       :  7537     2471.43s   8.122%  ------ ||
|| multigrid_prepare_bound_cond         :   364     2788.18s   9.163%  ------ ||
|| potential_apply_to_ngwf_batch        :  2079     3857.79s  12.678%  ------ ||
|| density_fftbox_interpolate_multiply  : 59169     4371.69s  14.367%  ------ ||
|| fourier_apply_box                    : 204.2k    4397.40s  14.452% 924.939 ||
|| integrals_locpot_dbl_grid            :   189     4909.10s  16.134%  ------ ||
|| density_batch_interp_deposit         :  3993     6982.14s  22.946%  ------ ||
|| dl_mg_solver_calls                   :   364     7341.69s  24.128%  ------ ||
|| density_on_dbl_grid                  :   363     8866.14s  29.138%  ------ ||
|| multigrid_calculate_hartree          :   364    10301.06s  33.854%  ------ ||
|| hamiltonian_lhxc_calculate           :   359    19793.95s  65.052%  ------ ||
|| lnv_denskernel_optimise_cg           :    18    26269.50s  86.333%  ------ ||
|| ngwf_cg_optimise                     :     2    29628.79s  97.373%  ------ ||
|| total_time                           :     1    30427.98s 100.000%  ------ ||
================================================================================
Overhead of generating timer report: 
- 0 ms averaging over threads,
- 5 ms ensuring consistency across MPI ranks,
- 2 ms printing in order.

Job completed: 16-01-2020 18:58 (-0000)

