 +---------------------------------------------------------------+
 |                                                               |
 |        ####### #     # ####### ####### ####### ######         |
 |        #     # ##    # #          #    #       #     #        |
 |        #     # # #   # #          #    #       #     #        |
 |        #     # #  #  # #####      #    #####   ######         |
 |        #     # #   # # #          #    #       #              |
 |        #     # #    ## #          #    #       #              |
 |        ####### #     # #######    #    ####### #              |
 |                                                               |
 |        Linear-Scaling Ab Initio Total Energy Program          |
 |                                                               |
 |          Release for academic collaborators of ODG            |
 |                                             Version 5.3.2.6.  |
 |                                                               |
 +---------------------------------------------------------------+
 |                                                               |
 |  Authors:                                                     |
 |  Jacek Dziedzic, Peter D. Haynes, Nicholas D. M. Hine,        |
 |  Arash. A. Mostofi, Mike C. Payne and Chris-Kriton Skylaris   |
 |                                                               |
 |  Contributors:                                                |
 |  J. Aarons, L. Andrinopoulos, P. W. Avraam, R. A. Bell,       |
 |  A. Bhandari, G. A. Bramley, R. J. Charlton, S. J. Clark,     |
 |  R. J. Clements, G. C. Constantinescu, F. Corsetti,           |
 |  N. Corsini, O. Dieguez, S. M. M. Dubois, K. K. B. Duff,      |
 |  J. M. Escartin, A. Greco, H. Helal, Q. O. Hill, L. P. Lee,   |
 |  J.-H. Li, E. B. Linscott, G. Moynihan, D. D. O`Regan,        |
 |  O. K. Okan, M. J. S. Phipps, C. J. Pickard,                  |
 |  J. C. A. Prentice, M. I. J. Probert, L. E. Ratcliff,         |
 |  M. Robinson, A. Ruiz Serrano, J. S. Spencer, E. W. Tait,     |
 |  G. Teobaldi, D. Turban, V. Vitale, K. A. Wilkinson,          |
 |  C. Weber, J. C. Womack, N. Yeung and T. J. Zuehlsdorff       |
 |                                                               |
 |                                   Copyright (c) 2004-2019     |
 |                                                               |
 |  Please cite:                                                 |
 |  "Introducing ONETEP: Linear-scaling density functional       |
 |   simulations on parallel computers".                         |
 |   C.-K. Skylaris, P. D. Haynes, A. A. Mostofi, M. C. Payne.   |
 |   J. Chem. Phys. 122 084119 (2005).                           |
 |                                                               |
 |          in all publications arising from your use of ONETEP. |
 |                                                               |
 +---------------------------------------------------------------+
 |                                                               |
 |   ONETEP is based on developments described in the following  |
 |   publications:                                               |
 |                                                               |
 |  "Nonorthogonal generalized Wannier function pseudopotential  |
 |   plane-wave method".                                         |
 |   C.-K. Skylaris, A. A. Mostofi, P. D. Haynes, O. Dieguez,    |
 |   M. C. Payne.                                                |
 |   Phys. Rev. B 66 035119 (2002).                              |
 |                                                               |
 |  "Preconditioned iterative minimization for linear-scaling    |
 |   electronic structure calculations".                         |
 |   A. A. Mostofi, P. D. Haynes, C.-K. Skylaris, M. C. Payne.   |
 |   J. Chem. Phys. 119(17), pp.8842-8848 (2003).                |
 |                                                               |
 |  "Total-energy calculations on a real space grid with         |
 |   localized functions and a plane-wave basis".                |
 |   A. A. Mostofi, C.-K. Skylaris, P. D. Haynes, M. C. Payne.   |
 |   Comput. Phys. Commun. 147, pp.788-802 (2002).               |
 |                                                               |
 |  "Accurate kinetic energy evaluation in electronic structure  |
 |   calculations with localized functions on real space grids"  |
 |   C.-K. Skylaris, A. A. Mostofi, P. D. Haynes, C. J. Pickard, |
 |   M. C. Payne.                                                |
 |   Comput. Phys. Commun. 140, pp.315-322 (2001).               |
 |                                                               |
 |  "Accurate ionic forces and geometry optimization in linear-  |
 |   scaling density-functional theory with local orbitals"      |
 |   N. D. M. Hine, M. Robinson, P. D. Haynes, C.-K. Skylaris,   |
 |   M. C. Payne, and A. A. Mostofi.                             |
 |   Phys. Rev. B 83 195102 (2011).                              |
 |                                                               |
 +---------------------------------------------------------------+

Job started: 09-01-2020 12:53 (-0000)
 
Reading parameters from file "host_9601.dat" ...... done

If your calculation crashes here, before "Checking processes and threads..."
is displayed, then your stack size is insufficient.
If so, use "ulimit -s unlimited" at runtime.
You can disable this check with "check_stack_size F".

Checking processes and threads...
   Determining the default number of threads...
      No default threads set at compilation time: defaulting to 1.
      OpenMP library call suggests 4 threads.
      Hybrid MPI-OpenMP compilation detected.
      Number of MPI processes > 1.
      OMP_NUM_THREADS environment variable present and
      its value matches the one obtained from the OpenMP library call.
      Using this value as default.
      Default threads: 4
      Default applies to threads_max and threads_num_fftboxes.
      Settings in the input file override this default.
   ... done

   Running with 60 MPI processes.
   There are 6 MPI processes running on the same node as the root process.
   Each MPI process is using: 
               1 threads for simulation cell FFTs.
               1 threads for parallel FFT box operations.
               4 threads for loops over batched FFT box operations.
               4 threads in other parallel regions.
... done

Basic input checks...... done

Reading geometry and species blocks from file "host_9601.dat" ...
  <species_atomic_set> block not found: NGWF initialisation set to SOLVE
IS: Dielectric excluded regions:
    - NONE.
    
  Number of PPD points along a3 set to 1.  This is 
  the default value, it may have been provided also in the input file.
... done
 Writing xyz coordinates to file "host_9601.xyz" ... done


--------------------------------------------------------------------------------
---------------------------------- INPUT FILE ----------------------------------
--------------------------------------------------------------------------------

cutoff_energy       : 800 eV                                                    
xc_functional VDWDF2                                                            
task SINGLEPOINT                                                                
write_xyz true                                                                  
output_detail VERBOSE                                                           
ngwf_threshold_orig : 0.000002                                                  
kernel_cutoff       : 1000                                                      
k_zero              : 3.5                                                       
elec_cg_max 0                                                                   
occ_mix 1.0                                                                     
dispersion 0                                                                    
maxit_ngwf_cg 40                                                                
minit_lnv 10                                                                    
maxit_lnv 10                                                                    
write_denskern T                                                                
write_tightbox_ngwfs T                                                          
charge 9                                                                        
is_implicit_solvent T                                                           
is_auto_solvation T                                                             
is_include_apolar T                                                             
is_smeared_ion_rep T                                                            
is_solvent_surf_tension 4.7624E-5 Ha/bohr**2                                    
is_apolar_scaling_factor 0.281075                                               
is_solvation_beta 1.3                                                           
is_density_threshold 0.00035                                                    
is_bulk_permittivity 78.54                                                      
is_dielectric_model fix_initial                                                 
is_smeared_ion_width 0.8                                                        
mg_defco_fd_order 8                                                             
is_bc_coarseness 10                                                             
is_bc_surface_coarseness 1                                                      
fine_grid_scale 2.0                                                             
%block species                                                                  
N   N   7 4 8.0                                                                 
H   H   1 1 8.0                                                                 
C   C   6 4 8.0                                                                 
S   S  16 9 8.0                                                                 
O   O   8 4 8.0                                                                 
%endblock species                                                               
%block species_pot                                                              
N   N_00.recpot                                                                 
H   H_04.recpot                                                                 
C   C_01.recpot                                                                 
S   S_00.recpot                                                                 
O   O_02.recpot                                                                 
%endblock species_pot                                                           
%block lattice_cart                                                             
139.898   0.000   0.000                                                         
0.000 144.87   0.000                                                            
0.000   0.000   168.12                                                          
%endblock lattice_cart                                                          
%block positions_abs                                                            
     Hash =  -000005778155892013196314
%endblock positions_abs                                                         

--------------------------------------------------------------------------------
-------------------------------- END INPUT FILE --------------------------------
--------------------------------------------------------------------------------


 
 ESDF WARNING(1): "kernelcutoff" (esdf_physical) has no units. Assume "bohr".
 ESDF WARNING(2): "kzero" (esdf_physical) has no units. Assume "1/bohr".
 ESDF WARNING(3
 ): "issmearedionwidth" (esdf_physical) has no units. Assume "bohr".
<<<<<<<<<<<<<<<<<<<<<<<<<<<<<<<<< Full system >>>>>>>>>>>>>>>>>>>>>>>>>>>>>>>>>>
<<<<<<<<<<<<<<<<<<<<<<<<< Pseudopotential information >>>>>>>>>>>>>>>>>>>>>>>>>>
File: N_00.recpot [ 2001 points up to Gmax=  52.9 (1/bohr)]
  Atomic number:  7;  ionic charge:  5.000000
    Shell 1: l = 0; rc = 1.48 bohr
File: H_04.recpot [ 2001 points up to Gmax=  52.9 (1/bohr)]
  Atomic number:  1;  ionic charge:  1.000000
    Local potential
File: C_01.recpot [ 2001 points up to Gmax=  52.9 (1/bohr)]
  Atomic number:  6;  ionic charge:  4.000000
    Shell 1: l = 0; rc = 1.48 bohr
File: S_00.recpot [ 2001 points up to Gmax=  52.9 (1/bohr)]
  Atomic number: 16;  ionic charge:  6.000000
    Shell 1: l = 0; rc = 1.90 bohr
    Shell 2: l = 2; rc = 1.84 bohr
File: O_02.recpot [ 2001 points up to Gmax=  52.9 (1/bohr)]
  Atomic number:  8;  ionic charge:  6.000000
    Shell 1: l = 0; rc = 1.31 bohr
<<<<<<<<<<<<<<<<<<<<<<<<<<<<<<<<<<<<<<<<>>>>>>>>>>>>>>>>>>>>>>>>>>>>>>>>>>>>>>>>

-------------------------- Atom counting information ---------------------------
Symbol    Natoms    Nngwfs    Nprojs
  N        236       944       236
  H       1311      1311         0
  C        810      3240       810
  S          6        54        36
  O        239       956       239
.......   ......    ......    ......
Totals:   2602      6505      1321
--------------------------------------------------------------------------------

=============================== PSINC grid sizes ===============================
                      Simulation cell:  275 x 286 x 336
                              FFT-box:   99 x  99 x  99
                                  PPD:    5 x  11 x   1
Grid space d1=  0.508720000000a0 (KE cutoff=  29.35259Eh = 798.72452eV)
Grid space d2=  0.506538461538a0 (KE cutoff=  29.60596Eh = 805.61916eV)
Grid space d3=  0.500357142857a0 (KE cutoff=  30.34197Eh = 825.64705eV)
================================================================================

********************* Fourier parallelisation information **********************
       Coarse grid (whole simulation cell) dimensions:    275   286   336
          Real-space ('12') slabs/node (min max mean):      5     6     5
         Recip-space ('23') slabs/node (min max mean):      2     3     2
********************************************************************************

********************* Fourier parallelisation information **********************
       Double grid (whole simulation cell) dimensions:    550   572   672
          Real-space ('12') slabs/node (min max mean):     11    12    11
         Recip-space ('23') slabs/node (min max mean):      4     5     4
********************************************************************************
ONETEP fine grid is 550 x 572 x 672 gridpoints, 139.8980 x 144.8700 x 168.1200 bohr.
FD multigrid is     545 x 569 x 665 gridpoints, 138.6262 x 144.1102 x 166.3688 bohr.


Calculating local pseudopotential in open BC on a radial grid ...
Discrepancy between calculated realspace psloc and -Z/x on [5a0,262.342a0]:
max |rel. diff| # avg |rel. diff| #  avg rel. diff #  f # pseudopotential file
 0.000258413739    0.000003708905   0.000000070960   56  'N_00.recpot'
 0.000398954828    0.000016185045  -0.000000074508   56  'H_04.recpot'
 0.000375346405    0.000017198923   0.000000144535   56  'C_01.recpot'
 0.000466850533    0.000020125278   0.000000461745   56  'S_00.recpot'
 0.000671508953    0.000026045986   0.000000155458   56  'O_02.recpot'
... done

Atom SCF Calculation for N  : Z (AE atom) =   7 : Z (PS atom) =   5
Config String:
Orbitals (num,occ):  2     2.00 3.00
Orbitals   (num,l):  2        0    1
Real-space Grid (nr,dr,rmax): 1203    0.0066555740    8.0000000000
Spherical Bessel Basis (nsws,lmax,cutoff):   47    1  176.3951722778
Confining potential (l,width,scale):  0    3.0000000000  100.0000000000
Confining potential (l,width,scale):  1    3.0000000000  100.0000000000
  1         -4.7079019521   -3.5574928224    7.0523828109   -2.0482347056
  2         -9.8428718884   -2.1467112694    8.3359262158   -2.4053810549
  3         -9.8252779743   -2.2055410638    8.2743979728   -2.3971936592
  4         -9.8359653164   -2.2226205548    8.2565725591   -2.3965386977
  5         -9.8379165295   -2.2279491405    8.2509941480   -2.3965411870
  6         -9.8386557082   -2.2305926627    8.2482244739   -2.3966348373
  7         -9.8388231125   -2.2319170445    8.2468359101   -2.3967260145
  8         -9.8387841181   -2.2325808988    8.2461395035   -2.3967954627
  9         -9.8386940405   -2.2329130810    8.2457908702   -2.3968435225
 10         -9.8386259031   -2.2330457104    8.2456516117   -2.3968687929
 11         -9.8385705213   -2.2331250025    8.2455683228   -2.3968867372
 12         -9.8385278043   -2.2331723287    8.2455185881   -2.3968993330
 13         -9.8384959753   -2.2332005201    8.2454889458   -2.3969080959
 14         -9.8384728295   -2.2332172751    8.2454713169   -2.3969141489
 15         -9.8384562975   -2.2332272072    8.2454608582   -2.3969183056
 16         -9.8384446504   -2.2332330773    8.2454546708   -2.3969211461
 17         -9.8384365328   -2.2332365347    8.2454510220   -2.3969230792
 18         -9.8384309239   -2.2332385630    8.2454488781   -2.3969243901
 19         -9.8384270756   -2.2332397474    8.2454476239   -2.3969252764
 20         -9.8384244508   -2.2332404351    8.2454468939   -2.3969258740
 21         -9.8384226692   -2.2332408319    8.2454464715   -2.3969262760
 22         -9.8384214650   -2.2332410590    8.2454462289   -2.3969265459
 23         -9.8384206539   -2.2332411877    8.2454460907   -2.3969267268
 24         -9.8384201092   -2.2332412597    8.2454460129   -2.3969268479
 25         -9.8384197444   -2.2332412994    8.2454459697   -2.3969269288
 26         -9.8384195006   -2.2332413208    8.2454459461   -2.3969269827
 27         -9.8384193381   -2.2332413320    8.2454459335   -2.3969270187
 28         -9.8384192299   -2.2332413376    8.2454459271   -2.3969270427
 29         -9.8384191579   -2.2332413403    8.2454459239   -2.3969270586
Atom SCF converged after  29 iterations to a total energy of     -9.83841916

Atom SCF Calculation for H  : Z (AE atom) =   1 : Z (PS atom) =   1
Config String:
Orbitals (num,occ):  1     1.00
Orbitals   (num,l):  1        0
Real-space Grid (nr,dr,rmax): 1203    0.0066555740    8.0000000000
Spherical Bessel Basis (nsws,lmax,cutoff):   47    0  176.3951722778
Confining potential (l,width,scale):  0    3.0000000000  100.0000000000
  1         -0.3196928150   -0.2712213547    0.2820953124   -0.2686644323
  2         -0.4125023165   -0.2679078648    0.2933033094   -0.2831467263
  3         -0.4658162556   -0.2637769952    0.2989941314   -0.2911889462
  4         -0.4833641499   -0.2630948245    0.3001245183   -0.2934676984
  5         -0.4890604565   -0.2631484664    0.3001713564   -0.2940409486
  6         -0.4909759121   -0.2632624395    0.3000731224   -0.2941733353
  7         -0.4916477023   -0.2633336749    0.3000012178   -0.2941997477
  8         -0.4918926638   -0.2633693436    0.2999633204   -0.2942031079
  9         -0.4919849224   -0.2633856638    0.2999455487   -0.2942024911
 10         -0.4920205544   -0.2633927981    0.2999376692   -0.2942017065
 11         -0.4920345765   -0.2633958380    0.2999342807   -0.2942012432
 12         -0.4920401699   -0.2633971139    0.2999328492   -0.2942010157
 13         -0.4920424230   -0.2633976444    0.2999322508   -0.2942009125
 14         -0.4920433369   -0.2633978638    0.2999320022   -0.2942008676
 15         -0.4920437095   -0.2633979542    0.2999318994   -0.2942008486
 16         -0.4920438620   -0.2633979914    0.2999318570   -0.2942008406
 17         -0.4920439246   -0.2633980067    0.2999318395   -0.2942008373
Atom SCF converged after  17 iterations to a total energy of     -0.49204392

Atom SCF Calculation for C  : Z (AE atom) =   6 : Z (PS atom) =   4
Config String:
Orbitals (num,occ):  2     2.00 2.00
Orbitals   (num,l):  2        0    1
Real-space Grid (nr,dr,rmax): 1203    0.0066555740    8.0000000000
Spherical Bessel Basis (nsws,lmax,cutoff):   47    1  176.3951722778
Confining potential (l,width,scale):  0    3.0000000000  100.0000000000
Confining potential (l,width,scale):  1    3.0000000000  100.0000000000
  1         -5.2854545031   -1.3987767619    4.5135249990   -1.5425370891
  2         -5.4732105360   -1.4117233846    4.5025048068   -1.5449377627
  3         -5.4887430940   -1.4344980494    4.4781520625   -1.5419414089
  4         -5.5000500632   -1.4417741887    4.4702362603   -1.5419889185
  5         -5.5030973258   -1.4447493492    4.4669522293   -1.5421810488
  6         -5.5037905401   -1.4459178603    4.4656505932   -1.5423335368
  7         -5.5038576919   -1.4463687836    4.4651436654   -1.5424271007
  8         -5.5037928952   -1.4465408711    4.4649480791   -1.5424790339
  9         -5.5037253025   -1.4466058500    4.4648732108   -1.5425064520
 10         -5.5036882448   -1.4466252263    4.4648504887   -1.5425176990
 11         -5.5036632257   -1.4466347787    4.4648391266   -1.5425244795
 12         -5.5036469022   -1.4466394505    4.4648334731   -1.5425285420
 13         -5.5036365050   -1.4466417118    4.4648306778   -1.5425309644
 14         -5.5036299978   -1.4466427917    4.4648293063   -1.5425324032
 15         -5.5036259788   -1.4466432984    4.4648286398   -1.5425332551
 16         -5.5036235221   -1.4466435306    4.4648283199   -1.5425337581
 17         -5.5036220324   -1.4466436333    4.4648281687   -1.5425340544
 18         -5.5036211352   -1.4466436765    4.4648280988   -1.5425342287
 19         -5.5036205976   -1.4466436930    4.4648280674   -1.5425343309
 20         -5.5036202770   -1.4466436981    4.4648280539   -1.5425343909
 21         -5.5036200865   -1.4466436989    4.4648280486   -1.5425344260
 22         -5.5036199736   -1.4466436981    4.4648280467   -1.5425344465
 23         -5.5036199069   -1.4466436971    4.4648280463   -1.5425344585
Atom SCF converged after  23 iterations to a total energy of     -5.50361991

Atom SCF Calculation for S  : Z (AE atom) =  16 : Z (PS atom) =   6
Config String:
Orbitals (num,occ):  3     2.00 4.00 0.00
Orbitals   (num,l):  3        0    1    2
Real-space Grid (nr,dr,rmax): 1203    0.0066555740    8.0000000000
Spherical Bessel Basis (nsws,lmax,cutoff):   47    2  176.3951722778
Confining potential (l,width,scale):  0    3.0000000000  100.0000000000
Confining potential (l,width,scale):  1    3.0000000000  100.0000000000
Confining potential (l,width,scale):  2    3.0000000000  100.0000000000
  1        -12.6061550139   -1.1283286266   10.1554312477   -2.5834895720
  2        -10.0061098060   -2.5813945034    8.2961874019   -2.1512763614
  3        -10.2874004236   -2.3814618179    8.5118107752   -2.2144428904
  4        -10.2854184046   -2.3701131013    8.5251369800   -2.2222149904
  5        -10.2874477477   -2.3627181431    8.5336510539   -2.2269589460
  6        -10.2886148587   -2.3595434606    8.5372764026   -2.2290651593
  7        -10.2893841192   -2.3575868816    8.5394980037   -2.2304120525
  8        -10.2898768216   -2.3563842539    8.5408563953   -2.2312721758
  9        -10.2901921727   -2.3556429760    8.5416895913   -2.2318223766
 10        -10.2903962248   -2.3551836374    8.5422034712   -2.2321753954
 11        -10.2905301313   -2.3548972436    8.5425224042   -2.2324026929
 12        -10.2906191635   -2.3547175677    8.5427215832   -2.2325495643
 13        -10.2906789840   -2.3546041780    8.5428467046   -2.2326447952
 14        -10.2907194880   -2.3545322285    8.5429257293   -2.2327067455
 15        -10.2907470588   -2.3544863432    8.5429758881   -2.2327471718
 16        -10.2907658916   -2.3544569427    8.5430078715   -2.2327736307
 17        -10.2907787839   -2.3544380216    8.5430283536   -2.2327909972
 18        -10.2907876213   -2.3544257938    8.5430415239   -2.2328024268
 19        -10.2907936837   -2.3544178600    8.5430500257   -2.2328099689
 20        -10.2907978442   -2.3544126927    8.5430555347   -2.2328149583
 21        -10.2908007000   -2.3544093146    8.5430591176   -2.2328182670
 22        -10.2908026604   -2.3544070985    8.5430614560   -2.2328204664
 23        -10.2908040061   -2.3544056396    8.5430629876   -2.2328219316
 24        -10.2908049300   -2.3544046760    8.5430639941   -2.2328229099
 25        -10.2908055641   -2.3544040375    8.5430646577   -2.2328235644
 26        -10.2908059995   -2.3544036132    8.5430650966   -2.2328240032
 27        -10.2908062983   -2.3544033304    8.5430653877   -2.2328242979
 28        -10.2908065035   -2.3544031414    8.5430655814   -2.2328244962
 29        -10.2908066444   -2.3544030148    8.5430657107   -2.2328246298
 30        -10.2908067411   -2.3544029297    8.5430657972   -2.2328247201
Atom SCF converged after  30 iterations to a total energy of    -10.29080674

Atom SCF Calculation for O  : Z (AE atom) =   8 : Z (PS atom) =   6
Config String:
Orbitals (num,occ):  2     2.00 4.00
Orbitals   (num,l):  2        0    1
Real-space Grid (nr,dr,rmax): 1203    0.0066555740    8.0000000000
Spherical Bessel Basis (nsws,lmax,cutoff):   47    1  176.3951722778
Confining potential (l,width,scale):  0    3.0000000000  100.0000000000
Confining potential (l,width,scale):  1    3.0000000000  100.0000000000
  1         -1.9377724827   -7.7366145686   10.1554312477   -2.5834895720
  2        -16.0512088359   -3.2795770695   13.6626241136   -3.4442211086
  3        -16.2095765627   -3.1829883343   13.7692228055   -3.4749516337
  4        -16.0461830861   -3.2115882805   13.7398221370   -3.4715681375
  5        -16.0409154446   -3.2062636559   13.7460419884   -3.4747180070
  6        -16.0265386951   -3.2083507174   13.7439695182   -3.4748504877
  7        -16.0217471139   -3.2086948819   13.7436875565   -3.4751274570
  8        -16.0192075670   -3.2089027196   13.7435105621   -3.4752754782
  9        -16.0178788008   -3.2090199116   13.7434090947   -3.4753559736
 10        -16.0171822743   -3.2090854362   13.7433516066   -3.4753997534
 11        -16.0168166285   -3.2091217847   13.7433193754   -3.4754235934
 12        -16.0166244016   -3.2091418169   13.7433014567   -3.4754365943
 13        -16.0165231997   -3.2091527957   13.7432915646   -3.4754436950
 14        -16.0164698449   -3.2091587840   13.7432861359   -3.4754475790
 15        -16.0164416769   -3.2091620366   13.7432831720   -3.4754497064
 16        -16.0164267861   -3.2091637966   13.7432815609   -3.4754508731
 17        -16.0164189038   -3.2091647459   13.7432806887   -3.4754515138
 18        -16.0164147261   -3.2091652563   13.7432802181   -3.4754518659
 19        -16.0164125091   -3.2091655300   13.7432799651   -3.4754520596
 20        -16.0164113312   -3.2091656763   13.7432798294   -3.4754521663
 21        -16.0164107046   -3.2091657545   13.7432797568   -3.4754522251
 22        -16.0164103710   -3.2091657960   13.7432797181   -3.4754522575
 23        -16.0164101931   -3.2091658181   13.7432796975   -3.4754522754
 24        -16.0164100982   -3.2091658298   13.7432796866   -3.4754522853
Atom SCF converged after  24 iterations to a total energy of    -16.01641010

========================== Calculation in vacuum ==============================
= Adjusting the following parameters: 
= is_implicit_solvent: F
= is_include_apolar: F
= write_denskern: T
= write_tightbox_ngwfs: T
= restart read filename prefix: ""
= restart write filename prefix: "vacuum_"
===============================================================================

Determining parallel strategy ...
... using space-filling curve
... NGWF load balancing: max    109;  min    108;  average    108
... Projector load balancing: max     25;  min     21;  average     22
... done
Calculating direct Ion-Ion energy ...
Ion-Ion Energy        :    818285.99712670361623
Basis initialisation ...... NGWF spheres initialised
... Projector spheres initialised
... NGWF tight boxes initialised
... Tight-boxes gathered
... NGWF basis size (local,global):    1026524  62115331
... Nonlocal pseudopotential projector initialisation
... done

========================== Sparse matrix information ===========================
                        Overlap matrix filling:   6.62%
                        Density kernel filling: 100.00%
              NGWF-Proj overlap matrix filling:   1.76%
                    Hamiltonian matrix filling:   7.48%
                  NGWF diagonal matrix filling:   0.05%
                             KS matrix filling: 100.00% 
                           KSKS matrix filling: 100.00% 
================================================================================

Sparse matrix initialisation ... done

Generating smeared ion density ... done
Smeared ion self correction:     -14457.169564
Smeared ion non-self correction: -818238.027585
NGWF initialisation ...... done
============ Calculation of NGWF S^-1 using Hotelling algorithm ================ 
         Iteration  |  Frobenius norm and Maximum abs value    (of I-S*S_n^-1)   
               1       0.78495350E+02     0.98261939E+00
               2       0.76650225E+02     0.96569354E+00
               3       0.73650300E+02     0.93312350E+00
               4       0.69367620E+02     0.87261293E+00
               5       0.64020165E+02     0.76825347E+00
               6       0.58007756E+02     0.70212120E+00
               7       0.51955439E+02     0.66777746E+00
               8       0.46330396E+02     0.64309963E+00
               9       0.40134059E+02     0.60229313E+00
              10       0.31709042E+02     0.53042989E+00
              11       0.21050229E+02     0.41793423E+00
              12       0.10550788E+02     0.27166459E+00
              13       0.33668571E+01     0.12275857E+00
              14       0.49698027E+00     0.28417571E-01
              15       0.20513701E-01     0.21955583E-02
              16       0.85927739E-04     0.14542742E-04
              17       0.29188544E-08     0.66697037E-09
              18       0.83260382E-13     0.46629367E-14
================================================================================
Calculating local pseudopotential in open BC on the fine real space grid ...
... done

MG BCs: +ve charge blocks (gridpoints):     20467 (   16067100).
MG BCs: -ve charge blocks (gridpoints):      7950 (    1074715).
MG BCs:     Elided blocks (gridpoints):    189578 (  189078010).
MG BCs: Computational effort saved:  99.9862%.
MG BCs: Charge after coarse-graining:           -9.0002317.
MG DL_MG: Calling solver with defect correction order = 8
MG DL_MG: Solver finished
MG Hartree energy from (\int phi*rho dr):              1432.539651
MG Hartree energy from (\int eps (grad phi)^2 dr):     1431.921605
MG Discrepancy due to finite box and discretization:     -0.618045 (  -0.04314%)
MG Correction to account for finite box:                  0.455461
MG Remaining discrepancy, due to discretization:         -0.162585 (  -0.01135%)
Up spin density kernel initialisation ... 
======= Optimisation of K by Palser-Manolopoulos canonical purification ======== 
         Iteration  |  Band structure energy |    c_n   
               1       -2597.94854683106860    0.5258769
               2       -2773.50792900985653    0.5168911
               3       -2952.30269278162450    0.5168071
               4       -3099.60873199551315    0.5330108
               5       -3188.01065197444859    0.5731833
               6       -3223.86977880677296    0.6184341
               7       -3236.12366353036668    0.6261028
               8       -3241.70434251880943    0.6243192
               9       -3244.43321291053826    0.6361458
              10       -3245.57388694621295    0.6504002
              11       -3246.03827028391015    0.6555270
              12       -3246.24246436845078    0.6296799
              13       -3246.34629752037927    0.5431454
              14       -3246.40811772637426    0.4073747
              15       -3246.42245603197898    0.3241423
              16       -3246.42421767725273    0.2782565
              17       -3246.42496010643799    0.2686067
              18       -3246.42532761891425    0.2990037
              19       -3246.42568299259847    0.3441530
              20       -3246.42605224227191    0.3987510
              21       -3246.42639809046614    0.4533787
              22       -3246.42666528518384    0.4893881
              23       -3246.42681176769020    0.4994395
              24       -3246.42685289525843    0.4999985
              25       -3246.42685578464079    0.5000002
              26       -3246.42685579798444    0.5000002
Termination criterion satisfied: band energy change below threshold.
Final occupancy bounds: [    0.00000000000012:    0.99999999999999]
Closest occupancy to 0.5:     1.00000000000000
================================================================================
... done

Writing density kernel to file "host_9601.vacuum_dkn" ... done

>>> Optimising kernel for current NGWFs:
   Initial electron number for spin 1:    7192.00000000
     Final electron number for spin 1:    7192.00000000

=================== Penalty functional idempotency correction ==================
 RMS occupancy error at iteration   1:  0.000000 (step -0.5000 Ne1=   7192.0000)
            Final RMS occupancy error   :  0.000000 (Ne1=   7192.0000)
               Final occupancy bounds   : [  0.0000,  1.0000]
================================================================================

................................................................................
<<<<<<<<<<<<<< LNV (Original version) density kernel optimisation >>>>>>>>>>>>>>
~~~~~~~~~~~~~~~~~~~~~~~~~~~~~~~~~~~~~~~~~~~~~~~~~~~~~~~~~~~~~~~~~~~~~~~~~~~~~~~~
   iter  |      energy (Eh)       | rms gradient |  commutator  |   dE (Eh)
MG BCs: +ve charge blocks (gridpoints):     31141 (   17295574).
MG BCs: -ve charge blocks (gridpoints):      8215 (    1098439).
MG BCs:     Elided blocks (gridpoints):    178897 (  187825812).
MG BCs: Computational effort saved:  99.9809%.
MG BCs: Charge after coarse-graining:           -9.0010203.
MG DL_MG: Calling solver with defect correction order = 8
MG DL_MG: Solver finished
MG Hartree energy from (\int phi*rho dr):              1408.014182
MG Hartree energy from (\int eps (grad phi)^2 dr):     1407.345319
MG Discrepancy due to finite box and discretization:     -0.668864 (  -0.04750%)
MG Correction to account for finite box:                  0.464461
MG Remaining discrepancy, due to discretization:         -0.204403 (  -0.01452%)
      ideal mu1:      -0.717889997592
             Q0:  -11620.048952409416
             G0:    -157.190332094752
   RMS gradient:       0.001927372308
MG BCs: +ve charge blocks (gridpoints):     31225 (   17372155).
MG BCs: -ve charge blocks (gridpoints):      8150 (    1085441).
MG BCs:     Elided blocks (gridpoints):    178810 (  187762229).
MG BCs: Computational effort saved:  99.9809%.
MG BCs: Charge after coarse-graining:           -9.0010386.
MG DL_MG: Calling solver with defect correction order = 8
MG DL_MG: Solver finished
MG Hartree energy from (\int phi*rho dr):              1417.669666
MG Hartree energy from (\int eps (grad phi)^2 dr):     1417.018039
MG Discrepancy due to finite box and discretization:     -0.651627 (  -0.04596%)
MG Correction to account for finite box:                  0.464522
MG Remaining discrepancy, due to discretization:         -0.187105 (  -0.01320%)
     Trial step:       0.500000000000
             Q1:  -11632.580111372867
 Quadratic coef:      66.064007083925
 Linear coef   :     -78.595166047376
           Qmin:  -11643.424767768933
Quadratic minimum step length (  0.297420522598) accepted
    Initial Ne1:    7192.00000000
      Final Ne1:    7192.00000000

=================== Penalty functional idempotency correction ==================
 RMS occupancy error at iteration   1:  0.003862 (step -0.4868 Ne1=   7192.0000)
 RMS occupancy error at iteration   2:  0.000032 (step -0.5000 Ne1=   7192.0000)
            Final RMS occupancy error   :  0.000000 (Ne1=   7192.0000)
               Final occupancy bounds   : [  0.0000,  1.0000]
================================================================================

    1        -1.162004895241E+04     1.9274E-03     1.7433E-03
MG BCs: +ve charge blocks (gridpoints):     31181 (   17341367).
MG BCs: -ve charge blocks (gridpoints):      8164 (    1091613).
MG BCs:     Elided blocks (gridpoints):    178855 (  187786845).
MG BCs: Computational effort saved:  99.9809%.
MG BCs: Charge after coarse-graining:           -9.0010317.
MG DL_MG: Calling solver with defect correction order = 8
MG DL_MG: Solver finished
MG Hartree energy from (\int phi*rho dr):              1405.030798
MG Hartree energy from (\int eps (grad phi)^2 dr):     1404.373311
MG Discrepancy due to finite box and discretization:     -0.657488 (  -0.04680%)
MG Correction to account for finite box:                  0.464403
MG Remaining discrepancy, due to discretization:         -0.193084 (  -0.01374%)
      ideal mu1:      -0.755986618322
             Q0:  -11643.954860828468
             G0:     -12.633084812815
   RMS gradient:       0.000541889540
MG BCs: +ve charge blocks (gridpoints):     31220 (   17357980).
MG BCs: -ve charge blocks (gridpoints):      8155 (    1087668).
MG BCs:     Elided blocks (gridpoints):    178817 (  187774177).
MG BCs: Computational effort saved:  99.9809%.
MG BCs: Charge after coarse-graining:           -9.0010352.
MG DL_MG: Calling solver with defect correction order = 8
MG DL_MG: Solver finished
MG Hartree energy from (\int phi*rho dr):              1407.700356
MG Hartree energy from (\int eps (grad phi)^2 dr):     1407.046767
MG Discrepancy due to finite box and discretization:     -0.653589 (  -0.04643%)
MG Correction to account for finite box:                  0.463946
MG Remaining discrepancy, due to discretization:         -0.189643 (  -0.01347%)
     Trial step:       0.385629694525
             Q1:  -11646.998071533861
 Quadratic coef:       1.828481931876
 Linear coef   :      -4.871692637270
           Qmin:  -11647.199818946221
Quadratic minimum step length (  0.513723792064) accepted
    Initial Ne1:    7191.99988218
      Final Ne1:    7192.00000000

=================== Penalty functional idempotency correction ==================
 RMS occupancy error at iteration   1:  0.002086 (step -0.4919 Ne1=   7192.0000)
 RMS occupancy error at iteration   2:  0.000014 (step -0.5001 Ne1=   7192.0000)
            Final RMS occupancy error   :  0.000000 (Ne1=   7192.0000)
               Final occupancy bounds   : [  0.0000,  1.0000]
================================================================================

    2        -1.164395486083E+04     5.4189E-04     4.9013E-04    -2.3906E+01
MG BCs: +ve charge blocks (gridpoints):     31237 (   17363607).
MG BCs: -ve charge blocks (gridpoints):      8148 (    1086350).
MG BCs:     Elided blocks (gridpoints):    178800 (  187769868).
MG BCs: Computational effort saved:  99.9809%.
MG BCs: Charge after coarse-graining:           -9.0010363.
MG DL_MG: Calling solver with defect correction order = 8
MG DL_MG: Solver finished
MG Hartree energy from (\int phi*rho dr):              1408.646221
MG Hartree energy from (\int eps (grad phi)^2 dr):     1407.993830
MG Discrepancy due to finite box and discretization:     -0.652391 (  -0.04631%)
MG Correction to account for finite box:                  0.463811
MG Remaining discrepancy, due to discretization:         -0.188581 (  -0.01339%)
      ideal mu1:      -0.777372615751
             Q0:  -11647.242804931710
             G0:      -2.178024334030
   RMS gradient:       0.000225495796
MG BCs: +ve charge blocks (gridpoints):     31240 (   17364207).
MG BCs: -ve charge blocks (gridpoints):      8146 (    1086636).
MG BCs:     Elided blocks (gridpoints):    178798 (  187768982).
MG BCs: Computational effort saved:  99.9809%.
MG BCs: Charge after coarse-graining:           -9.0010364.
MG DL_MG: Calling solver with defect correction order = 8
MG DL_MG: Solver finished
MG Hartree energy from (\int phi*rho dr):              1408.009034
MG Hartree energy from (\int eps (grad phi)^2 dr):     1407.356873
MG Discrepancy due to finite box and discretization:     -0.652161 (  -0.04632%)
MG Correction to account for finite box:                  0.463630
MG Remaining discrepancy, due to discretization:         -0.188531 (  -0.01339%)
     Trial step:       0.445092292681
             Q1:  -11647.817386711482
 Quadratic coef:       0.394840064575
 Linear coef   :      -0.969421844348
           Qmin:  -11647.837842515668
Quadratic minimum step length (  0.546401226709) accepted
    Initial Ne1:    7191.99991919
      Final Ne1:    7192.00000000

=================== Penalty functional idempotency correction ==================
 RMS occupancy error at iteration   1:  0.000804 (step -0.4962 Ne1=   7192.0000)
 RMS occupancy error at iteration   2:  0.000005 (step -0.5000 Ne1=   7192.0000)
            Final RMS occupancy error   :  0.000000 (Ne1=   7192.0000)
               Final occupancy bounds   : [  0.0000,  1.0000]
================================================================================

    3        -1.164724280493E+04     2.2550E-04     2.0396E-04    -3.2879E+00
MG BCs: +ve charge blocks (gridpoints):     31244 (   17364409).
MG BCs: -ve charge blocks (gridpoints):      8148 (    1086725).
MG BCs:     Elided blocks (gridpoints):    178794 (  187768691).
MG BCs: Computational effort saved:  99.9809%.
MG BCs: Charge after coarse-graining:           -9.0010363.
MG DL_MG: Calling solver with defect correction order = 8
MG DL_MG: Solver finished
MG Hartree energy from (\int phi*rho dr):              1407.871754
MG Hartree energy from (\int eps (grad phi)^2 dr):     1407.219627
MG Discrepancy due to finite box and discretization:     -0.652127 (  -0.04632%)
MG Correction to account for finite box:                  0.463591
MG Remaining discrepancy, due to discretization:         -0.188536 (  -0.01339%)
      ideal mu1:      -0.779705950526
             Q0:  -11647.845247054938
             G0:      -0.673432413911
   RMS gradient:       0.000125246612
MG BCs: +ve charge blocks (gridpoints):     31239 (   17365682).
MG BCs: -ve charge blocks (gridpoints):      8142 (    1086480).
MG BCs:     Elided blocks (gridpoints):    178799 (  187767663).
MG BCs: Computational effort saved:  99.9809%.
MG BCs: Charge after coarse-graining:           -9.0010365.
MG DL_MG: Calling solver with defect correction order = 8
MG DL_MG: Solver finished
MG Hartree energy from (\int phi*rho dr):              1408.804267
MG Hartree energy from (\int eps (grad phi)^2 dr):     1408.152102
MG Discrepancy due to finite box and discretization:     -0.652164 (  -0.04629%)
MG Correction to account for finite box:                  0.463557
MG Remaining discrepancy, due to discretization:         -0.188607 (  -0.01339%)
     Trial step:       0.493152080721
             Q1:  -11648.008070241776
 Quadratic coef:       0.169281409308
 Linear coef   :      -0.332104596145
           Qmin:  -11648.008131838376
Quadratic minimum step length (  0.483745005657) accepted
    Initial Ne1:    7191.99997662
      Final Ne1:    7192.00000000

=================== Penalty functional idempotency correction ==================
 RMS occupancy error at iteration   1:  0.000406 (step -0.4940 Ne1=   7192.0000)
 RMS occupancy error at iteration   2:  0.000005 (step -0.5002 Ne1=   7192.0000)
            Final RMS occupancy error   :  0.000000 (Ne1=   7192.0000)
               Final occupancy bounds   : [  0.0000,  1.0000]
================================================================================

    4        -1.164784524705E+04     1.2525E-04     1.1328E-04    -6.0244E-01
MG BCs: +ve charge blocks (gridpoints):     31239 (   17365671).
MG BCs: -ve charge blocks (gridpoints):      8142 (    1086470).
MG BCs:     Elided blocks (gridpoints):    178799 (  187767684).
MG BCs: Computational effort saved:  99.9809%.
MG BCs: Charge after coarse-graining:           -9.0010365.
MG DL_MG: Calling solver with defect correction order = 8
MG DL_MG: Solver finished
MG Hartree energy from (\int phi*rho dr):              1408.787111
MG Hartree energy from (\int eps (grad phi)^2 dr):     1408.134948
MG Discrepancy due to finite box and discretization:     -0.652163 (  -0.04629%)
MG Correction to account for finite box:                  0.463558
MG Remaining discrepancy, due to discretization:         -0.188605 (  -0.01339%)
      ideal mu1:      -0.780010778893
             Q0:  -11648.009357036324
             G0:      -0.242861507309
   RMS gradient:       0.000075500600
MG BCs: +ve charge blocks (gridpoints):     31240 (   17365945).
MG BCs: -ve charge blocks (gridpoints):      8138 (    1086274).
MG BCs:     Elided blocks (gridpoints):    178798 (  187767606).
MG BCs: Computational effort saved:  99.9809%.
MG BCs: Charge after coarse-graining:           -9.0010364.
MG DL_MG: Calling solver with defect correction order = 8
MG DL_MG: Solver finished
MG Hartree energy from (\int phi*rho dr):              1409.169931
MG Hartree energy from (\int eps (grad phi)^2 dr):     1408.517494
MG Discrepancy due to finite box and discretization:     -0.652437 (  -0.04630%)
MG Correction to account for finite box:                  0.463610
MG Remaining discrepancy, due to discretization:         -0.188826 (  -0.01340%)
     Trial step:       0.488425896199
             Q1:  -11648.089878507075
 Quadratic coef:       0.038098378609
 Linear coef   :      -0.118619849360
           Qmin:  -11648.101688187779
Quadratic minimum step length (  0.760360523806) accepted
    Initial Ne1:    7191.99995892
      Final Ne1:    7192.00000000

=================== Penalty functional idempotency correction ==================
 RMS occupancy error at iteration   1:  0.000752 (step -0.4647 Ne1=   7192.0000)
 RMS occupancy error at iteration   2:  0.000019 (step -0.5000 Ne1=   7192.0000)
            Final RMS occupancy error   :  0.000000 (Ne1=   7192.0000)
               Final occupancy bounds   : [  0.0000,  1.0000]
================================================================================

    5        -1.164800935704E+04     7.5501E-05     6.8289E-05    -1.6411E-01
MG BCs: +ve charge blocks (gridpoints):     31239 (   17366058).
MG BCs: -ve charge blocks (gridpoints):      8137 (    1086183).
MG BCs:     Elided blocks (gridpoints):    178799 (  187767584).
MG BCs: Computational effort saved:  99.9809%.
MG BCs: Charge after coarse-graining:           -9.0010363.
MG DL_MG: Calling solver with defect correction order = 8
MG DL_MG: Solver finished
MG Hartree energy from (\int phi*rho dr):              1409.381541
MG Hartree energy from (\int eps (grad phi)^2 dr):     1408.728954
MG Discrepancy due to finite box and discretization:     -0.652588 (  -0.04630%)
MG Correction to account for finite box:                  0.463637
MG Remaining discrepancy, due to discretization:         -0.188950 (  -0.01341%)
      ideal mu1:      -0.780080142221
             Q0:  -11648.100158930523
             G0:      -0.231858146619
   RMS gradient:       0.000074793305
MG BCs: +ve charge blocks (gridpoints):     31237 (   17364816).
MG BCs: -ve charge blocks (gridpoints):      8142 (    1086676).
MG BCs:     Elided blocks (gridpoints):    178801 (  187768333).
MG BCs: Computational effort saved:  99.9809%.
MG BCs: Charge after coarse-graining:           -9.0010362.
MG DL_MG: Calling solver with defect correction order = 8
MG DL_MG: Solver finished
MG Hartree energy from (\int phi*rho dr):              1407.825406
MG Hartree energy from (\int eps (grad phi)^2 dr):     1407.172686
MG Discrepancy due to finite box and discretization:     -0.652719 (  -0.04636%)
MG Correction to account for finite box:                  0.463729
MG Remaining discrepancy, due to discretization:         -0.188990 (  -0.01342%)
     Trial step:       0.609409361820
             Q1:  -11648.198197701480
 Quadratic coef:       0.043257754207
 Linear coef   :      -0.141296525164
           Qmin:  -11648.215541180420
Quadratic minimum step length (  0.995283120982) accepted
    Initial Ne1:    7191.99988956
      Final Ne1:    7192.00000000

=================== Penalty functional idempotency correction ==================
 RMS occupancy error at iteration   1:  0.003996 (step -0.3349 Ne1=   7192.0000)
 RMS occupancy error at iteration   2:  0.000276 (step -0.4935 Ne1=   7192.0000)
 RMS occupancy error at iteration   3:  0.000006 (step -0.5003 Ne1=   7192.0000)
            Final RMS occupancy error   :  0.000000 (Ne1=   7192.0000)
               Final occupancy bounds   : [  0.0000,  1.0000]
================================================================================

    6        -1.164810015893E+04     7.4793E-05     6.7649E-05    -9.0802E-02
MG BCs: +ve charge blocks (gridpoints):     31238 (   17364100).
MG BCs: -ve charge blocks (gridpoints):      8143 (    1086953).
MG BCs:     Elided blocks (gridpoints):    178800 (  187768772).
MG BCs: Computational effort saved:  99.9809%.
MG BCs: Charge after coarse-graining:           -9.0010361.
MG DL_MG: Calling solver with defect correction order = 8
MG DL_MG: Solver finished
MG Hartree energy from (\int phi*rho dr):              1406.868327
MG Hartree energy from (\int eps (grad phi)^2 dr):     1406.215524
MG Discrepancy due to finite box and discretization:     -0.652803 (  -0.04640%)
MG Correction to account for finite box:                  0.463784
MG Remaining discrepancy, due to discretization:         -0.189019 (  -0.01344%)
      ideal mu1:      -0.779401766134
             Q0:  -11648.201390986331
             G0:      -0.323711097691
   RMS gradient:       0.000087464435
MG BCs: +ve charge blocks (gridpoints):     31240 (   17366995).
MG BCs: -ve charge blocks (gridpoints):      8135 (    1085885).
MG BCs:     Elided blocks (gridpoints):    178798 (  187766945).
MG BCs: Computational effort saved:  99.9809%.
MG BCs: Charge after coarse-graining:           -9.0010367.
MG DL_MG: Calling solver with defect correction order = 8
MG DL_MG: Solver finished
MG Hartree energy from (\int phi*rho dr):              1409.430571
MG Hartree energy from (\int eps (grad phi)^2 dr):     1408.778231
MG Discrepancy due to finite box and discretization:     -0.652340 (  -0.04628%)
MG Correction to account for finite box:                  0.463642
MG Remaining discrepancy, due to discretization:         -0.188698 (  -0.01339%)
     Trial step:       0.778803474304
             Q1:  -11648.294233861612
 Quadratic coef:       0.159264452272
 Linear coef   :      -0.252107327552
           Qmin:  -11648.301159176437
Quadratic minimum step length (  0.616402655442) accepted
    Initial Ne1:    7191.99997694
      Final Ne1:    7192.00000000

=================== Penalty functional idempotency correction ==================
 RMS occupancy error at iteration   1:  0.000196 (step -0.4853 Ne1=   7192.0000)
 RMS occupancy error at iteration   2:  0.000001 (step -0.5000 Ne1=   7192.0000)
            Final RMS occupancy error   :  0.000000 (Ne1=   7192.0000)
               Final occupancy bounds   : [  0.0000,  1.0000]
================================================================================

    7        -1.164820139099E+04     8.7464E-05     7.9110E-05    -1.0123E-01
MG BCs: +ve charge blocks (gridpoints):     31240 (   17366334).
MG BCs: -ve charge blocks (gridpoints):      8138 (    1086152).
MG BCs:     Elided blocks (gridpoints):    178798 (  187767339).
MG BCs: Computational effort saved:  99.9809%.
MG BCs: Charge after coarse-graining:           -9.0010366.
MG DL_MG: Calling solver with defect correction order = 8
MG DL_MG: Solver finished
MG Hartree energy from (\int phi*rho dr):              1408.892790
MG Hartree energy from (\int eps (grad phi)^2 dr):     1408.240355
MG Discrepancy due to finite box and discretization:     -0.652435 (  -0.04631%)
MG Correction to account for finite box:                  0.463671
MG Remaining discrepancy, due to discretization:         -0.188764 (  -0.01340%)
      ideal mu1:      -0.780583258548
             Q0:  -11648.301414640038
             G0:      -0.216847751404
   RMS gradient:       0.000071543516
MG BCs: +ve charge blocks (gridpoints):     31242 (   17366609).
MG BCs: -ve charge blocks (gridpoints):      8141 (    1086038).
MG BCs:     Elided blocks (gridpoints):    178796 (  187767178).
MG BCs: Computational effort saved:  99.9809%.
MG BCs: Charge after coarse-graining:           -9.0010367.
MG DL_MG: Calling solver with defect correction order = 8
MG DL_MG: Solver finished
MG Hartree energy from (\int phi*rho dr):              1409.139663
MG Hartree energy from (\int eps (grad phi)^2 dr):     1408.487534
MG Discrepancy due to finite box and discretization:     -0.652129 (  -0.04628%)
MG Correction to account for finite box:                  0.463524
MG Remaining discrepancy, due to discretization:         -0.188605 (  -0.01338%)
     Trial step:       0.692861118571
             Q1:  -11648.379877806408
 Quadratic coef:       0.071782209227
 Linear coef   :      -0.150245375597
           Qmin:  -11648.380033259929
Quadratic minimum step length (  0.725104312881) accepted
    Initial Ne1:    7191.99998160
      Final Ne1:    7192.00000000

=================== Penalty functional idempotency correction ==================
 RMS occupancy error at iteration   1:  0.000983 (step -0.4336 Ne1=   7192.0000)
 RMS occupancy error at iteration   2:  0.000026 (step -0.4987 Ne1=   7192.0000)
            Final RMS occupancy error   :  0.000000 (Ne1=   7192.0000)
               Final occupancy bounds   : [ -0.0000,  1.0000]
================================================================================

    8        -1.164830141464E+04     7.1544E-05     6.4709E-05    -1.0002E-01
MG BCs: +ve charge blocks (gridpoints):     31242 (   17366633).
MG BCs: -ve charge blocks (gridpoints):      8141 (    1086020).
MG BCs:     Elided blocks (gridpoints):    178796 (  187767172).
MG BCs: Computational effort saved:  99.9809%.
MG BCs: Charge after coarse-graining:           -9.0010367.
MG DL_MG: Calling solver with defect correction order = 8
MG DL_MG: Solver finished
MG Hartree energy from (\int phi*rho dr):              1409.152877
MG Hartree energy from (\int eps (grad phi)^2 dr):     1408.500763
MG Discrepancy due to finite box and discretization:     -0.652114 (  -0.04628%)
MG Correction to account for finite box:                  0.463516
MG Remaining discrepancy, due to discretization:         -0.188598 (  -0.01338%)
      ideal mu1:      -0.780447792894
             Q0:  -11648.380545978667
             G0:      -0.138580056010
   RMS gradient:       0.000056796034
MG BCs: +ve charge blocks (gridpoints):     31240 (   17365366).
MG BCs: -ve charge blocks (gridpoints):      8144 (    1086599).
MG BCs:     Elided blocks (gridpoints):    178798 (  187767860).
MG BCs: Computational effort saved:  99.9809%.
MG BCs: Charge after coarse-graining:           -9.0010365.
MG DL_MG: Calling solver with defect correction order = 8
MG DL_MG: Solver finished
MG Hartree energy from (\int phi*rho dr):              1407.872164
MG Hartree energy from (\int eps (grad phi)^2 dr):     1407.220307
MG Discrepancy due to finite box and discretization:     -0.651857 (  -0.04630%)
MG Correction to account for finite box:                  0.463310
MG Remaining discrepancy, due to discretization:         -0.188547 (  -0.01339%)
     Trial step:       0.708799397082
             Q1:  -11648.430089329835
 Quadratic coef:       0.048682108980
 Linear coef   :      -0.098225460148
           Qmin:  -11648.430093138924
Quadratic minimum step length (  0.715069133092) accepted
    Initial Ne1:    7192.00049144
      Final Ne1:    7192.00000000

=================== Penalty functional idempotency correction ==================
 RMS occupancy error at iteration   1:  0.001565 (step -0.4053 Ne1=   7192.0000)
 RMS occupancy error at iteration   2:  0.000065 (step -0.4965 Ne1=   7192.0000)
 RMS occupancy error at iteration   3:  0.000000 (step -0.5000 Ne1=   7192.0000)
            Final RMS occupancy error   :  0.000000 (Ne1=   7192.0000)
               Final occupancy bounds   : [  0.0000,  1.0000]
================================================================================

    9        -1.164838054598E+04     5.6796E-05     5.1371E-05    -7.9131E-02
MG BCs: +ve charge blocks (gridpoints):     31240 (   17365359).
MG BCs: -ve charge blocks (gridpoints):      8144 (    1086604).
MG BCs:     Elided blocks (gridpoints):    178798 (  187767862).
MG BCs: Computational effort saved:  99.9809%.
MG BCs: Charge after coarse-graining:           -9.0010365.
MG DL_MG: Calling solver with defect correction order = 8
MG DL_MG: Solver finished
MG Hartree energy from (\int phi*rho dr):              1407.862083
MG Hartree energy from (\int eps (grad phi)^2 dr):     1407.210227
MG Discrepancy due to finite box and discretization:     -0.651856 (  -0.04630%)
MG Correction to account for finite box:                  0.463309
MG Remaining discrepancy, due to discretization:         -0.188546 (  -0.01339%)
      ideal mu1:      -0.779066780379
   10        -1.164843210774E+04     4.3879E-05     3.9688E-05    -5.1562E-02
Finished density kernel iterations (  10)

Writing density kernel to file "host_9601.vacuum_dkn" ... done


>>> Density kernel optimised for the current NGWF basis:
     ~~~~~~~~~~~~~~~~~~~~~~~~~~~~~~~~~~~~~~~~~~~~~~~~~~~~~~~~~~~
     Total energy                =  -1.16484321077397E+04  Eh
     Estimated bandgap           =  -3.9495E-01  Eh
     RMS occupancy error         =   6.2930E-12
     [H,K] commutator            =   3.9688E-05
     Occupancy bounds            = [  0.000:  1.000]
     ~~~~~~~~~~~~~~~~~~~~~~~~~~~~~~~~~~~~~~~~~~~~~~~~~~~~~~~~~~~




################################################################################
########################### NGWF CG iteration  001 #############################
################################################################################
****** Reciprocal space K.E. preconditioning with k_zero =  3.5000 a0^-1 *******

>>> Checking for convergence of NGWFs:   NOT CONVERGED
  ========================================================================
         NGWF RMS gradient =  1.6396E-03 >  2.0000E-06  | above tolerance
  ========================================================================

>>> Improving NGWFs using line search:
============ Calculation of NGWF S^-1 using Hotelling algorithm ================ 
         Iteration  |  Frobenius norm and Maximum abs value    (of I-S*S_n^-1)   
               1       0.20423428E+00     0.54716248E-02
               2       0.96962851E-03     0.41122824E-04
               3       0.36498722E-07     0.26081562E-08
               4       0.12154345E-12     0.62172489E-14
================================================================================
MG BCs: +ve charge blocks (gridpoints):     30715 (   17298911).
MG BCs: -ve charge blocks (gridpoints):      8162 (    1085731).
MG BCs:     Elided blocks (gridpoints):    179321 (  187835183).
MG BCs: Computational effort saved:  99.9811%.
MG BCs: Charge after coarse-graining:           -9.0010358.
MG DL_MG: Calling solver with defect correction order = 8
MG DL_MG: Solver finished
MG Hartree energy from (\int phi*rho dr):              1374.851180
MG Hartree energy from (\int eps (grad phi)^2 dr):     1374.199963
MG Discrepancy due to finite box and discretization:     -0.651217 (  -0.04737%)
MG Correction to account for finite box:                  0.463250
MG Remaining discrepancy, due to discretization:         -0.187966 (  -0.01367%)
============ Calculation of NGWF S^-1 using Hotelling algorithm ================ 
         Iteration  |  Frobenius norm and Maximum abs value    (of I-S*S_n^-1)   
               1       0.19180772E+01     0.41640259E-01
               2       0.76830262E-01     0.23522046E-02
               3       0.16332564E-03     0.10098805E-04
               4       0.13203270E-08     0.19982371E-09
               5       0.10801634E-12     0.51070259E-14
================================================================================
------------------------------- NGWF line search -------------------------------
RMS gradient                =       0.00163955159585
Trial step length           =               0.122474
Gradient along search dir.  =       -290.86047311894
Functional at step 0        =  -11648.43210773973260
Functional at step 1        =  -11681.32550531008746
Functional predicted        =  -11764.65811237632442
Selected quadratic step     =               0.799187
--------------------------- NGWF line search finished --------------------------
                                               
Writing NGWFs to file "host_9601.vacuum_tightbox_ngwfs"....  done

>>> Optimising kernel for current NGWFs:
   Initial electron number for spin 1:    7229.43686854
     Final electron number for spin 1:    7192.00000000

=================== Penalty functional idempotency correction ==================
 RMS occupancy error at iteration   1:  0.004380 (step -0.4860 Ne1=   7192.0000)
 RMS occupancy error at iteration   2:  0.000071 (step -0.5003 Ne1=   7192.0000)
            Final RMS occupancy error   :  0.000000 (Ne1=   7192.0000)
               Final occupancy bounds   : [  0.0000,  1.0000]
================================================================================

................................................................................
<<<<<<<<<<<<<< LNV (Original version) density kernel optimisation >>>>>>>>>>>>>>
~~~~~~~~~~~~~~~~~~~~~~~~~~~~~~~~~~~~~~~~~~~~~~~~~~~~~~~~~~~~~~~~~~~~~~~~~~~~~~~~
   iter  |      energy (Eh)       | rms gradient |  commutator  |   dE (Eh)
MG BCs: +ve charge blocks (gridpoints):     24782 (   16979711).
MG BCs: -ve charge blocks (gridpoints):      8325 (    1065735).
MG BCs:     Elided blocks (gridpoints):    185263 (  188174379).
MG BCs: Computational effort saved:  99.9839%.
MG BCs: Charge after coarse-graining:           -9.0007020.
MG DL_MG: Calling solver with defect correction order = 8
MG DL_MG: Solver finished
MG Hartree energy from (\int phi*rho dr):              1216.601697
MG Hartree energy from (\int eps (grad phi)^2 dr):     1215.949235
MG Discrepancy due to finite box and discretization:     -0.652462 (  -0.05363%)
MG Correction to account for finite box:                  0.462994
MG Remaining discrepancy, due to discretization:         -0.189468 (  -0.01557%)
      ideal mu1:      -0.716979745351
             Q0:  -11763.467731239856
             G0:     -10.835473561921
   RMS gradient:       0.000506030446
MG BCs: +ve charge blocks (gridpoints):     24849 (   17015639).
MG BCs: -ve charge blocks (gridpoints):      8281 (    1054775).
MG BCs:     Elided blocks (gridpoints):    185196 (  188149411).
MG BCs: Computational effort saved:  99.9839%.
MG BCs: Charge after coarse-graining:           -9.0006937.
MG DL_MG: Calling solver with defect correction order = 8
MG DL_MG: Solver finished
MG Hartree energy from (\int phi*rho dr):              1243.533339
MG Hartree energy from (\int eps (grad phi)^2 dr):     1242.875996
MG Discrepancy due to finite box and discretization:     -0.657342 (  -0.05286%)
MG Correction to account for finite box:                  0.461994
MG Remaining discrepancy, due to discretization:         -0.195348 (  -0.01571%)
     Trial step:       0.711927363154
             Q1:  -11762.959581328323
 Quadratic coef:       8.222220032998
 Linear coef   :      -7.714070121465
           Qmin:  -11765.277062466705
Quadratic minimum step length (  0.333964402480) accepted
    Initial Ne1:    7191.99954106
      Final Ne1:    7192.00000000

=================== Penalty functional idempotency correction ==================
 RMS occupancy error at iteration   1:  0.000392 (step -0.4984 Ne1=   7192.0000)
 RMS occupancy error at iteration   2:  0.000000 (step -0.5000 Ne1=   7192.0000)
            Final RMS occupancy error   :  0.000000 (Ne1=   7192.0000)
               Final occupancy bounds   : [  0.0000,  1.0000]
================================================================================

    1        -1.176346773124E+04     5.0603E-04     4.5769E-04
MG BCs: +ve charge blocks (gridpoints):     24809 (   16996901).
MG BCs: -ve charge blocks (gridpoints):      8303 (    1060595).
MG BCs:     Elided blocks (gridpoints):    185236 (  188162329).
MG BCs: Computational effort saved:  99.9839%.
MG BCs: Charge after coarse-graining:           -9.0006979.
MG DL_MG: Calling solver with defect correction order = 8
MG DL_MG: Solver finished
MG Hartree energy from (\int phi*rho dr):              1228.196301
MG Hartree energy from (\int eps (grad phi)^2 dr):     1227.541661
MG Discrepancy due to finite box and discretization:     -0.654640 (  -0.05330%)
MG Correction to account for finite box:                  0.462497
MG Remaining discrepancy, due to discretization:         -0.192143 (  -0.01564%)
      ideal mu1:      -0.727167007917
             Q0:  -11765.247341386625
             G0:      -1.066900097683
   RMS gradient:       0.000159477882
MG BCs: +ve charge blocks (gridpoints):     24816 (   16998694).
MG BCs: -ve charge blocks (gridpoints):      8301 (    1060543).
MG BCs:     Elided blocks (gridpoints):    185229 (  188160588).
MG BCs: Computational effort saved:  99.9839%.
MG BCs: Charge after coarse-graining:           -9.0006975.
MG DL_MG: Calling solver with defect correction order = 8
MG DL_MG: Solver finished
MG Hartree energy from (\int phi*rho dr):              1230.443618
MG Hartree energy from (\int eps (grad phi)^2 dr):     1229.788885
MG Discrepancy due to finite box and discretization:     -0.654733 (  -0.05321%)
MG Correction to account for finite box:                  0.462350
MG Remaining discrepancy, due to discretization:         -0.192383 (  -0.01564%)
     Trial step:       0.487604754330
             Q1:  -11765.471498048748
 Quadratic coef:       0.296068897902
 Linear coef   :      -0.520225560025
           Qmin:  -11765.475864743199
Quadratic minimum step length (  0.428387544571) accepted
    Initial Ne1:    7191.99994151
      Final Ne1:    7192.00000000

=================== Penalty functional idempotency correction ==================
 RMS occupancy error at iteration   1:  0.000156 (step -0.4993 Ne1=   7192.0000)
            Final RMS occupancy error   :  0.000000 (Ne1=   7192.0000)
               Final occupancy bounds   : [ -0.0000,  1.0000]
================================================================================

    2        -1.176524734139E+04     1.5948E-04     1.4424E-04    -1.7796E+00
MG BCs: +ve charge blocks (gridpoints):     24814 (   16998466).
MG BCs: -ve charge blocks (gridpoints):      8301 (    1060554).
MG BCs:     Elided blocks (gridpoints):    185231 (  188160805).
MG BCs: Computational effort saved:  99.9839%.
MG BCs: Charge after coarse-graining:           -9.0006976.
MG DL_MG: Calling solver with defect correction order = 8
MG DL_MG: Solver finished
MG Hartree energy from (\int phi*rho dr):              1230.170127
MG Hartree energy from (\int eps (grad phi)^2 dr):     1229.515407
MG Discrepancy due to finite box and discretization:     -0.654720 (  -0.05322%)
MG Correction to account for finite box:                  0.462368
MG Remaining discrepancy, due to discretization:         -0.192352 (  -0.01564%)
      ideal mu1:      -0.728917190060
             Q0:  -11765.476387920207
             G0:      -0.182214832136
   RMS gradient:       0.000065551910
MG BCs: +ve charge blocks (gridpoints):     24814 (   16997052).
MG BCs: -ve charge blocks (gridpoints):      8302 (    1061175).
MG BCs:     Elided blocks (gridpoints):    185231 (  188161598).
MG BCs: Computational effort saved:  99.9839%.
MG BCs: Charge after coarse-graining:           -9.0006978.
MG DL_MG: Calling solver with defect correction order = 8
MG DL_MG: Solver finished
MG Hartree energy from (\int phi*rho dr):              1229.330332
MG Hartree energy from (\int eps (grad phi)^2 dr):     1228.675808
MG Discrepancy due to finite box and discretization:     -0.654525 (  -0.05324%)
MG Correction to account for finite box:                  0.462203
MG Remaining discrepancy, due to discretization:         -0.192322 (  -0.01564%)
     Trial step:       0.457038076563
             Q1:  -11765.533542638295
 Quadratic coef:       0.026124398313
 Linear coef   :      -0.083279116401
           Qmin:  -11765.542757020323
Quadratic minimum step length (  0.728470886130) accepted
    Initial Ne1:    7192.00116057
      Final Ne1:    7192.00000000

=================== Penalty functional idempotency correction ==================
 RMS occupancy error at iteration   1:  0.000123 (step -0.4970 Ne1=   7192.0000)
 RMS occupancy error at iteration   2:  0.000001 (step -0.5000 Ne1=   7192.0000)
            Final RMS occupancy error   :  0.000000 (Ne1=   7192.0000)
               Final occupancy bounds   : [  0.0000,  1.0000]
================================================================================

    3        -1.176547638792E+04     6.5552E-05     5.9290E-05    -2.2905E-01
MG BCs: +ve charge blocks (gridpoints):     24814 (   16996273).
MG BCs: -ve charge blocks (gridpoints):      8303 (    1061524).
MG BCs:     Elided blocks (gridpoints):    185231 (  188162028).
MG BCs: Computational effort saved:  99.9839%.
MG BCs: Charge after coarse-graining:           -9.0006979.
MG DL_MG: Calling solver with defect correction order = 8
MG DL_MG: Solver finished
MG Hartree energy from (\int phi*rho dr):              1228.831121
MG Hartree energy from (\int eps (grad phi)^2 dr):     1228.176712
MG Discrepancy due to finite box and discretization:     -0.654409 (  -0.05325%)
MG Correction to account for finite box:                  0.462104
MG Remaining discrepancy, due to discretization:         -0.192305 (  -0.01565%)
      ideal mu1:      -0.727652817221
             Q0:  -11765.542887122603
             G0:      -0.056317165865
   RMS gradient:       0.000036425458
MG BCs: +ve charge blocks (gridpoints):     24814 (   16996700).
MG BCs: -ve charge blocks (gridpoints):      8301 (    1061428).
MG BCs:     Elided blocks (gridpoints):    185231 (  188161697).
MG BCs: Computational effort saved:  99.9839%.
MG BCs: Charge after coarse-graining:           -9.0006978.
MG DL_MG: Calling solver with defect correction order = 8
MG DL_MG: Solver finished
MG Hartree energy from (\int phi*rho dr):              1229.084115
MG Hartree energy from (\int eps (grad phi)^2 dr):     1228.429976
MG Discrepancy due to finite box and discretization:     -0.654139 (  -0.05322%)
MG Correction to account for finite box:                  0.461968
MG Remaining discrepancy, due to discretization:         -0.192170 (  -0.01564%)
     Trial step:       0.577008607067
             Q1:  -11765.561935487902
 Quadratic coef:       0.013447124131
 Linear coef   :      -0.032495489430
           Qmin:  -11765.562518770661
Quadratic minimum step length (  0.697181676517) accepted
    Initial Ne1:    7192.00034291
      Final Ne1:    7192.00000000

=================== Penalty functional idempotency correction ==================
 RMS occupancy error at iteration   1:  0.000129 (step -0.4932 Ne1=   7192.0000)
 RMS occupancy error at iteration   2:  0.000001 (step -0.5000 Ne1=   7192.0000)
            Final RMS occupancy error   :  0.000000 (Ne1=   7192.0000)
               Final occupancy bounds   : [  0.0000,  1.0000]
================================================================================

    4        -1.176554288712E+04     3.6425E-05     3.2946E-05    -6.6499E-02
MG BCs: +ve charge blocks (gridpoints):     24812 (   16996770).
MG BCs: -ve charge blocks (gridpoints):      8301 (    1061434).
MG BCs:     Elided blocks (gridpoints):    185233 (  188161621).
MG BCs: Computational effort saved:  99.9839%.
MG BCs: Charge after coarse-graining:           -9.0006978.
MG DL_MG: Calling solver with defect correction order = 8
MG DL_MG: Solver finished
MG Hartree energy from (\int phi*rho dr):              1229.137272
MG Hartree energy from (\int eps (grad phi)^2 dr):     1228.483191
MG Discrepancy due to finite box and discretization:     -0.654082 (  -0.05321%)
MG Correction to account for finite box:                  0.461940
MG Remaining discrepancy, due to discretization:         -0.192142 (  -0.01563%)
      ideal mu1:      -0.728067434328
             Q0:  -11765.562522488297
             G0:      -0.042922647241
   RMS gradient:       0.000031839651
MG BCs: +ve charge blocks (gridpoints):     24812 (   16997717).
MG BCs: -ve charge blocks (gridpoints):      8303 (    1061072).
MG BCs:     Elided blocks (gridpoints):    185233 (  188161036).
MG BCs: Computational effort saved:  99.9839%.
MG BCs: Charge after coarse-graining:           -9.0006976.
MG DL_MG: Calling solver with defect correction order = 8
MG DL_MG: Solver finished
MG Hartree energy from (\int phi*rho dr):              1229.770127
MG Hartree energy from (\int eps (grad phi)^2 dr):     1229.116361
MG Discrepancy due to finite box and discretization:     -0.653765 (  -0.05316%)
MG Correction to account for finite box:                  0.461694
MG Remaining discrepancy, due to discretization:         -0.192072 (  -0.01562%)
     Trial step:       0.634255333474
             Q1:  -11765.579313731869
 Quadratic coef:       0.010432674368
 Linear coef   :      -0.027223917939
           Qmin:  -11765.580282596631
Quadratic minimum step length (  0.827540213686) accepted
    Initial Ne1:    7192.00031094
      Final Ne1:    7192.00000000

=================== Penalty functional idempotency correction ==================
 RMS occupancy error at iteration   1:  0.000398 (step -0.4774 Ne1=   7192.0000)
 RMS occupancy error at iteration   2:  0.000003 (step -0.5000 Ne1=   7192.0000)
            Final RMS occupancy error   :  0.000000 (Ne1=   7192.0000)
               Final occupancy bounds   : [  0.0000,  1.0000]
================================================================================

    5        -1.176556252249E+04     3.1840E-05     2.8798E-05    -1.9635E-02
MG BCs: +ve charge blocks (gridpoints):     24812 (   16998025).
MG BCs: -ve charge blocks (gridpoints):      8303 (    1060948).
MG BCs:     Elided blocks (gridpoints):    185233 (  188160852).
MG BCs: Computational effort saved:  99.9839%.
MG BCs: Charge after coarse-graining:           -9.0006975.
MG DL_MG: Calling solver with defect correction order = 8
MG DL_MG: Solver finished
MG Hartree energy from (\int phi*rho dr):              1229.963804
MG Hartree energy from (\int eps (grad phi)^2 dr):     1229.310135
MG Discrepancy due to finite box and discretization:     -0.653669 (  -0.05315%)
MG Correction to account for finite box:                  0.461619
MG Remaining discrepancy, due to discretization:         -0.192050 (  -0.01561%)
      ideal mu1:      -0.728976250911
             Q0:  -11765.580219056224
             G0:      -0.041069425688
   RMS gradient:       0.000031129164
MG BCs: +ve charge blocks (gridpoints):     24812 (   16997450).
MG BCs: -ve charge blocks (gridpoints):      8303 (    1061294).
MG BCs:     Elided blocks (gridpoints):    185233 (  188161081).
MG BCs: Computational effort saved:  99.9839%.
MG BCs: Charge after coarse-graining:           -9.0006976.
MG DL_MG: Calling solver with defect correction order = 8
MG DL_MG: Solver finished
MG Hartree energy from (\int phi*rho dr):              1229.553040
MG Hartree energy from (\int eps (grad phi)^2 dr):     1228.899704
MG Discrepancy due to finite box and discretization:     -0.653336 (  -0.05314%)
MG Correction to account for finite box:                  0.461287
MG Remaining discrepancy, due to discretization:         -0.192050 (  -0.01562%)
     Trial step:       0.724480361497
             Q1:  -11765.600557301659
 Quadratic coef:       0.009415746934
 Linear coef   :      -0.029753992369
           Qmin:  -11765.603724893523
Quadratic minimum step length (  1.144687898830) accepted
    Initial Ne1:    7192.00040943
      Final Ne1:    7192.00000000

=================== Penalty functional idempotency correction ==================
 RMS occupancy error at iteration   1:  0.001563 (step -0.4200 Ne1=   7192.0000)
 RMS occupancy error at iteration   2:  0.000036 (step -0.4993 Ne1=   7192.0000)
            Final RMS occupancy error   :  0.000000 (Ne1=   7192.0000)
               Final occupancy bounds   : [ -0.0000,  1.0000]
================================================================================

    6        -1.176558021906E+04     3.1129E-05     2.8156E-05    -1.7697E-02
MG BCs: +ve charge blocks (gridpoints):     24812 (   16997133).
MG BCs: -ve charge blocks (gridpoints):      8302 (    1061477).
MG BCs:     Elided blocks (gridpoints):    185233 (  188161215).
MG BCs: Computational effort saved:  99.9839%.
MG BCs: Charge after coarse-graining:           -9.0006976.
MG DL_MG: Calling solver with defect correction order = 8
MG DL_MG: Solver finished
MG Hartree energy from (\int phi*rho dr):              1229.317364
MG Hartree energy from (\int eps (grad phi)^2 dr):     1228.664200
MG Discrepancy due to finite box and discretization:     -0.653165 (  -0.05313%)
MG Correction to account for finite box:                  0.461115
MG Remaining discrepancy, due to discretization:         -0.192050 (  -0.01562%)
      ideal mu1:      -0.728992306256
             Q0:  -11765.603226688807
             G0:      -0.054694821254
   RMS gradient:       0.000035952227
MG BCs: +ve charge blocks (gridpoints):     24814 (   16997507).
MG BCs: -ve charge blocks (gridpoints):      8302 (    1061157).
MG BCs:     Elided blocks (gridpoints):    185231 (  188161161).
MG BCs: Computational effort saved:  99.9839%.
MG BCs: Charge after coarse-graining:           -9.0006976.
MG DL_MG: Calling solver with defect correction order = 8
MG DL_MG: Solver finished
MG Hartree energy from (\int phi*rho dr):              1229.446607
MG Hartree energy from (\int eps (grad phi)^2 dr):     1228.793427
MG Discrepancy due to finite box and discretization:     -0.653180 (  -0.05313%)
MG Correction to account for finite box:                  0.461093
MG Remaining discrepancy, due to discretization:         -0.192087 (  -0.01562%)
     Trial step:       0.910661244781
             Q1:  -11765.612621354987
 Quadratic coef:       0.040413787827
 Linear coef   :      -0.049808454006
           Qmin:  -11765.618573444357
Quadratic minimum step length (  0.561177647097) accepted
    Initial Ne1:    7192.00022027
      Final Ne1:    7192.00000000

=================== Penalty functional idempotency correction ==================
 RMS occupancy error at iteration   1:  0.000024 (step -0.4985 Ne1=   7192.0000)
            Final RMS occupancy error   :  0.000000 (Ne1=   7192.0000)
               Final occupancy bounds   : [ -0.0000,  1.0000]
================================================================================

    7        -1.176560322669E+04     3.5952E-05     3.2518E-05    -2.3008E-02
MG BCs: +ve charge blocks (gridpoints):     24813 (   16997348).
MG BCs: -ve charge blocks (gridpoints):      8304 (    1061305).
MG BCs:     Elided blocks (gridpoints):    185232 (  188161172).
MG BCs: Computational effort saved:  99.9839%.
MG BCs: Charge after coarse-graining:           -9.0006976.
MG DL_MG: Calling solver with defect correction order = 8
MG DL_MG: Solver finished
MG Hartree energy from (\int phi*rho dr):              1229.394246
MG Hartree energy from (\int eps (grad phi)^2 dr):     1228.741071
MG Discrepancy due to finite box and discretization:     -0.653176 (  -0.05313%)
MG Correction to account for finite box:                  0.461103
MG Remaining discrepancy, due to discretization:         -0.192073 (  -0.01562%)
[...]
MG Correction to account for finite box:                  0.006275
MG Remaining discrepancy, due to discretization:         -0.190594 (  -0.01607%)
     Trial step:       0.380507228950
             Q1:  -11800.354183828807
 Quadratic coef:       0.000000000935
 Linear coef   :      -0.000000000701
           Qmin:  -11800.354183829171
Quadratic minimum step length (  0.142707597835) accepted
    Initial Ne1:    7192.00000000
      Final Ne1:    7192.00000000

=================== Penalty functional idempotency correction ==================
 RMS occupancy error at iteration   1:  0.000000 (step -0.5000 Ne1=   7192.0000)
            Final RMS occupancy error   :  0.000000 (Ne1=   7192.0000)
               Final occupancy bounds   : [ -0.0000,  1.0000]
================================================================================

    7        -1.180035418383E+04     6.5997E-09     5.9693E-09    -5.8208E-10

Reusing previously generated solute cavity.
MG BCs: +ve charge blocks (gridpoints):     29040 (   19198096).
MG BCs: -ve charge blocks (gridpoints):      8292 (    1030540).
MG BCs:     Elided blocks (gridpoints):    181005 (  185991189).
MG BCs: Computational effort saved:  99.9819%.
MG BCs: Charge after coarse-graining:           -9.0010086.
MG DL_MG: Calling solver with defect correction order = 8
MG DL_MG: Solver finished
MG Hartree energy from (\int phi*rho dr):              1186.128901
MG Hartree energy from (\int eps (grad phi)^2 dr):     1185.932032
MG Discrepancy due to finite box and discretization:     -0.196869 (  -0.01660%)
MG Correction to account for finite box:                  0.006275
MG Remaining discrepancy, due to discretization:         -0.190594 (  -0.01607%)
      ideal mu1:      -0.495294253603
             Q0:  -11800.354183828924
             G0:      -0.000000001906
   RMS gradient:       0.000000005070

Reusing previously generated solute cavity.
MG BCs: +ve charge blocks (gridpoints):     29040 (   19198096).
MG BCs: -ve charge blocks (gridpoints):      8292 (    1030540).
MG BCs:     Elided blocks (gridpoints):    181005 (  185991189).
MG BCs: Computational effort saved:  99.9819%.
MG BCs: Charge after coarse-graining:           -9.0010086.
MG DL_MG: Calling solver with defect correction order = 8
MG DL_MG: Solver finished
MG Hartree energy from (\int phi*rho dr):              1186.128898
MG Hartree energy from (\int eps (grad phi)^2 dr):     1185.932029
MG Discrepancy due to finite box and discretization:     -0.196869 (  -0.01660%)
MG Correction to account for finite box:                  0.006275
MG Remaining discrepancy, due to discretization:         -0.190594 (  -0.01607%)
     Trial step:       0.233026334568
             Q1:  -11800.354183828691
 Quadratic coef:       0.000000000677
 Linear coef   :      -0.000000000444
           Qmin:  -11800.354183828997
Quadratic minimum step length (  0.076464840704) accepted
    Initial Ne1:    7192.00000000
      Final Ne1:    7192.00000000

=================== Penalty functional idempotency correction ==================
 RMS occupancy error at iteration   1:  0.000000 (step -0.5000 Ne1=   7192.0000)
            Final RMS occupancy error   :  0.000000 (Ne1=   7192.0000)
               Final occupancy bounds   : [  0.0000,  1.0000]
================================================================================

    8        -1.180035418383E+04     5.0702E-09     4.5859E-09     1.1642E-10

Reusing previously generated solute cavity.
MG BCs: +ve charge blocks (gridpoints):     29040 (   19198096).
MG BCs: -ve charge blocks (gridpoints):      8292 (    1030540).
MG BCs:     Elided blocks (gridpoints):    181005 (  185991189).
MG BCs: Computational effort saved:  99.9819%.
MG BCs: Charge after coarse-graining:           -9.0010086.
MG DL_MG: Calling solver with defect correction order = 8
MG DL_MG: Solver finished
MG Hartree energy from (\int phi*rho dr):              1186.128900
MG Hartree energy from (\int eps (grad phi)^2 dr):     1185.932031
MG Discrepancy due to finite box and discretization:     -0.196869 (  -0.01660%)
MG Correction to account for finite box:                  0.006275
MG Remaining discrepancy, due to discretization:         -0.190594 (  -0.01607%)
      ideal mu1:      -0.495294253497
             Q0:  -11800.354183828924
             G0:      -0.000000001785
   RMS gradient:       0.000000004193

Reusing previously generated solute cavity.
MG BCs: +ve charge blocks (gridpoints):     29040 (   19198096).
MG BCs: -ve charge blocks (gridpoints):      8292 (    1030540).
MG BCs:     Elided blocks (gridpoints):    181005 (  185991189).
MG BCs: Computational effort saved:  99.9819%.
MG BCs: Charge after coarse-graining:           -9.0010086.
MG DL_MG: Calling solver with defect correction order = 8
MG DL_MG: Solver finished
MG Hartree energy from (\int phi*rho dr):              1186.128898
MG Hartree energy from (\int eps (grad phi)^2 dr):     1185.932029
MG Discrepancy due to finite box and discretization:     -0.196869 (  -0.01660%)
MG Correction to account for finite box:                  0.006275
MG Remaining discrepancy, due to discretization:         -0.190594 (  -0.01607%)
     Trial step:       0.133485285903
             Q1:  -11800.354183828807
 Quadratic coef:       0.000000000355
 Linear coef   :      -0.000000000238
           Qmin:  -11800.354183828964
Quadratic minimum step length (  0.044832124076) accepted
    Initial Ne1:    7192.00000000
      Final Ne1:    7192.00000000

=================== Penalty functional idempotency correction ==================
 RMS occupancy error at iteration   1:  0.000000 (step -0.5000 Ne1=   7192.0000)
            Final RMS occupancy error   :  0.000000 (Ne1=   7192.0000)
               Final occupancy bounds   : [ -0.0000,  1.0000]
================================================================================

    9        -1.180035418383E+04     4.1929E-09     3.7924E-09     0.0000E+00

Reusing previously generated solute cavity.
MG BCs: +ve charge blocks (gridpoints):     29040 (   19198096).
MG BCs: -ve charge blocks (gridpoints):      8292 (    1030540).
MG BCs:     Elided blocks (gridpoints):    181005 (  185991189).
MG BCs: Computational effort saved:  99.9819%.
MG BCs: Charge after coarse-graining:           -9.0010086.
MG DL_MG: Calling solver with defect correction order = 8
MG DL_MG: Solver finished
MG Hartree energy from (\int phi*rho dr):              1186.128900
MG Hartree energy from (\int eps (grad phi)^2 dr):     1185.932030
MG Discrepancy due to finite box and discretization:     -0.196869 (  -0.01660%)
MG Correction to account for finite box:                  0.006275
MG Remaining discrepancy, due to discretization:         -0.190594 (  -0.01607%)
      ideal mu1:      -0.495294253150
   10        -1.180035418383E+04     3.7150E-09     3.3601E-09     1.1642E-10
Finished density kernel iterations (  10)

Writing density kernel to file "host_9601.dkn" ... done


>>> Density kernel optimised for the current NGWF basis:
     ~~~~~~~~~~~~~~~~~~~~~~~~~~~~~~~~~~~~~~~~~~~~~~~~~~~~~~~~~~~
     Total energy                =  -1.18003541838288E+04  Eh
     Estimated bandgap           =   8.8866E-02  Eh
     RMS occupancy error         =   3.1039E-16
     [H,K] commutator            =   3.3601E-09
     Occupancy bounds            = [ -0.000:  1.000]
     ~~~~~~~~~~~~~~~~~~~~~~~~~~~~~~~~~~~~~~~~~~~~~~~~~~~~~~~~~~~




################################################################################
########################### NGWF CG iteration  005 #############################
################################################################################
****** Reciprocal space K.E. preconditioning with k_zero =  3.5000 a0^-1 *******

>>> Checking for convergence of NGWFs: 
           ........................................................
           |         *** NGWF optimisation converged ***          |
           | RMS NGWF gradient =    0.00000102326132              |
           | Criteria satisfied:                                  |
           | -> RMS NGWF gradient lower than set threshold.       |
           ========================================================

Reusing previously generated solute cavity.
MG BCs: +ve charge blocks (gridpoints):     29040 (   19198096).
MG BCs: -ve charge blocks (gridpoints):      8292 (    1030540).
MG BCs:     Elided blocks (gridpoints):    181005 (  185991189).
MG BCs: Computational effort saved:  99.9819%.
MG BCs: Charge after coarse-graining:           -9.0010086.
MG DL_MG: Calling solver with defect correction order = 8
MG DL_MG: Solver finished
MG Hartree energy from (\int phi*rho dr):              1186.128900
MG Hartree energy from (\int eps (grad phi)^2 dr):     1185.932030
MG Discrepancy due to finite box and discretization:     -0.196869 (  -0.01660%)
MG Correction to account for finite box:                  0.006275
MG Remaining discrepancy, due to discretization:         -0.190594 (  -0.01607%)

================================================================================
           ---------------- ENERGY COMPONENTS (Eh) ----------------
           | Kinetic                    :     8634.56824036629405 |
           | Pseudo. (local,OBC,corr'd) :    -5116.40603682971778 |
           | Pseudopotential (non-local):     1400.64277958282833 |
           | Hartree (molecular)        :     1186.12889954292973 |
           | Exchange-correlation       :    -3496.74813897407239 |
           | Ion-ion (open BC)          :   818285.99712670361623 |
           | Smeared ion non-self corr. :  -818238.02758482377976 |
           | Smeared ion self corr.     :   -14457.16956389741972 |
           | Solvent cavitation energy  :        2.34846393458499 |
           | Solute-solvent dis-rep en. :       -1.68836943417151 |
           | Total                      :   -11800.35418382891476 |
           --------------------------------------------------------
           ------ LOCAL ENERGY COMPONENTS FROM MATRIX TRACES ------
           | Pseudopotential (local)    :    -5116.40603682971232 |
           | Hartree                    :    -2002.96525214099347 |
           --------------------------------------------------------
           Integrated density           :     7191.99999999887950
           Integrated density tr(KS)    :     7192.00000000000000
================================================================================


                        <<<<< CALCULATION SUMMARY >>>>>                         
|ITER|    RMS GRADIENT   |     TOTAL ENERGY    |   step   |     Epredicted              
   0     0.00003992224974 -11800.29391398688313   0.601893 -11800.34581235372752        
   1     0.00001057853875 -11800.35349982022308   0.093819 -11800.35406781624988        
   2     0.00000483874435 -11800.35415605269372   0.018355 -11800.35417930327640        
   3     0.00000223205641 -11800.35418257059064   0.003971 -11800.35418364095858        
   4     0.00000102326132 -11800.35418382880744  <-- CG                                 

=================== Finished the calculation in solvent ========================
= Adjusting the following parameters: 
= read_denskern: F
= read_tightbox_ngwfs: F
= maxit_pen: 0 (restored to user-specified value)
= restart read filename prefix: ""
= restart write filename prefix: ""
================================================================================

================================================================================
IS: Calculation in solvent completed (NGWFs converged).      

Individual components of total energy in solvent:     hartree           kcal/mol
- Usual non-electrostatic DFT terms:    -12987.14317787214895    -8149555.208323
- Electrostatic fixed charge energy:      1186.12889954292973      744307.105775
- Apolar cavitation energy:                  2.34846393458499        1473.683336
- Apolar dispersion-repulsion energy:       -1.68836943417151       -1059.467793
 -------------------------------------------------------------------------------
- Total energy in solvent:              -11800.35418382880744    -7404833.887004

Components of total energy in solvent:                hartree           kcal/mol
- Usual non-electrostatic DFT terms:    -12987.14317787214895    -8149555.208323
- Electrostatic energy:                   1186.12889954292973      744307.105775
- Apolar energy terms:                       0.66009450041348         414.215544
 -------------------------------------------------------------------------------
- Total energy in solvent:              -11800.35418382880744    -7404833.887004

Calculation of free energy of solvation:              hartree           kcal/mol
- Total energy in solvent:         (+)  -11800.35418382880744    -7404833.887004
- Total energy in vacuum:          (-)  -11796.55129572132137    -7402447.538740
 -------------------------------------------------------------------------------
- Total free energy of solvation:           -3.80288810748607       -2386.348264

Components of polar term in f.e. of solvation:        hartree           kcal/mol
- Electrostatic:                            -4.22382458150696       -2650.489884
- Change in nonelectrostatic DFT terms:     -0.23915802639021        -150.073924
 -------------------------------------------------------------------------------
- Polar term in f.e. of solvation:          -4.46298260789717       -2800.563808

Components of free energy of solvation:               hartree           kcal/mol
- Polar term in f.e. of solvation: (+)      -4.46298260789717       -2800.563808
- Apolar (cavitation, dis., rep.): (+)       0.66009450041348         414.215544
 -------------------------------------------------------------------------------
- Total free energy of solvation:           -3.80288810748370       -2386.348264
================================================================================


------------------------------ TIMING INFORMATION ------------------------------
AVERAGE TIME:   39716.974s on     60 node(s)                                    
TOTAL TIME:     39716.975s on     60 node(s)                                    
================= AVERAGE TIMINGS FROM ALL NODES (CUMULATIVE) ==================
|| TAG                                    #calls    cpu time   %total  Gflops ||
|| work_imbalance                       :     1        0.00s   0.000%  ------ ||
|| sparse_set_to_garbage                :   206        0.04s   0.000%  ------ ||
|| parallel_prepare_fd_halos_request    :  2193        0.04s   0.000%  ------ ||
|| ngwfs_initialise_from_radial         :     1        0.11s   0.000%  ------ ||
|| basis_extract_function_from_box      :  4011        0.18s   0.000%  ------ ||
|| parallel_prepare_fd_halos_alloc      :  2193        0.21s   0.001%  ------ ||
|| parallel_prepare_fd_halos_satisfy    :  2193        0.73s   0.002%  ------ ||
|| pseudopotentials_nonlocal_mat        :    35        2.63s   0.007%  ------ ||
|| openbc_locps_radial                  :     1        3.15s   0.008%  ------ ||
|| restart_ngwfs_tightbox_input         :     1        6.63s   0.017%  ------ ||
|| density_init_guess_real              :     1        7.93s   0.020%  ------ ||
|| restart_kernel_read                  :     1        8.67s   0.022%  ------ ||
|| parallel_prepare_fd_halos_comms_imbal:  2193       12.27s   0.031%  ------ ||
|| parallel_prepare_fd_halos_clear      :  2193       21.52s   0.054%  ------ ||
|| sparse_init                          :     2       22.43s   0.056%  ------ ||
|| parallel_prepare_fd_halos_comms_wait :  2193       27.64s   0.070%  ------ ||
|| projectors_func_ovlp_box             :    35       30.57s   0.077%  ------ ||
|| function_ops_brappd_ketppd           :    35       33.76s   0.085%  ------ ||
|| palser_mano_kernel_optimise          :     1       36.13s   0.091%  ------ ||
|| projectors_init_fftbox_recip         :   161       36.94s   0.093%  ------ ||
|| basis_copy_function_to_box           : 65483       47.54s   0.120%  ------ ||
|| pseudo_make_structure_factor         :     2       55.24s   0.139%  ------ ||
|| fourier_apply_box_pair               :  5807       59.95s   0.151% 560.789 ||
|| parallel_prepare_fd_halos            :  2193       62.44s   0.157%  ------ ||
|| ngwf_gradient_coeffs                 :    18       63.05s   0.159%  ------ ||
|| sparse_embed_hotelling_invert_embed  :    35       91.86s   0.231%  ------ ||
|| restart_kernel_write                 :    19      118.93s   0.299%  ------ ||
|| finite_difference_derivative         :  2193      136.85s   0.345%  ------ ||
|| integrals_kinetic                    :    35      169.71s   0.427%  ------ ||
|| projectors_gradient_batch            :   126      189.65s   0.478%  ------ ||
|| basis_dot_function_with_box          : 9.730M     196.00s   0.493%  ------ ||
|| sparse_trace                         :  6023      210.70s   0.530%  ------ ||
|| openbc_locps_on_grid                 :     2      287.45s   0.724%  ------ ||
|| kernel_purify                        :   558      379.75s   0.956%  ------ ||
|| basis_add_function_to_box            : 20.35M     463.74s   1.168%  ------ ||
|| hamiltonian_energy_components        :     4      538.38s   1.356%  ------ ||
|| lnv_gradient_norm                    :   180      572.33s   1.441%  ------ ||
|| kernel_fix                           :   180      659.87s   1.661%  ------ ||
|| ngwf_gradient_build_batch            :   126      833.10s   2.098%  ------ ||
|| integrals_locpot_mat_els_batch       :  1323      860.60s   2.167%  ------ ||
|| restart_ngwfs_tightbox_output        :    16      950.84s   2.394%  ------ ||
|| ngwf_gradient_batch                  :   126     1150.37s   2.896%  ------ ||
|| density_batch_row_sums               :  2548     1234.72s   3.109%  ------ ||
|| ngwf_gradient_lnv                    :    18     1301.57s   3.277%  ------ ||
|| cell_grid_deposit_box_real           : 41912     1471.68s   3.705%  ------ ||
|| fourier_apply_cell_forward           : 10221     1698.42s   4.276%  88.177 ||
|| cell_grid_extract_box_real           : 47207     1889.77s   4.758%  ------ ||
|| fourier_apply_cell_backward          : 10953     1926.33s   4.850%  83.313 ||
|| density_fftbox_deposit_to_cell       : 39676     2203.91s   5.549%  ------ ||
|| sparse_product                       :  7519     2339.85s   5.891%  ------ ||
|| potential_apply_to_ngwf_batch        :  1323     4006.99s  10.089%  ------ ||
|| density_fftbox_interpolate_multiply  : 39676     4130.66s  10.400%  ------ ||
|| xc_energy_potential                  :   365     4732.40s  11.915%  ------ ||
|| integrals_locpot_dbl_grid            :   189     4887.51s  12.306%  ------ ||
|| fourier_apply_box                    : 136.4k    5070.31s  12.766% 754.856 ||
|| multigrid_prepare_bound_cond         :   365     5425.85s  13.661%  ------ ||
|| density_batch_interp_deposit         :  2548     7282.39s  18.336%  ------ ||
|| nlxc_vdw_energy                      :   730     7616.47s  19.177%  ------ ||
|| density_on_dbl_grid                  :   364     8915.82s  22.448%  ------ ||
|| dl_mg_solver_calls                   :   365     8972.84s  22.592%  ------ ||
|| multigrid_calculate_hartree          :   365    14592.46s  36.741%  ------ ||
|| hamiltonian_lhxc_calculate           :   360    28186.56s  70.969%  ------ ||
|| lnv_denskernel_optimise_cg           :    18    34114.37s  85.894%  ------ ||
|| ngwf_cg_optimise                     :     2    38715.47s  97.478%  ------ ||
|| total_time                           :     1    39716.97s 100.000%  ------ ||
================================================================================
Overhead of generating timer report: 
- 0 ms averaging over threads,
- 15 ms ensuring consistency across MPI ranks,
- 0 ms printing in order.

Job completed: 09-01-2020 23:55 (-0000)

Application 38578691 resources: utime ~8015747s, stime ~286606s, Rss ~3820180, inblocks ~423548932, outblocks ~74647668
