 +---------------------------------------------------------------+
 |                                                               |
 |        ####### #     # ####### ####### ####### ######         |
 |        #     # ##    # #          #    #       #     #        |
 |        #     # # #   # #          #    #       #     #        |
 |        #     # #  #  # #####      #    #####   ######         |
 |        #     # #   # # #          #    #       #              |
 |        #     # #    ## #          #    #       #              |
 |        ####### #     # #######    #    ####### #              |
 |                                                               |
 |        Linear-Scaling Ab Initio Total Energy Program          |
 |                                                               |
 |          Release for academic collaborators of ODG            |
 |                                             Version 5.3.2.6.  |
 |                                                               |
 +---------------------------------------------------------------+
 |                                                               |
 |  Authors:                                                     |
 |  Jacek Dziedzic, Peter D. Haynes, Nicholas D. M. Hine,        |
 |  Arash. A. Mostofi, Mike C. Payne and Chris-Kriton Skylaris   |
 |                                                               |
 |  Contributors:                                                |
 |  J. Aarons, L. Andrinopoulos, P. W. Avraam, R. A. Bell,       |
 |  A. Bhandari, G. A. Bramley, R. J. Charlton, S. J. Clark,     |
 |  R. J. Clements, G. C. Constantinescu, F. Corsetti,           |
 |  N. Corsini, O. Dieguez, S. M. M. Dubois, K. K. B. Duff,      |
 |  J. M. Escartin, A. Greco, H. Helal, Q. O. Hill, L. P. Lee,   |
 |  J.-H. Li, E. B. Linscott, G. Moynihan, D. D. O`Regan,        |
 |  O. K. Okan, M. J. S. Phipps, C. J. Pickard,                  |
 |  J. C. A. Prentice, M. I. J. Probert, L. E. Ratcliff,         |
 |  M. Robinson, A. Ruiz Serrano, J. S. Spencer, E. W. Tait,     |
 |  G. Teobaldi, D. Turban, V. Vitale, K. A. Wilkinson,          |
 |  C. Weber, J. C. Womack, N. Yeung and T. J. Zuehlsdorff       |
 |                                                               |
 |                                   Copyright (c) 2004-2019     |
 |                                                               |
 |  Please cite:                                                 |
 |  "Introducing ONETEP: Linear-scaling density functional       |
 |   simulations on parallel computers".                         |
 |   C.-K. Skylaris, P. D. Haynes, A. A. Mostofi, M. C. Payne.   |
 |   J. Chem. Phys. 122 084119 (2005).                           |
 |                                                               |
 |          in all publications arising from your use of ONETEP. |
 |                                                               |
 +---------------------------------------------------------------+
 |                                                               |
 |   ONETEP is based on developments described in the following  |
 |   publications:                                               |
 |                                                               |
 |  "Nonorthogonal generalized Wannier function pseudopotential  |
 |   plane-wave method".                                         |
 |   C.-K. Skylaris, A. A. Mostofi, P. D. Haynes, O. Dieguez,    |
 |   M. C. Payne.                                                |
 |   Phys. Rev. B 66 035119 (2002).                              |
 |                                                               |
 |  "Preconditioned iterative minimization for linear-scaling    |
 |   electronic structure calculations".                         |
 |   A. A. Mostofi, P. D. Haynes, C.-K. Skylaris, M. C. Payne.   |
 |   J. Chem. Phys. 119(17), pp.8842-8848 (2003).                |
 |                                                               |
 |  "Total-energy calculations on a real space grid with         |
 |   localized functions and a plane-wave basis".                |
 |   A. A. Mostofi, C.-K. Skylaris, P. D. Haynes, M. C. Payne.   |
 |   Comput. Phys. Commun. 147, pp.788-802 (2002).               |
 |                                                               |
 |  "Accurate kinetic energy evaluation in electronic structure  |
 |   calculations with localized functions on real space grids"  |
 |   C.-K. Skylaris, A. A. Mostofi, P. D. Haynes, C. J. Pickard, |
 |   M. C. Payne.                                                |
 |   Comput. Phys. Commun. 140, pp.315-322 (2001).               |
 |                                                               |
 |  "Accurate ionic forces and geometry optimization in linear-  |
 |   scaling density-functional theory with local orbitals"      |
 |   N. D. M. Hine, M. Robinson, P. D. Haynes, C.-K. Skylaris,   |
 |   M. C. Payne, and A. A. Mostofi.                             |
 |   Phys. Rev. B 83 195102 (2011).                              |
 |                                                               |
 +---------------------------------------------------------------+

Job started: 24-01-2020 00:25 (-0000)
 
Reading parameters from file "complex_28601.dat" ...... done

If your calculation crashes here, before "Checking processes and threads..."
is displayed, then your stack size is insufficient.
If so, use "ulimit -s unlimited" at runtime.
You can disable this check with "check_stack_size F".

Checking processes and threads...
   Determining the default number of threads...
      No default threads set at compilation time: defaulting to 1.
      OpenMP library call suggests 4 threads.
      Hybrid MPI-OpenMP compilation detected.
      Number of MPI processes > 1.
      OMP_NUM_THREADS environment variable present and
      its value matches the one obtained from the OpenMP library call.
      Using this value as default.
      Default threads: 4
      Default applies to threads_max and threads_num_fftboxes.
      Settings in the input file override this default.
   ... done

   Running with 30 MPI processes.
   There are 4 MPI processes running on the same node as the root process.
   Each MPI process is using: 
               1 threads for simulation cell FFTs.
               1 threads for parallel FFT box operations.
               4 threads for loops over batched FFT box operations.
               4 threads in other parallel regions.
... done

Basic input checks...... done

Reading geometry and species blocks from file "complex_28601.dat" ...
  <species_atomic_set> block not found: NGWF initialisation set to SOLVE
IS: Dielectric excluded regions:
    - NONE.
    
  Number of PPD points along a3 set to 1.  This is 
  the default value, it may have been provided also in the input file.
... done
 Writing xyz coordinates to file "complex_28601.xyz" ... done


--------------------------------------------------------------------------------
---------------------------------- INPUT FILE ----------------------------------
--------------------------------------------------------------------------------

cutoff_energy       : 800 eV                                                    
xc_functional PBE                                                               
task SINGLEPOINT                                                                
write_xyz true                                                                  
output_detail VERBOSE                                                           
ngwf_threshold_orig : 0.000002                                                  
kernel_cutoff       : 1000                                                      
k_zero              : 3.5                                                       
elec_cg_max 0                                                                   
occ_mix 1.0                                                                     
dispersion 1                                                                    
maxit_ngwf_cg 40                                                                
minit_lnv 10                                                                    
maxit_lnv 10                                                                    
write_denskern T                                                                
write_tightbox_ngwfs T                                                          
charge 9                                                                        
is_implicit_solvent T                                                           
is_auto_solvation T                                                             
is_include_apolar T                                                             
is_smeared_ion_rep T                                                            
is_solvent_surf_tension 4.7624E-5 Ha/bohr**2                                    
is_apolar_scaling_factor 0.281075                                               
is_solvation_beta 1.3                                                           
is_density_threshold 0.00035                                                    
is_bulk_permittivity 78.54                                                      
is_dielectric_model fix_initial                                                 
is_smeared_ion_width 0.8                                                        
mg_defco_fd_order 8                                                             
is_bc_coarseness 10                                                             
is_bc_surface_coarseness 1                                                      
fine_grid_scale 2.0                                                             
%block species                                                                  
N   N   7 4 8.0                                                                 
H   H   1 1 8.0                                                                 
C   C   6 4 8.0                                                                 
S   S  16 9 8.0                                                                 
O   O   8 4 8.0                                                                 
%endblock species                                                               
%block species_pot                                                              
N   N_00.recpot                                                                 
H   H_04.recpot                                                                 
C   C_01.recpot                                                                 
S   S_00.recpot                                                                 
O   O_02.recpot                                                                 
%endblock species_pot                                                           
%block lattice_cart                                                             
137.614   0.000   0.000                                                         
0.000 142.646   0.000                                                           
0.000   0.000   160.855                                                         
%endblock lattice_cart                                                          
%block positions_abs                                                            
     Hash =   000002375384109201340822
%endblock positions_abs                                                         

--------------------------------------------------------------------------------
-------------------------------- END INPUT FILE --------------------------------
--------------------------------------------------------------------------------


 
 ESDF WARNING(1): "kernelcutoff" (esdf_physical) has no units. Assume "bohr".
 ESDF WARNING(2): "kzero" (esdf_physical) has no units. Assume "1/bohr".
 ESDF WARNING(3
 ): "issmearedionwidth" (esdf_physical) has no units. Assume "bohr".
<<<<<<<<<<<<<<<<<<<<<<<<<<<<<<<<< Full system >>>>>>>>>>>>>>>>>>>>>>>>>>>>>>>>>>
<<<<<<<<<<<<<<<<<<<<<<<<< Pseudopotential information >>>>>>>>>>>>>>>>>>>>>>>>>>
File: N_00.recpot [ 2001 points up to Gmax=  52.9 (1/bohr)]
  Atomic number:  7;  ionic charge:  5.000000
    Shell 1: l = 0; rc = 1.48 bohr
File: H_04.recpot [ 2001 points up to Gmax=  52.9 (1/bohr)]
  Atomic number:  1;  ionic charge:  1.000000
    Local potential
File: C_01.recpot [ 2001 points up to Gmax=  52.9 (1/bohr)]
  Atomic number:  6;  ionic charge:  4.000000
    Shell 1: l = 0; rc = 1.48 bohr
File: S_00.recpot [ 2001 points up to Gmax=  52.9 (1/bohr)]
  Atomic number: 16;  ionic charge:  6.000000
    Shell 1: l = 0; rc = 1.90 bohr
    Shell 2: l = 2; rc = 1.84 bohr
File: O_02.recpot [ 2001 points up to Gmax=  52.9 (1/bohr)]
  Atomic number:  8;  ionic charge:  6.000000
    Shell 1: l = 0; rc = 1.31 bohr
<<<<<<<<<<<<<<<<<<<<<<<<<<<<<<<<<<<<<<<<>>>>>>>>>>>>>>>>>>>>>>>>>>>>>>>>>>>>>>>>

-------------------------- Atom counting information ---------------------------
Symbol    Natoms    Nngwfs    Nprojs
  N        236       944       236
  H       1319      1319         0
  C        817      3268       817
  S          6        54        36
  O        240       960       240
.......   ......    ......    ......
Totals:   2618      6545      1329
--------------------------------------------------------------------------------

=============================== PSINC grid sizes ===============================
                      Simulation cell:  273 x 286 x 320
                              FFT-box:   99 x 105 x  99
                                  PPD:    7 x  11 x   1
Grid space d1=  0.504080586081a0 (KE cutoff=  29.89538Eh = 813.49465eV)
Grid space d2=  0.498762237762a0 (KE cutoff=  30.53633Eh = 830.93588eV)
Grid space d3=  0.502671875000a0 (KE cutoff=  30.06317Eh = 818.06059eV)
================================================================================

********************* Fourier parallelisation information **********************
       Coarse grid (whole simulation cell) dimensions:    273   286   320
          Real-space ('12') slabs/node (min max mean):     10    11    10
         Recip-space ('23') slabs/node (min max mean):      4     5     4
********************************************************************************

********************* Fourier parallelisation information **********************
       Double grid (whole simulation cell) dimensions:    546   572   640
          Real-space ('12') slabs/node (min max mean):     21    22    21
         Recip-space ('23') slabs/node (min max mean):      9    10     9
********************************************************************************
ONETEP fine grid is 546 x 572 x 640 gridpoints, 137.6140 x 142.6460 x 160.8550 bohr.
FD multigrid is     545 x 569 x 633 gridpoints, 137.3620 x 141.8979 x 159.0956 bohr.


Calculating local pseudopotential in open BC on a radial grid ...
Discrepancy between calculated realspace psloc and -Z/x on [5a0,255.264a0]:
max |rel. diff| # avg |rel. diff| #  avg rel. diff #  f # pseudopotential file
 0.000296759711    0.000009439468   0.000000085927   54  'N_00.recpot'
 0.000490027943    0.000021572324  -0.000000031900   54  'H_04.recpot'
 0.000320795249    0.000014598087   0.000000111901   54  'C_01.recpot'
 0.000388730920    0.000016096375   0.000000514750   54  'S_00.recpot'
 0.000828383344    0.000035421288   0.000000087443   54  'O_02.recpot'
... done

Atom SCF Calculation for N  : Z (AE atom) =   7 : Z (PS atom) =   5
Config String:
Orbitals (num,occ):  2     2.00 3.00
Orbitals   (num,l):  2        0    1
Real-space Grid (nr,dr,rmax): 1203    0.0066555740    8.0000000000
Spherical Bessel Basis (nsws,lmax,cutoff):   47    1  176.3951722778
Confining potential (l,width,scale):  0    3.0000000000  100.0000000000
Confining potential (l,width,scale):  1    3.0000000000  100.0000000000
  1         -4.7312375307   -3.4155304497    7.0523828109   -1.9351020946
  2         -9.7309464766   -2.0532547791    8.2966052865   -2.2494486027
  3         -9.6627394379   -2.1124926340    8.2327997121   -2.2369778124
  4         -9.6814993499   -2.1215521045    8.2229805960   -2.2365178421
  5         -9.6843326483   -2.1250939529    8.2191374534   -2.2362718126
  6         -9.6859628709   -2.1267894855    8.2172963573   -2.2362066344
  7         -9.6867347035   -2.1276425665    8.2163697352   -2.2361903369
  8         -9.6870802100   -2.1280764625    8.2158983890   -2.2361891460
  9         -9.6872290423   -2.1282977424    8.2156580222   -2.2361920435
 10         -9.6872901988   -2.1284107021    8.2155353368   -2.2361953393
 11         -9.6873135296   -2.1284684031    8.2154726809   -2.2361979819
 12         -9.6873212476   -2.1284978948    8.2154406648   -2.2361998431
 13         -9.6873229586   -2.1285129774    8.2154242957   -2.2362010676
 14         -9.6873226456   -2.1285206957    8.2154159216   -2.2362018403
 15         -9.6873218534   -2.1285246479    8.2154116349   -2.2362023142
 16         -9.6873212599   -2.1285262679    8.2154098784   -2.2362025420
 17         -9.6873207834   -2.1285272564    8.2154088068   -2.2362026955
 18         -9.6873204210   -2.1285278597    8.2154081529   -2.2362027982
 19         -9.6873201550   -2.1285282280    8.2154077538   -2.2362028667
 20         -9.6873199645   -2.1285284529    8.2154075102   -2.2362029121
 21         -9.6873198305   -2.1285285903    8.2154073614   -2.2362029421
 22         -9.6873197377   -2.1285286742    8.2154072705   -2.2362029618
Atom SCF converged after  22 iterations to a total energy of     -9.68731974

Atom SCF Calculation for H  : Z (AE atom) =   1 : Z (PS atom) =   1
Config String:
Orbitals (num,occ):  1     1.00
Orbitals   (num,l):  1        0
Real-space Grid (nr,dr,rmax): 1203    0.0066555740    8.0000000000
Spherical Bessel Basis (nsws,lmax,cutoff):   47    0  176.3951722778
Confining potential (l,width,scale):  0    3.0000000000  100.0000000000
  1         -0.3194257691   -0.2393854593    0.2820953124   -0.2424203209
  2         -0.3951823392   -0.2377116493    0.2886404059   -0.2475147891
  3         -0.4317044583   -0.2352244387    0.2921333887   -0.2514046172
  4         -0.4470703708   -0.2341892222    0.2934391879   -0.2531009782
  5         -0.4532132900   -0.2338556667    0.2938388426   -0.2537313520
  6         -0.4556579251   -0.2337612552    0.2939448584   -0.2539550462
  7         -0.4566418315   -0.2337377355    0.2939680120   -0.2540342273
  8         -0.4570437922   -0.2337331116    0.2939708287   -0.2540627372
  9         -0.4572102946   -0.2337328328    0.2939698291   -0.2540732650
 10         -0.4572800424   -0.2337332404    0.2939687193   -0.2540772588
 11         -0.4573095100   -0.2337335791    0.2939680317   -0.2540788122
 12         -0.4573220379   -0.2337337762    0.2939676699   -0.2540794294
 13         -0.4573273880   -0.2337338775    0.2939674931   -0.2540796787
 14         -0.4573296803   -0.2337339266    0.2939674099   -0.2540797808
 15         -0.4573306647   -0.2337339495    0.2939673718   -0.2540798230
 16         -0.4573310882   -0.2337339601    0.2939673545   -0.2540798406
 17         -0.4573312706   -0.2337339649    0.2939673467   -0.2540798479
 18         -0.4573313493   -0.2337339670    0.2939673433   -0.2540798510
Atom SCF converged after  18 iterations to a total energy of     -0.45733135

Atom SCF Calculation for C  : Z (AE atom) =   6 : Z (PS atom) =   4
Config String:
Orbitals (num,occ):  2     2.00 2.00
Orbitals   (num,l):  2        0    1
Real-space Grid (nr,dr,rmax): 1203    0.0066555740    8.0000000000
Spherical Bessel Basis (nsws,lmax,cutoff):   47    1  176.3951722778
Confining potential (l,width,scale):  0    3.0000000000  100.0000000000
Confining potential (l,width,scale):  1    3.0000000000  100.0000000000
  1         -5.2976922011   -1.3069684169    4.5135249990   -1.4493313817
  2         -5.3721716256   -1.3429755895    4.4750154450   -1.4361613026
  3         -5.3809959565   -1.3617365618    4.4541655428   -1.4305930207
  4         -5.3918938866   -1.3667928461    4.4484735100   -1.4294652294
  5         -5.3956096428   -1.3688539142    4.4461376126   -1.4290734646
  6         -5.3968271862   -1.3696852393    4.4451910874   -1.4289366866
  7         -5.3972028401   -1.3700178062    4.4448112275   -1.4288900460
  8         -5.3973067903   -1.3701500158    4.4446598370   -1.4288749220
  9         -5.3973286940   -1.3702023868    4.4445997329   -1.4288704293
 10         -5.3973289850   -1.3702230869    4.4445759233   -1.4288693188
 11         -5.3973254264   -1.3702312560    4.4445665049   -1.4288691775
 12         -5.3973224003   -1.3702344755    4.4445627836   -1.4288692549
 13         -5.3973208708   -1.3702354890    4.4445616088   -1.4288693270
 14         -5.3973198783   -1.3702360102    4.4445610034   -1.4288693814
 15         -5.3973192535   -1.3702362780    4.4445606917   -1.4288694190
 16         -5.3973188684   -1.3702364155    4.4445605313   -1.4288694437
 17         -5.3973186349   -1.3702364860    4.4445604489   -1.4288694595
 18         -5.3973184951   -1.3702365221    4.4445604065   -1.4288694693
 19         -5.3973184122   -1.3702365405    4.4445603848   -1.4288694753
Atom SCF converged after  19 iterations to a total energy of     -5.39731841

Atom SCF Calculation for S  : Z (AE atom) =  16 : Z (PS atom) =   6
Config String:
Orbitals (num,occ):  3     2.00 4.00 0.00
Orbitals   (num,l):  3        0    1    2
Real-space Grid (nr,dr,rmax): 1203    0.0066555740    8.0000000000
Spherical Bessel Basis (nsws,lmax,cutoff):   47    2  176.3951722778
Confining potential (l,width,scale):  0    3.0000000000  100.0000000000
Confining potential (l,width,scale):  1    3.0000000000  100.0000000000
Confining potential (l,width,scale):  2    3.0000000000  100.0000000000
  1        -12.4735062396   -1.0328741412   10.1554312477   -2.4512393157
  2         -9.9458301913   -2.4607392455    8.3041325857   -2.0306994528
  3        -10.1450417646   -2.2931184565    8.4831893826   -2.0812538287
  4        -10.1528335592   -2.2733105793    8.5050388867   -2.0896035179
  5        -10.1571940363   -2.2633716629    8.5160794258   -2.0939370707
  6        -10.1594380571   -2.2584938667    8.5215163935   -2.0961289008
  7        -10.1605856507   -2.2561081821    8.5241804044   -2.0972291378
  8        -10.1611799191   -2.2549395235    8.5254868240   -2.0977806248
  9        -10.1614918752   -2.2543658586    8.5261285885   -2.0980571586
 10        -10.1616572884   -2.2540839121    8.5264441898   -2.0981959233
 11        -10.1617455602   -2.2539453058    8.5265994231   -2.0982656006
 12        -10.1617928447   -2.2538772062    8.5266757320   -2.0983006047
 13        -10.1618182292   -2.2538437891    8.5267131983   -2.0983181961
 14        -10.1618318741   -2.2538274201    8.5267315620   -2.0983270391
 15        -10.1618392144   -2.2538194197    8.5267405433   -2.0983314852
 16        -10.1618431651   -2.2538155200    8.5267449245   -2.0983337210
 17        -10.1618452923   -2.2538136252    8.5267470551   -2.0983348455
 18        -10.1618464380   -2.2538127080    8.5267480875   -2.0983354110
 19        -10.1618470552   -2.2538122659    8.5267485856   -2.0983356955
 20        -10.1618473878   -2.2538120540    8.5267488248   -2.0983358386
 21        -10.1618475670   -2.2538119530    8.5267489389   -2.0983359106
 22        -10.1618476637   -2.2538119053    8.5267489929   -2.0983359468
Atom SCF converged after  22 iterations to a total energy of    -10.16184766

Atom SCF Calculation for O  : Z (AE atom) =   8 : Z (PS atom) =   6
Config String:
Orbitals (num,occ):  2     2.00 4.00
Orbitals   (num,l):  2        0    1
Real-space Grid (nr,dr,rmax): 1203    0.0066555740    8.0000000000
Spherical Bessel Basis (nsws,lmax,cutoff):   47    1  176.3951722778
Confining potential (l,width,scale):  0    3.0000000000  100.0000000000
Confining potential (l,width,scale):  1    3.0000000000  100.0000000000
  1         -1.8735052164   -7.5539365035   10.1554312477   -2.4512393157
  2        -16.0318313751   -3.1285771268   13.6395848164   -3.2358799643
  3        -15.9524020423   -3.0762819706   13.6967272503   -3.2536856837
  4        -15.8521515939   -3.0781493909   13.6951909330   -3.2561700440
  5        -15.8357139793   -3.0748501933   13.6988803334   -3.2580493133
  6        -15.8246052853   -3.0740779781   13.6997881576   -3.2588327446
  7        -15.8189019501   -3.0737449687   13.7001869911   -3.2592378801
  8        -15.8159785510   -3.0736026016   13.7003615168   -3.2594475790
  9        -15.8144776168   -3.0735437994   13.7004360379   -3.2595560735
 10        -15.8137058024   -3.0735207882   13.7004667348   -3.2596122456
 11        -15.8133083127   -3.0735125946   13.7004786868   -3.2596413656
 12        -15.8131032938   -3.0735102195   13.7004828997   -3.2596564858
 13        -15.8129973902   -3.0735099286   13.7004840891   -3.2596643505
 14        -15.8129426040   -3.0735102506   13.7004842061   -3.2596684489
 15        -15.8129142203   -3.0735106556   13.7004840157   -3.2596705887
 16        -15.8128994940   -3.0735109855   13.7004837906   -3.2596717080
 17        -15.8128918425   -3.0735112169   13.7004836103   -3.2596722946
 18        -15.8128878614   -3.0735113674   13.7004834848   -3.2596726026
 19        -15.8128857871   -3.0735114608   13.7004834035   -3.2596727646
 20        -15.8128847048   -3.0735115170   13.7004833533   -3.2596728500
 21        -15.8128841394   -3.0735115501   13.7004833231   -3.2596728951
 22        -15.8128838436   -3.0735115693   13.7004833054   -3.2596729190
 23        -15.8128836887   -3.0735115802   13.7004832951   -3.2596729316
 24        -15.8128836074   -3.0735115864   13.7004832893   -3.2596729383
Atom SCF converged after  24 iterations to a total energy of    -15.81288361

========================== Calculation in vacuum ==============================
= Adjusting the following parameters: 
= is_implicit_solvent: F
= is_include_apolar: F
= write_denskern: T
= write_tightbox_ngwfs: T
= restart read filename prefix: ""
= restart write filename prefix: "vacuum_"
===============================================================================

Determining parallel strategy ...
... using space-filling curve
... NGWF load balancing: max    219;  min    218;  average    218
... Projector load balancing: max     47;  min     43;  average     44
... done
Calculating direct Ion-Ion energy ...
Ion-Ion Energy        :    838773.24260480888188
======================= Empirical dispersion information =======================
Model : Elstner
Dispersion Correction Energy: -0.32976391E+01 Hartree
================================================================================
Basis initialisation ...... NGWF spheres initialised
... Projector spheres initialised
... NGWF tight boxes initialised
... Tight-boxes gathered
... NGWF basis size (local,global):    1306942  39193787
... Nonlocal pseudopotential projector initialisation
... done

========================== Sparse matrix information ===========================
                        Overlap matrix filling:   6.77%
                        Density kernel filling: 100.00%
              NGWF-Proj overlap matrix filling:   1.78%
                    Hamiltonian matrix filling:   7.67%
                  NGWF diagonal matrix filling:   0.05%
                             KS matrix filling: 100.00% 
                           KSKS matrix filling: 100.00% 
================================================================================

Sparse matrix initialisation ... done

Generating smeared ion density ... done
Smeared ion self correction:     -14534.963309
Smeared ion non-self correction: -838725.081144
NGWF initialisation ...... done
============ Calculation of NGWF S^-1 using Hotelling algorithm ================ 
         Iteration  |  Frobenius norm and Maximum abs value    (of I-S*S_n^-1)   
               1       0.78682707E+02     0.98233271E+00
               2       0.76799110E+02     0.96512535E+00
               3       0.73759279E+02     0.93200451E+00
               4       0.69455561E+02     0.87043608E+00
               5       0.64111222E+02     0.76487322E+00
               6       0.58118815E+02     0.70208480E+00
               7       0.52110509E+02     0.67196462E+00
               8       0.46555125E+02     0.64543963E+00
               9       0.40438438E+02     0.60254028E+00
              10       0.32092192E+02     0.53168033E+00
              11       0.21465236E+02     0.41970167E+00
              12       0.10885782E+02     0.26783020E+00
              13       0.35477592E+01     0.12255585E+00
              14       0.56044958E+00     0.32613127E-01
              15       0.29301181E-01     0.28682416E-02
              16       0.19344928E-03     0.24501582E-04
              17       0.13499910E-07     0.19146319E-08
              18       0.93096119E-13     0.68833828E-14
================================================================================
Calculating local pseudopotential in open BC on the fine real space grid ...
... done

MG BCs: +ve charge blocks (gridpoints):     20591 (   16227048).
MG BCs: -ve charge blocks (gridpoints):      8127 (    1101899).
MG BCs:     Elided blocks (gridpoints):    180049 (  178967518).
MG BCs: Computational effort saved:  99.9854%.
MG BCs: Charge after coarse-graining:           -9.0002284.
MG DL_MG: Calling solver with defect correction order = 8
MG DL_MG: Solver finished
MG Hartree energy from (\int phi*rho dr):              1471.894930
MG Hartree energy from (\int eps (grad phi)^2 dr):     1471.282168
MG Discrepancy due to finite box and discretization:     -0.612762 (  -0.04163%)
MG Correction to account for finite box:                  0.465229
MG Remaining discrepancy, due to discretization:         -0.147533 (  -0.01002%)
Up spin density kernel initialisation ... 
======= Optimisation of K by Palser-Manolopoulos canonical purification ======== 
         Iteration  |  Band structure energy |    c_n   
               1       -2599.89387759221881    0.5267610
               2       -2776.77330031596102    0.5169653
               3       -2957.92245032746632    0.5155175
               4       -3108.97759054451308    0.5295333
               5       -3201.59833255131707    0.5660461
               6       -3240.23988761244482    0.6108477
               7       -3253.43256646555164    0.6220214
               8       -3259.20813790799275    0.6209120
               9       -3262.00959870931183    0.6375898
              10       -3263.15793864686657    0.6661329
              11       -3263.60058129764184    0.6832739
              12       -3263.79813686199213    0.6907220
              13       -3263.89736048141913    0.6911751
              14       -3263.94958042258213    0.6545436
              15       -3263.98254532103692    0.5716292
              16       -3264.00497381807509    0.4803100
              17       -3264.01334954317144    0.4467753
              18       -3264.01418482343433    0.4536297
              19       -3264.01461943669165    0.4689756
              20       -3264.01474742753362    0.4925585
              21       -3264.01478135760317    0.4996835
              22       -3264.01480524575663    0.4999994
              23       -3264.01483722638568    0.5000000
              24       -3264.01487710409037    0.5000000
              25       -3264.01491695614823    0.5000000
              26       -3264.01494200876641    0.5000000
              27       -3264.01494836164147    0.5000000
              28       -3264.01494866651456    0.5000000
Termination criterion satisfied: band energy change below threshold.
Final occupancy bounds: [    0.00000000017444:    0.99999999999938]
Closest occupancy to 0.5:     0.99999999996106
================================================================================
... done

Writing density kernel to file "complex_28601.vacuum_dkn" ... done

>>> Optimising kernel for current NGWFs:
   Initial electron number for spin 1:    7234.00000000
     Final electron number for spin 1:    7234.00000000

=================== Penalty functional idempotency correction ==================
 RMS occupancy error at iteration   1:  0.000000 (step -0.5000 Ne1=   7234.0000)
            Final RMS occupancy error   :  0.000000 (Ne1=   7234.0000)
               Final occupancy bounds   : [  0.0000,  1.0000]
================================================================================

................................................................................
<<<<<<<<<<<<<< LNV (Original version) density kernel optimisation >>>>>>>>>>>>>>
~~~~~~~~~~~~~~~~~~~~~~~~~~~~~~~~~~~~~~~~~~~~~~~~~~~~~~~~~~~~~~~~~~~~~~~~~~~~~~~~
   iter  |      energy (Eh)       | rms gradient |  commutator  |   dE (Eh)
MG BCs: +ve charge blocks (gridpoints):     31268 (   17348069).
MG BCs: -ve charge blocks (gridpoints):      8471 (    1135588).
MG BCs:     Elided blocks (gridpoints):    169369 (  177812808).
MG BCs: Computational effort saved:  99.9798%.
MG BCs: Charge after coarse-graining:           -9.0009629.
MG DL_MG: Calling solver with defect correction order = 8
MG DL_MG: Solver finished
MG Hartree energy from (\int phi*rho dr):              1427.275088
MG Hartree energy from (\int eps (grad phi)^2 dr):     1426.609703
MG Discrepancy due to finite box and discretization:     -0.665385 (  -0.04662%)
MG Correction to account for finite box:                  0.476586
MG Remaining discrepancy, due to discretization:         -0.188800 (  -0.01323%)
      ideal mu1:      -0.702935540331
             Q0:  -11567.958098134142
             G0:    -146.541059949201
   RMS gradient:       0.001849566767
MG BCs: +ve charge blocks (gridpoints):     31253 (   17435652).
MG BCs: -ve charge blocks (gridpoints):      8352 (    1114675).
MG BCs:     Elided blocks (gridpoints):    169384 (  177746138).
MG BCs: Computational effort saved:  99.9798%.
MG BCs: Charge after coarse-graining:           -9.0009828.
MG DL_MG: Calling solver with defect correction order = 8
MG DL_MG: Solver finished
MG Hartree energy from (\int phi*rho dr):              1452.083754
MG Hartree energy from (\int eps (grad phi)^2 dr):     1451.434249
MG Discrepancy due to finite box and discretization:     -0.649506 (  -0.04473%)
MG Correction to account for finite box:                  0.476132
MG Remaining discrepancy, due to discretization:         -0.173374 (  -0.01194%)
     Trial step:       0.500000000000
             Q1:  -11579.735902462970
 Quadratic coef:      61.492725645772
 Linear coef   :     -73.270529974600
           Qmin:  -11589.784137337887
Quadratic minimum step length (  0.297882917065) accepted
    Initial Ne1:    7234.00000000
      Final Ne1:    7234.00000000

=================== Penalty functional idempotency correction ==================
 RMS occupancy error at iteration   1:  0.003459 (step -0.4882 Ne1=   7234.0000)
 RMS occupancy error at iteration   2:  0.000028 (step -0.5001 Ne1=   7234.0000)
            Final RMS occupancy error   :  0.000000 (Ne1=   7234.0000)
               Final occupancy bounds   : [  0.0000,  1.0000]
================================================================================

    1        -1.156795809813E+04     1.8496E-03     1.6734E-03
MG BCs: +ve charge blocks (gridpoints):     31259 (   17402099).
MG BCs: -ve charge blocks (gridpoints):      8401 (    1123368).
MG BCs:     Elided blocks (gridpoints):    169377 (  177770998).
MG BCs: Computational effort saved:  99.9798%.
MG BCs: Charge after coarse-graining:           -9.0009747.
MG DL_MG: Calling solver with defect correction order = 8
MG DL_MG: Solver finished
MG Hartree energy from (\int phi*rho dr):              1434.048659
MG Hartree energy from (\int eps (grad phi)^2 dr):     1433.393638
MG Discrepancy due to finite box and discretization:     -0.655021 (  -0.04568%)
MG Correction to account for finite box:                  0.476227
MG Remaining discrepancy, due to discretization:         -0.178793 (  -0.01247%)
      ideal mu1:      -0.746972225343
             Q0:  -11590.195993100642
             G0:     -12.294802941810
   RMS gradient:       0.000532091842
MG BCs: +ve charge blocks (gridpoints):     31265 (   17419970).
MG BCs: -ve charge blocks (gridpoints):      8374 (    1117936).
MG BCs:     Elided blocks (gridpoints):    169371 (  177758559).
MG BCs: Computational effort saved:  99.9798%.
MG BCs: Charge after coarse-graining:           -9.0009784.
MG DL_MG: Calling solver with defect correction order = 8
MG DL_MG: Solver finished
MG Hartree energy from (\int phi*rho dr):              1439.158984
MG Hartree energy from (\int eps (grad phi)^2 dr):     1438.507912
MG Discrepancy due to finite box and discretization:     -0.651072 (  -0.04524%)
MG Correction to account for finite box:                  0.475398
MG Remaining discrepancy, due to discretization:         -0.175674 (  -0.01221%)
     Trial step:       0.385929343964
             Q1:  -11593.079693673528
 Quadratic coef:       1.861224660615
 Linear coef   :      -4.744925233501
           Qmin:  -11593.220119627107
Quadratic minimum step length (  0.491935745661) accepted
    Initial Ne1:    7233.99988586
      Final Ne1:    7234.00000000

=================== Penalty functional idempotency correction ==================
 RMS occupancy error at iteration   1:  0.001834 (step -0.4929 Ne1=   7234.0000)
 RMS occupancy error at iteration   2:  0.000012 (step -0.5002 Ne1=   7234.0000)
            Final RMS occupancy error   :  0.000000 (Ne1=   7234.0000)
               Final occupancy bounds   : [  0.0000,  1.0000]
================================================================================

    2        -1.159019599310E+04     5.3209E-04     4.8141E-04    -2.2238E+01
MG BCs: +ve charge blocks (gridpoints):     31260 (   17424837).
MG BCs: -ve charge blocks (gridpoints):      8368 (    1116513).
MG BCs:     Elided blocks (gridpoints):    169376 (  177755115).
MG BCs: Computational effort saved:  99.9798%.
MG BCs: Charge after coarse-graining:           -9.0009794.
MG DL_MG: Calling solver with defect correction order = 8
MG DL_MG: Solver finished
MG Hartree energy from (\int phi*rho dr):              1440.614616
MG Hartree energy from (\int eps (grad phi)^2 dr):     1439.964557
MG Discrepancy due to finite box and discretization:     -0.650059 (  -0.04512%)
MG Correction to account for finite box:                  0.475181
MG Remaining discrepancy, due to discretization:         -0.174878 (  -0.01214%)
      ideal mu1:      -0.771348005567
             Q0:  -11593.257971707382
             G0:      -1.961350043269
   RMS gradient:       0.000212615949
MG BCs: +ve charge blocks (gridpoints):     31270 (   17424142).
MG BCs: -ve charge blocks (gridpoints):      8373 (    1117578).
MG BCs:     Elided blocks (gridpoints):    169366 (  177754745).
MG BCs: Computational effort saved:  99.9798%.
MG BCs: Charge after coarse-graining:           -9.0009790.
MG DL_MG: Calling solver with defect correction order = 8
MG DL_MG: Solver finished
MG Hartree energy from (\int phi*rho dr):              1438.447601
MG Hartree energy from (\int eps (grad phi)^2 dr):     1437.798147
MG Discrepancy due to finite box and discretization:     -0.649454 (  -0.04515%)
MG Correction to account for finite box:                  0.474791
MG Remaining discrepancy, due to discretization:         -0.174663 (  -0.01214%)
     Trial step:       0.435720598085
             Q1:  -11593.761600524071
 Quadratic coef:       0.350971797217
 Linear coef   :      -0.854600613907
           Qmin:  -11593.778200266401
Quadratic minimum step length (  0.530480074991) accepted
    Initial Ne1:    7233.99990519
      Final Ne1:    7234.00000000

=================== Penalty functional idempotency correction ==================
 RMS occupancy error at iteration   1:  0.000652 (step -0.4971 Ne1=   7234.0000)
 RMS occupancy error at iteration   2:  0.000003 (step -0.5000 Ne1=   7234.0000)
            Final RMS occupancy error   :  0.000000 (Ne1=   7234.0000)
               Final occupancy bounds   : [  0.0000,  1.0000]
================================================================================

    3        -1.159325797171E+04     2.1262E-04     1.9237E-04    -3.0620E+00
MG BCs: +ve charge blocks (gridpoints):     31271 (   17424017).
MG BCs: -ve charge blocks (gridpoints):      8376 (    1117766).
MG BCs:     Elided blocks (gridpoints):    169365 (  177754682).
MG BCs: Computational effort saved:  99.9798%.
MG BCs: Charge after coarse-graining:           -9.0009790.
MG DL_MG: Calling solver with defect correction order = 8
MG DL_MG: Solver finished
MG Hartree energy from (\int phi*rho dr):              1437.986052
MG Hartree energy from (\int eps (grad phi)^2 dr):     1437.336718
MG Discrepancy due to finite box and discretization:     -0.649334 (  -0.04516%)
MG Correction to account for finite box:                  0.474708
MG Remaining discrepancy, due to discretization:         -0.174627 (  -0.01214%)
      ideal mu1:      -0.772581397396
             Q0:  -11593.783179886290
             G0:      -0.541583940381
   RMS gradient:       0.000111845656
MG BCs: +ve charge blocks (gridpoints):     31271 (   17424913).
MG BCs: -ve charge blocks (gridpoints):      8369 (    1117540).
MG BCs:     Elided blocks (gridpoints):    169365 (  177754012).
MG BCs: Computational effort saved:  99.9798%.
MG BCs: Charge after coarse-graining:           -9.0009791.
MG DL_MG: Calling solver with defect correction order = 8
MG DL_MG: Solver finished
MG Hartree energy from (\int phi*rho dr):              1439.173858
MG Hartree energy from (\int eps (grad phi)^2 dr):     1438.524662
MG Discrepancy due to finite box and discretization:     -0.649196 (  -0.04511%)
MG Correction to account for finite box:                  0.474484
MG Remaining discrepancy, due to discretization:         -0.174711 (  -0.01214%)
     Trial step:       0.480771354749
             Q1:  -11593.919851548737
 Quadratic coef:       0.123706382281
 Linear coef   :      -0.260378044727
           Qmin:  -11593.920191261383
Quadratic minimum step length (  0.505965427984) accepted
    Initial Ne1:    7233.99997475
      Final Ne1:    7234.00000000

=================== Penalty functional idempotency correction ==================
 RMS occupancy error at iteration   1:  0.000317 (step -0.4957 Ne1=   7234.0000)
 RMS occupancy error at iteration   2:  0.000003 (step -0.5000 Ne1=   7234.0000)
            Final RMS occupancy error   :  0.000000 (Ne1=   7234.0000)
               Final occupancy bounds   : [  0.0000,  1.0000]
================================================================================

    4        -1.159378317989E+04     1.1185E-04     1.0119E-04    -5.2521E-01
MG BCs: +ve charge blocks (gridpoints):     31270 (   17424957).
MG BCs: -ve charge blocks (gridpoints):      8369 (    1117531).
MG BCs:     Elided blocks (gridpoints):    169366 (  177753977).
MG BCs: Computational effort saved:  99.9798%.
MG BCs: Charge after coarse-graining:           -9.0009791.
MG DL_MG: Calling solver with defect correction order = 8
MG DL_MG: Solver finished
MG Hartree energy from (\int phi*rho dr):              1439.236829
MG Hartree energy from (\int eps (grad phi)^2 dr):     1438.587640
MG Discrepancy due to finite box and discretization:     -0.649189 (  -0.04511%)
MG Correction to account for finite box:                  0.474473
MG Remaining discrepancy, due to discretization:         -0.174716 (  -0.01214%)
      ideal mu1:      -0.772978681881
             Q0:  -11593.920890194597
             G0:      -0.223925149373
   RMS gradient:       0.000072136286
MG BCs: +ve charge blocks (gridpoints):     31268 (   17425160).
MG BCs: -ve charge blocks (gridpoints):      8367 (    1117280).
MG BCs:     Elided blocks (gridpoints):    169368 (  177754025).
MG BCs: Computational effort saved:  99.9798%.
MG BCs: Charge after coarse-graining:           -9.0009792.
MG DL_MG: Calling solver with defect correction order = 8
MG DL_MG: Solver finished
MG Hartree energy from (\int phi*rho dr):              1439.754002
MG Hartree energy from (\int eps (grad phi)^2 dr):     1439.104695
MG Discrepancy due to finite box and discretization:     -0.649306 (  -0.04510%)
MG Correction to account for finite box:                  0.474429
MG Remaining discrepancy, due to discretization:         -0.174877 (  -0.01215%)
     Trial step:       0.493207546848
             Q1:  -11593.996222284157
 Quadratic coef:       0.035109484039
 Linear coef   :      -0.110441573600
           Qmin:  -11594.007742376514
Quadratic minimum step length (  0.775725122091) accepted
    Initial Ne1:    7233.99998278
      Final Ne1:    7234.00000000

=================== Penalty functional idempotency correction ==================
 RMS occupancy error at iteration   1:  0.000713 (step -0.4659 Ne1=   7234.0000)
 RMS occupancy error at iteration   2:  0.000017 (step -0.5000 Ne1=   7234.0000)
            Final RMS occupancy error   :  0.000000 (Ne1=   7234.0000)
               Final occupancy bounds   : [  0.0000,  1.0000]
================================================================================

    5        -1.159392089019E+04     7.2136E-05     6.5266E-05    -1.3771E-01
MG BCs: +ve charge blocks (gridpoints):     31263 (   17425308).
MG BCs: -ve charge blocks (gridpoints):      8369 (    1117160).
MG BCs:     Elided blocks (gridpoints):    169373 (  177753997).
MG BCs: Computational effort saved:  99.9798%.
MG BCs: Charge after coarse-graining:           -9.0009791.
MG DL_MG: Calling solver with defect correction order = 8
MG DL_MG: Solver finished
MG Hartree energy from (\int phi*rho dr):              1440.047843
MG Hartree energy from (\int eps (grad phi)^2 dr):     1439.398465
MG Discrepancy due to finite box and discretization:     -0.649378 (  -0.04509%)
MG Correction to account for finite box:                  0.474409
MG Remaining discrepancy, due to discretization:         -0.174969 (  -0.01215%)
      ideal mu1:      -0.772990956425
             Q0:  -11594.005838131183
             G0:      -0.255363800329
   RMS gradient:       0.000078356206
MG BCs: +ve charge blocks (gridpoints):     31272 (   17424518).
MG BCs: -ve charge blocks (gridpoints):      8370 (    1117684).
MG BCs:     Elided blocks (gridpoints):    169364 (  177754263).
MG BCs: Computational effort saved:  99.9798%.
MG BCs: Charge after coarse-graining:           -9.0009789.
MG DL_MG: Calling solver with defect correction order = 8
MG DL_MG: Solver finished
MG Hartree energy from (\int phi*rho dr):              1438.488852
MG Hartree energy from (\int eps (grad phi)^2 dr):     1437.839374
MG Discrepancy due to finite box and discretization:     -0.649479 (  -0.04515%)
MG Correction to account for finite box:                  0.474509
MG Remaining discrepancy, due to discretization:         -0.174970 (  -0.01216%)
     Trial step:       0.618541416960
             Q1:  -11594.117884453037
 Quadratic coef:       0.045906765043
 Linear coef   :      -0.157953086896
           Qmin:  -11594.141706873168
Quadratic minimum step length (  1.064119047498) accepted
    Initial Ne1:    7233.99991386
      Final Ne1:    7234.00000000

=================== Penalty functional idempotency correction ==================
 RMS occupancy error at iteration   1:  0.005281 (step -0.3127 Ne1=   7234.0000)
 RMS occupancy error at iteration   2:  0.000222 (step -0.4983 Ne1=   7234.0000)
 RMS occupancy error at iteration   3:  0.000001 (step -0.5000 Ne1=   7234.0000)
            Final RMS occupancy error   :  0.000000 (Ne1=   7234.0000)
               Final occupancy bounds   : [  0.0000,  1.0000]
================================================================================

    6        -1.159400583813E+04     7.8356E-05     7.0893E-05    -8.4948E-02
MG BCs: +ve charge blocks (gridpoints):     31276 (   17423968).
MG BCs: -ve charge blocks (gridpoints):      8373 (    1118098).
MG BCs:     Elided blocks (gridpoints):    169360 (  177754399).
MG BCs: Computational effort saved:  99.9798%.
MG BCs: Charge after coarse-graining:           -9.0009787.
MG DL_MG: Calling solver with defect correction order = 8
MG DL_MG: Solver finished
MG Hartree energy from (\int phi*rho dr):              1437.407058
MG Hartree energy from (\int eps (grad phi)^2 dr):     1436.757538
MG Discrepancy due to finite box and discretization:     -0.649520 (  -0.04519%)
MG Correction to account for finite box:                  0.474547
MG Remaining discrepancy, due to discretization:         -0.174973 (  -0.01217%)
      ideal mu1:      -0.772603521134
             Q0:  -11594.116532688146
             G0:      -0.410435231197
   RMS gradient:       0.000097884216
MG BCs: +ve charge blocks (gridpoints):     31263 (   17426160).
MG BCs: -ve charge blocks (gridpoints):      8366 (    1116996).
MG BCs:     Elided blocks (gridpoints):    169373 (  177753309).
MG BCs: Computational effort saved:  99.9798%.
MG BCs: Charge after coarse-graining:           -9.0009796.
MG DL_MG: Calling solver with defect correction order = 8
MG DL_MG: Solver finished
MG Hartree energy from (\int phi*rho dr):              1439.892726
MG Hartree energy from (\int eps (grad phi)^2 dr):     1439.243389
MG Discrepancy due to finite box and discretization:     -0.649338 (  -0.04510%)
MG Correction to account for finite box:                  0.474684
MG Remaining discrepancy, due to discretization:         -0.174654 (  -0.01213%)
     Trial step:       0.811296310514
             Q1:  -11594.238670598133
 Quadratic coef:       0.210846678787
 Linear coef   :      -0.332984588775
           Qmin:  -11594.248001128863
Quadratic minimum step length (  0.640629413482) accepted
    Initial Ne1:    7234.00000000
      Final Ne1:    7234.00000000

=================== Penalty functional idempotency correction ==================
 RMS occupancy error at iteration   1:  0.000238 (step -0.4822 Ne1=   7234.0000)
 RMS occupancy error at iteration   2:  0.000002 (step -0.5000 Ne1=   7234.0000)
            Final RMS occupancy error   :  0.000000 (Ne1=   7234.0000)
               Final occupancy bounds   : [  0.0000,  1.0000]
================================================================================

    7        -1.159411653269E+04     9.7884E-05     8.8561E-05    -1.1069E-01
MG BCs: +ve charge blocks (gridpoints):     31265 (   17425706).
MG BCs: -ve charge blocks (gridpoints):      8365 (    1117228).
MG BCs:     Elided blocks (gridpoints):    169371 (  177753531).
MG BCs: Computational effort saved:  99.9798%.
MG BCs: Charge after coarse-graining:           -9.0009794.
MG DL_MG: Calling solver with defect correction order = 8
MG DL_MG: Solver finished
MG Hartree energy from (\int phi*rho dr):              1439.367471
MG Hartree energy from (\int eps (grad phi)^2 dr):     1438.718098
MG Discrepancy due to finite box and discretization:     -0.649372 (  -0.04512%)
MG Correction to account for finite box:                  0.474652
MG Remaining discrepancy, due to discretization:         -0.174720 (  -0.01214%)
      ideal mu1:      -0.773665435413
             Q0:  -11594.248354362673
             G0:      -0.261387183276
   RMS gradient:       0.000078058042
MG BCs: +ve charge blocks (gridpoints):     31267 (   17425697).
MG BCs: -ve charge blocks (gridpoints):      8366 (    1117099).
MG BCs:     Elided blocks (gridpoints):    169369 (  177753669).
MG BCs: Computational effort saved:  99.9798%.
MG BCs: Charge after coarse-graining:           -9.0009794.
MG DL_MG: Calling solver with defect correction order = 8
MG DL_MG: Solver finished
MG Hartree energy from (\int phi*rho dr):              1439.356732
MG Hartree energy from (\int eps (grad phi)^2 dr):     1438.707166
MG Discrepancy due to finite box and discretization:     -0.649566 (  -0.04513%)
MG Correction to account for finite box:                  0.474983
MG Remaining discrepancy, due to discretization:         -0.174583 (  -0.01213%)
     Trial step:       0.720930148880
             Q1:  -11594.334398453822
 Quadratic coef:       0.102397809806
 Linear coef   :      -0.188441900955
           Qmin:  -11594.335051407519
Quadratic minimum step length (  0.663361101027) accepted
    Initial Ne1:    7233.99999946
      Final Ne1:    7234.00000000

=================== Penalty functional idempotency correction ==================
 RMS occupancy error at iteration   1:  0.000920 (step -0.4368 Ne1=   7234.0000)
 RMS occupancy error at iteration   2:  0.000023 (step -0.4990 Ne1=   7234.0000)
            Final RMS occupancy error   :  0.000000 (Ne1=   7234.0000)
               Final occupancy bounds   : [ -0.0000,  1.0000]
================================================================================

    8        -1.159424835436E+04     7.8058E-05     7.0623E-05    -1.3182E-01
MG BCs: +ve charge blocks (gridpoints):     31266 (   17425689).
MG BCs: -ve charge blocks (gridpoints):      8365 (    1117093).
MG BCs:     Elided blocks (gridpoints):    169370 (  177753683).
MG BCs: Computational effort saved:  99.9798%.
MG BCs: Charge after coarse-graining:           -9.0009794.
MG DL_MG: Calling solver with defect correction order = 8
MG DL_MG: Solver finished
MG Hartree energy from (\int phi*rho dr):              1439.357099
MG Hartree energy from (\int eps (grad phi)^2 dr):     1438.707550
MG Discrepancy due to finite box and discretization:     -0.649549 (  -0.04513%)
MG Correction to account for finite box:                  0.474955
MG Remaining discrepancy, due to discretization:         -0.174594 (  -0.01213%)
      ideal mu1:      -0.772992026781
             Q0:  -11594.335875163437
             G0:      -0.148962539401
   RMS gradient:       0.000058437927
MG BCs: +ve charge blocks (gridpoints):     31266 (   17425018).
MG BCs: -ve charge blocks (gridpoints):      8369 (    1117550).
MG BCs:     Elided blocks (gridpoints):    169370 (  177753897).
MG BCs: Computational effort saved:  99.9798%.
MG BCs: Charge after coarse-graining:           -9.0009792.
MG DL_MG: Calling solver with defect correction order = 8
MG DL_MG: Solver finished
MG Hartree energy from (\int phi*rho dr):              1438.439150
MG Hartree energy from (\int eps (grad phi)^2 dr):     1437.789416
MG Discrepancy due to finite box and discretization:     -0.649734 (  -0.04517%)
MG Correction to account for finite box:                  0.475175
MG Remaining discrepancy, due to discretization:         -0.174559 (  -0.01214%)
     Trial step:       0.691546829452
             Q1:  -11594.385639912100
 Quadratic coef:       0.053249823168
 Linear coef   :      -0.103014571830
           Qmin:  -11594.385696934562
Quadratic minimum step length (  0.668916780358) accepted
    Initial Ne1:    7234.00038499
      Final Ne1:    7234.00000000

=================== Penalty functional idempotency correction ==================
 RMS occupancy error at iteration   1:  0.001311 (step -0.4164 Ne1=   7234.0000)
 RMS occupancy error at iteration   2:  0.000046 (step -0.4977 Ne1=   7234.0000)
            Final RMS occupancy error   :  0.000000 (Ne1=   7234.0000)
               Final occupancy bounds   : [ -0.0000,  1.0000]
================================================================================

    9        -1.159433587516E+04     5.8438E-05     5.2872E-05    -8.7521E-02
MG BCs: +ve charge blocks (gridpoints):     31265 (   17425032).
MG BCs: -ve charge blocks (gridpoints):      8368 (    1117535).
MG BCs:     Elided blocks (gridpoints):    169371 (  177753898).
MG BCs: Computational effort saved:  99.9798%.
MG BCs: Charge after coarse-graining:           -9.0009792.
MG DL_MG: Calling solver with defect correction order = 8
MG DL_MG: Solver finished
MG Hartree energy from (\int phi*rho dr):              1438.469837
MG Hartree energy from (\int eps (grad phi)^2 dr):     1437.820104
MG Discrepancy due to finite box and discretization:     -0.649733 (  -0.04517%)
MG Correction to account for finite box:                  0.475174
MG Remaining discrepancy, due to discretization:         -0.174560 (  -0.01214%)
      ideal mu1:      -0.772033342044
   10        -1.159438715759E+04     4.2900E-05     3.8814E-05    -5.1282E-02
Finished density kernel iterations (  10)

Writing density kernel to file "complex_28601.vacuum_dkn" ... done


>>> Density kernel optimised for the current NGWF basis:
     ~~~~~~~~~~~~~~~~~~~~~~~~~~~~~~~~~~~~~~~~~~~~~~~~~~~~~~~~~~~
     Total energy                =  -1.15943871575891E+04  Eh
     Estimated bandgap           =  -4.3217E-01  Eh
     RMS occupancy error         =   1.3028E-07
     [H,K] commutator            =   3.8814E-05
     Occupancy bounds            = [ -0.000:  1.000]
     ~~~~~~~~~~~~~~~~~~~~~~~~~~~~~~~~~~~~~~~~~~~~~~~~~~~~~~~~~~~




################################################################################
########################### NGWF CG iteration  001 #############################
################################################################################
****** Reciprocal space K.E. preconditioning with k_zero =  3.5000 a0^-1 *******

>>> Checking for convergence of NGWFs:   NOT CONVERGED
  ========================================================================
         NGWF RMS gradient =  1.5603E-03 >  2.0000E-06  | above tolerance
  ========================================================================

>>> Improving NGWFs using line search:
============ Calculation of NGWF S^-1 using Hotelling algorithm ================ 
         Iteration  |  Frobenius norm and Maximum abs value    (of I-S*S_n^-1)   
               1       0.19153385E+00     0.50142599E-02
               2       0.84538347E-03     0.39694992E-04
               3       0.28897720E-07     0.25846127E-08
               4       0.13819064E-12     0.79936058E-14
================================================================================
MG BCs: +ve charge blocks (gridpoints):     30798 (   17371662).
MG BCs: -ve charge blocks (gridpoints):      8382 (    1117477).
MG BCs:     Elided blocks (gridpoints):    169841 (  177807326).
MG BCs: Computational effort saved:  99.9800%.
MG BCs: Charge after coarse-graining:           -9.0009820.
MG DL_MG: Calling solver with defect correction order = 8
MG DL_MG: Solver finished
MG Hartree energy from (\int phi*rho dr):              1407.063434
MG Hartree energy from (\int eps (grad phi)^2 dr):     1406.414364
MG Discrepancy due to finite box and discretization:     -0.649071 (  -0.04613%)
MG Correction to account for finite box:                  0.475091
MG Remaining discrepancy, due to discretization:         -0.173980 (  -0.01236%)
============ Calculation of NGWF S^-1 using Hotelling algorithm ================ 
         Iteration  |  Frobenius norm and Maximum abs value    (of I-S*S_n^-1)   
               1       0.18506206E+01     0.41792372E-01
               2       0.70869017E-01     0.25343669E-02
               3       0.14253686E-03     0.11634418E-04
               4       0.12882136E-08     0.27020528E-09
               5       0.11604768E-12     0.51070259E-14
================================================================================
------------------------------- NGWF line search -------------------------------
RMS gradient                =       0.00156028930980
Trial step length           =               0.122474
Gradient along search dir.  =       -270.39606255404
Functional at step 0        =  -11594.38715758908074
Functional at step 1        =  -11625.02377754519694
Functional predicted        =  -11704.94268627498241
Selected quadratic step     =               0.817730
--------------------------- NGWF line search finished --------------------------
                                               
Writing NGWFs to file "complex_28601.vacuum_tightbox_ngwfs"....  done

>>> Optimising kernel for current NGWFs:
   Initial electron number for spin 1:    7268.17604470
     Final electron number for spin 1:    7234.00000000

=================== Penalty functional idempotency correction ==================
 RMS occupancy error at iteration   1:  0.004186 (step -0.4866 Ne1=   7234.0000)
 RMS occupancy error at iteration   2:  0.000067 (step -0.5003 Ne1=   7234.0000)
            Final RMS occupancy error   :  0.000000 (Ne1=   7234.0000)
               Final occupancy bounds   : [  0.0000,  1.0000]
================================================================================

................................................................................
<<<<<<<<<<<<<< LNV (Original version) density kernel optimisation >>>>>>>>>>>>>>
~~~~~~~~~~~~~~~~~~~~~~~~~~~~~~~~~~~~~~~~~~~~~~~~~~~~~~~~~~~~~~~~~~~~~~~~~~~~~~~~
   iter  |      energy (Eh)       | rms gradient |  commutator  |   dE (Eh)
MG BCs: +ve charge blocks (gridpoints):     24746 (   17096878).
MG BCs: -ve charge blocks (gridpoints):      8593 (    1101490).
MG BCs:     Elided blocks (gridpoints):    175894 (  178098097).
MG BCs: Computational effort saved:  99.9830%.
MG BCs: Charge after coarse-graining:           -9.0006616.
MG DL_MG: Calling solver with defect correction order = 8
MG DL_MG: Solver finished
MG Hartree energy from (\int phi*rho dr):              1251.184401
MG Hartree energy from (\int eps (grad phi)^2 dr):     1250.534721
MG Discrepancy due to finite box and discretization:     -0.649680 (  -0.05193%)
MG Correction to account for finite box:                  0.474705
MG Remaining discrepancy, due to discretization:         -0.174975 (  -0.01398%)
      ideal mu1:      -0.711559916944
             Q0:  -11704.128651853534
             G0:     -10.079240429093
   RMS gradient:       0.000485069817
MG BCs: +ve charge blocks (gridpoints):     24797 (   17110601).
MG BCs: -ve charge blocks (gridpoints):      8577 (    1098147).
MG BCs:     Elided blocks (gridpoints):    175843 (  178087717).
MG BCs: Computational effort saved:  99.9830%.
MG BCs: Charge after coarse-graining:           -9.0006578.
MG DL_MG: Calling solver with defect correction order = 8
MG DL_MG: Solver finished
MG Hartree energy from (\int phi*rho dr):              1265.830936
MG Hartree energy from (\int eps (grad phi)^2 dr):     1265.176902
MG Discrepancy due to finite box and discretization:     -0.654034 (  -0.05167%)
MG Correction to account for finite box:                  0.473579
MG Remaining discrepancy, due to discretization:         -0.180454 (  -0.01426%)
     Trial step:       0.680137690930
             Q1:  -11703.895185619360
 Quadratic coef:       7.088737545948
 Linear coef   :      -6.855271311774
           Qmin:  -11705.786025414533
Quadratic minimum step length (  0.328868742175) accepted
    Initial Ne1:    7233.99962554
      Final Ne1:    7234.00000000

=================== Penalty functional idempotency correction ==================
 RMS occupancy error at iteration   1:  0.000359 (step -0.4986 Ne1=   7234.0000)
 RMS occupancy error at iteration   2:  0.000000 (step -0.5000 Ne1=   7234.0000)
            Final RMS occupancy error   :  0.000000 (Ne1=   7234.0000)
               Final occupancy bounds   : [  0.0000,  1.0000]
================================================================================

    1        -1.170412865185E+04     4.8507E-04     4.3887E-04
MG BCs: +ve charge blocks (gridpoints):     24766 (   17103487).
MG BCs: -ve charge blocks (gridpoints):      8587 (    1100015).
MG BCs:     Elided blocks (gridpoints):    175874 (  178092963).
MG BCs: Computational effort saved:  99.9830%.
MG BCs: Charge after coarse-graining:           -9.0006597.
MG DL_MG: Calling solver with defect correction order = 8
MG DL_MG: Solver finished
MG Hartree energy from (\int phi*rho dr):              1257.381007
MG Hartree energy from (\int eps (grad phi)^2 dr):     1256.729320
MG Discrepancy due to finite box and discretization:     -0.651687 (  -0.05183%)
MG Correction to account for finite box:                  0.474132
MG Remaining discrepancy, due to discretization:         -0.177555 (  -0.01412%)
      ideal mu1:      -0.717702232256
             Q0:  -11705.763636347489
             G0:      -0.999757374174
   RMS gradient:       0.000153275468
MG BCs: +ve charge blocks (gridpoints):     24769 (   17103382).
MG BCs: -ve charge blocks (gridpoints):      8584 (    1100751).
MG BCs:     Elided blocks (gridpoints):    175871 (  178092332).
MG BCs: Computational effort saved:  99.9830%.
MG BCs: Charge after coarse-graining:           -9.0006595.
MG DL_MG: Calling solver with defect correction order = 8
MG DL_MG: Solver finished
MG Hartree energy from (\int phi*rho dr):              1258.480568
MG Hartree energy from (\int eps (grad phi)^2 dr):     1257.828706
MG Discrepancy due to finite box and discretization:     -0.651863 (  -0.05180%)
MG Correction to account for finite box:                  0.473939
MG Remaining discrepancy, due to discretization:         -0.177923 (  -0.01414%)
     Trial step:       0.472943999774
             Q1:  -11705.975780869019
 Quadratic coef:       0.260684729814
 Linear coef   :      -0.472829251345
           Qmin:  -11705.978040448841
Quadratic minimum step length (  0.428912267897) accepted
    Initial Ne1:    7233.99995123
      Final Ne1:    7234.00000000

=================== Penalty functional idempotency correction ==================
 RMS occupancy error at iteration   1:  0.000147 (step -0.4994 Ne1=   7234.0000)
            Final RMS occupancy error   :  0.000000 (Ne1=   7234.0000)
               Final occupancy bounds   : [ -0.0000,  1.0000]
================================================================================

    2        -1.170576363635E+04     1.5328E-04     1.3868E-04    -1.6350E+00
MG BCs: +ve charge blocks (gridpoints):     24769 (   17103383).
MG BCs: -ve charge blocks (gridpoints):      8584 (    1100702).
MG BCs:     Elided blocks (gridpoints):    175871 (  178092380).
MG BCs: Computational effort saved:  99.9830%.
MG BCs: Charge after coarse-graining:           -9.0006595.
MG DL_MG: Calling solver with defect correction order = 8
MG DL_MG: Solver finished
MG Hartree energy from (\int phi*rho dr):              1258.378228
MG Hartree energy from (\int eps (grad phi)^2 dr):     1257.726382
MG Discrepancy due to finite box and discretization:     -0.651845 (  -0.05180%)
MG Correction to account for finite box:                  0.473957
MG Remaining discrepancy, due to discretization:         -0.177888 (  -0.01414%)
      ideal mu1:      -0.718670981078
             Q0:  -11705.978477938799
             G0:      -0.162383340503
   RMS gradient:       0.000061504723
MG BCs: +ve charge blocks (gridpoints):     24769 (   17102721).
MG BCs: -ve charge blocks (gridpoints):      8588 (    1101106).
MG BCs:     Elided blocks (gridpoints):    175871 (  178092638).
MG BCs: Computational effort saved:  99.9830%.
MG BCs: Charge after coarse-graining:           -9.0006596.
MG DL_MG: Calling solver with defect correction order = 8
MG DL_MG: Solver finished
MG Hartree energy from (\int phi*rho dr):              1257.930532
MG Hartree energy from (\int eps (grad phi)^2 dr):     1257.278849
MG Discrepancy due to finite box and discretization:     -0.651684 (  -0.05181%)
MG Correction to account for finite box:                  0.473809
MG Remaining discrepancy, due to discretization:         -0.177875 (  -0.01414%)
     Trial step:       0.450390367938
             Q1:  -11706.028902994934
 Quadratic coef:       0.022710836342
 Linear coef   :      -0.073135892476
           Qmin:  -11706.037357967345
Quadratic minimum step length (  0.725197897307) accepted
    Initial Ne1:    7234.00099627
      Final Ne1:    7234.00000000

=================== Penalty functional idempotency correction ==================
 RMS occupancy error at iteration   1:  0.000116 (step -0.4966 Ne1=   7234.0000)
 RMS occupancy error at iteration   2:  0.000001 (step -0.5000 Ne1=   7234.0000)
            Final RMS occupancy error   :  0.000000 (Ne1=   7234.0000)
               Final occupancy bounds   : [  0.0000,  1.0000]
================================================================================

    3        -1.170597847794E+04     6.1505E-05     5.5647E-05    -2.1484E-01
MG BCs: +ve charge blocks (gridpoints):     24769 (   17102397).
MG BCs: -ve charge blocks (gridpoints):      8589 (    1101328).
MG BCs:     Elided blocks (gridpoints):    175871 (  178092740).
MG BCs: Computational effort saved:  99.9830%.
MG BCs: Charge after coarse-graining:           -9.0006596.
MG DL_MG: Calling solver with defect correction order = 8
MG DL_MG: Solver finished
MG Hartree energy from (\int phi*rho dr):              1257.657238
MG Hartree energy from (\int eps (grad phi)^2 dr):     1257.005655
MG Discrepancy due to finite box and discretization:     -0.651583 (  -0.05181%)
MG Correction to account for finite box:                  0.473716
MG Remaining discrepancy, due to discretization:         -0.177867 (  -0.01414%)
      ideal mu1:      -0.717780508097
             Q0:  -11706.037444717251
             G0:      -0.060824463490
   RMS gradient:       0.000037637077
MG BCs: +ve charge blocks (gridpoints):     24769 (   17102209).
MG BCs: -ve charge blocks (gridpoints):      8589 (    1101380).
MG BCs:     Elided blocks (gridpoints):    175871 (  178092876).
MG BCs: Computational effort saved:  99.9830%.
MG BCs: Charge after coarse-graining:           -9.0006596.
MG DL_MG: Calling solver with defect correction order = 8
MG DL_MG: Solver finished
MG Hartree energy from (\int phi*rho dr):              1257.634360
MG Hartree energy from (\int eps (grad phi)^2 dr):     1256.983034
MG Discrepancy due to finite box and discretization:     -0.651326 (  -0.05179%)
MG Correction to account for finite box:                  0.473580
MG Remaining discrepancy, due to discretization:         -0.177746 (  -0.01413%)
     Trial step:       0.571508659423
             Q1:  -11706.058448684518
 Quadratic coef:       0.013757740322
 Linear coef   :      -0.034761707589
           Qmin:  -11706.059402834759
Quadratic minimum step length (  0.722015986583) accepted
    Initial Ne1:    7234.00037140
      Final Ne1:    7234.00000000

=================== Penalty functional idempotency correction ==================
 RMS occupancy error at iteration   1:  0.000173 (step -0.4903 Ne1=   7234.0000)
 RMS occupancy error at iteration   2:  0.000001 (step -0.5000 Ne1=   7234.0000)
            Final RMS occupancy error   :  0.000000 (Ne1=   7234.0000)
               Final occupancy bounds   : [  0.0000,  1.0000]
================================================================================

    4        -1.170603744472E+04     3.7637E-05     3.4052E-05    -5.8967E-02
MG BCs: +ve charge blocks (gridpoints):     24769 (   17102189).
MG BCs: -ve charge blocks (gridpoints):      8589 (    1101397).
MG BCs:     Elided blocks (gridpoints):    175871 (  178092879).
MG BCs: Computational effort saved:  99.9830%.
MG BCs: Charge after coarse-graining:           -9.0006596.
MG DL_MG: Calling solver with defect correction order = 8
MG DL_MG: Solver finished
MG Hartree energy from (\int phi*rho dr):              1257.628998
MG Hartree energy from (\int eps (grad phi)^2 dr):     1256.977742
MG Discrepancy due to finite box and discretization:     -0.651256 (  -0.05178%)
MG Correction to account for finite box:                  0.473542
MG Remaining discrepancy, due to discretization:         -0.177715 (  -0.01413%)
      ideal mu1:      -0.718006238350
             Q0:  -11706.059371533338
             G0:      -0.056155707966
   RMS gradient:       0.000036238161
MG BCs: +ve charge blocks (gridpoints):     24769 (   17103367).
MG BCs: -ve charge blocks (gridpoints):      8586 (    1101024).
MG BCs:     Elided blocks (gridpoints):    175871 (  178092074).
MG BCs: Computational effort saved:  99.9830%.
MG BCs: Charge after coarse-graining:           -9.0006593.
MG DL_MG: Calling solver with defect correction order = 8
MG DL_MG: Solver finished
MG Hartree energy from (\int phi*rho dr):              1258.354222
MG Hartree energy from (\int eps (grad phi)^2 dr):     1257.703362
MG Discrepancy due to finite box and discretization:     -0.650860 (  -0.05172%)
MG Correction to account for finite box:                  0.473219
MG Remaining discrepancy, due to discretization:         -0.177641 (  -0.01412%)
     Trial step:       0.642369355258
             Q1:  -11706.083930011257
 Quadratic coef:       0.011514228001
 Linear coef   :      -0.036072705920
           Qmin:  -11706.087624406919
Quadratic minimum step length (  1.006233368062) accepted
    Initial Ne1:    7234.00047965
      Final Ne1:    7234.00000000

=================== Penalty functional idempotency correction ==================
 RMS occupancy error at iteration   1:  0.000895 (step -0.4485 Ne1=   7234.0000)
 RMS occupancy error at iteration   2:  0.000020 (step -0.4995 Ne1=   7234.0000)
            Final RMS occupancy error   :  0.000000 (Ne1=   7234.0000)
               Final occupancy bounds   : [ -0.0000,  1.0000]
================================================================================

    5        -1.170605937153E+04     3.6238E-05     3.2787E-05    -2.1927E-02
MG BCs: +ve charge blocks (gridpoints):     24769 (   17104035).
MG BCs: -ve charge blocks (gridpoints):      8586 (    1100797).
MG BCs:     Elided blocks (gridpoints):    175871 (  178091633).
MG BCs: Computational effort saved:  99.9830%.
MG BCs: Charge after coarse-graining:           -9.0006592.
MG DL_MG: Calling solver with defect correction order = 8
MG DL_MG: Solver finished
MG Hartree energy from (\int phi*rho dr):              1258.766655
MG Hartree energy from (\int eps (grad phi)^2 dr):     1258.116025
MG Discrepancy due to finite box and discretization:     -0.650630 (  -0.05169%)
MG Correction to account for finite box:                  0.473031
MG Remaining discrepancy, due to discretization:         -0.177599 (  -0.01411%)
      ideal mu1:      -0.719363390790
             Q0:  -11706.086637634435
             G0:      -0.079396681685
   RMS gradient:       0.000043698536
MG BCs: +ve charge blocks (gridpoints):     24772 (   17104340).
MG BCs: -ve charge blocks (gridpoints):      8589 (    1100797).
MG BCs:     Elided blocks (gridpoints):    175868 (  178091328).
MG BCs: Computational effort saved:  99.9830%.
MG BCs: Charge after coarse-graining:           -9.0006591.
MG DL_MG: Calling solver with defect correction order = 8
MG DL_MG: Solver finished
MG Hartree energy from (\int phi*rho dr):              1258.740486
MG Hartree energy from (\int eps (grad phi)^2 dr):     1258.090749
MG Discrepancy due to finite box and discretization:     -0.649737 (  -0.05162%)
MG Correction to account for finite box:                  0.472154
MG Remaining discrepancy, due to discretization:         -0.177583 (  -0.01411%)
     Trial step:       0.803973556705
             Q1:  -11706.127680555335
 Quadratic coef:       0.022789911663
 Linear coef   :      -0.063832832565
           Qmin:  -11706.131335378039
Quadratic minimum step length (  1.125934803730) accepted
    Initial Ne1:    7234.00105069
      Final Ne1:    7234.00000000

=================== Penalty functional idempotency correction ==================
 RMS occupancy error at iteration   1:  0.004635 (step -0.3109 Ne1=   7234.0000)
 RMS occupancy error at iteration   2:  0.000361 (step -0.4817 Ne1=   7234.0000)
 RMS occupancy error at iteration   3:  0.000010 (step -0.5006 Ne1=   7234.0000)
            Final RMS occupancy error   :  0.000000 (Ne1=   7234.0000)
               Final occupancy bounds   : [  0.0000,  1.0000]
================================================================================

    6        -1.170608663763E+04     4.3699E-05     3.9536E-05    -2.7266E-02
MG BCs: +ve charge blocks (gridpoints):     24772 (   17104477).
MG BCs: -ve charge blocks (gridpoints):      8587 (    1100793).
MG BCs:     Elided blocks (gridpoints):    175868 (  178091195).
MG BCs: Computational effort saved:  99.9830%.
MG BCs: Charge after coarse-graining:           -9.0006591.
MG DL_MG: Calling solver with defect correction order = 8
MG DL_MG: Solver finished
MG Hartree energy from (\int phi*rho dr):              1258.741229
MG Hartree energy from (\int eps (grad phi)^2 dr):     1258.091659
MG Discrepancy due to finite box and discretization:     -0.649570 (  -0.05160%)
MG Correction to account for finite box:                  0.471997
MG Remaining discrepancy, due to discretization:         -0.177573 (  -0.01411%)
      ideal mu1:      -0.719961121736
             Q0:  -11706.125597320730
             G0:      -0.136068808059
   RMS gradient:       0.000056359825
MG BCs: +ve charge blocks (gridpoints):     24773 (   17101261).
MG BCs: -ve charge blocks (gridpoints):      8593 (    1101733).
MG BCs:     Elided blocks (gridpoints):    175867 (  178093471).
MG BCs: Computational effort saved:  99.9830%.
MG BCs: Charge after coarse-graining:           -9.0006597.
MG DL_MG: Calling solver with defect correction order = 8
MG DL_MG: Solver finished
MG Hartree energy from (\int phi*rho dr):              1257.026849
MG Hartree energy from (\int eps (grad phi)^2 dr):     1256.377545
MG Discrepancy due to finite box and discretization:     -0.649304 (  -0.05165%)
MG Correction to account for finite box:                  0.471613
MG Remaining discrepancy, due to discretization:         -0.177691 (  -0.01414%)
     Trial step:       0.951431452483
             Q1:  -11706.188275850844
 Quadratic coef:       0.066781613576
 Linear coef   :      -0.129460143690
           Qmin:  -11706.188338874530
Quadratic minimum step length (  0.922203327790) accepted
    Initial Ne1:    7233.99990747
      Final Ne1:    7234.00000000

=================== Penalty functional idempotency correction ==================
 RMS occupancy error at iteration   1:  0.000333 (step -0.4734 Ne1=   7234.0000)
 RMS occupancy error at iteration   2:  0.000001 (step -0.5000 Ne1=   7234.0000)
            Final RMS occupancy error   :  0.000000 (Ne1=   7234.0000)
               Final occupancy bounds   : [  0.0000,  1.0000]
================================================================================

    7        -1.170612559732E+04     5.6360E-05     5.0992E-05    -3.8960E-02
MG BCs: +ve charge blocks (gridpoints):     24773 (   17101345).
MG BCs: -ve charge blocks (gridpoints):      8593 (    1101708).
MG BCs:     Elided blocks (gridpoints):    175867 (  178093412).
MG BCs: Computational effort saved:  99.9830%.
MG BCs: Charge after coarse-graining:           -9.0006597.
MG DL_MG: Calling solver with defect correction order = 8
MG DL_MG: Solver finished
MG Hartree energy from (\int phi*rho dr):              1257.079257
MG Hartree energy from (\int eps (grad phi)^2 dr):     1256.429937
MG Discrepancy due to finite box and discretization:     -0.649321 (  -0.05165%)
MG Correction to account for finite box:                  0.471634
MG Remaining discrepancy, due to discretization:         -0.177687 (  -0.01413%)
      ideal mu1:      -0.718932727109
             Q0:  -11706.187938069110
             G0:      -0.247977247207
   RMS gradient:       0.000076502310
MG BCs: +ve charge blocks (gridpoints):     24771 (   17100519).
MG BCs: -ve charge blocks (gridpoints):      8594 (    1101923).
MG BCs:     Elided blocks (gridpoints):    175869 (  178094023).
MG BCs: Computational effort saved:  99.9830%.
MG BCs: Charge after coarse-graining:           -9.0006600.
MG DL_MG: Calling solver with defect correction order = 8
MG DL_MG: Solver finished
MG Hartree energy from (\int phi*rho dr):              1256.135882
MG Hartree energy from (\int eps (grad phi)^2 dr):     1255.488140
MG Discrepancy due to finite box and discretization:     -0.647742 (  -0.05157%)
MG Correction to account for finite box:                  0.469742
[...]
MG DL_MG: Calling solver with defect correction order = 8
MG DL_MG: Solver finished
MG Hartree energy from (\int phi*rho dr):              1216.135914
MG Hartree energy from (\int eps (grad phi)^2 dr):     1215.952540
MG Discrepancy due to finite box and discretization:     -0.183373 (  -0.01508%)
MG Correction to account for finite box:                  0.006361
MG Remaining discrepancy, due to discretization:         -0.177012 (  -0.01456%)
             Q2:  -11740.605833258247
  Cubic LS coeff:       0.850309066248
Predicted energy:  -11740.605833258267
Cubic minimum step length accepted
    Initial Ne1:    7234.00000000
      Final Ne1:    7234.00000000

=================== Penalty functional idempotency correction ==================
 RMS occupancy error at iteration   1:  0.000000 (step -0.5000 Ne1=   7234.0000)
            Final RMS occupancy error   :  0.000000 (Ne1=   7234.0000)
               Final occupancy bounds   : [  0.0000,  1.0000]
================================================================================

    7        -1.174060583326E+04     8.5019E-09     7.6922E-09    -1.3970E-09

Reusing previously generated solute cavity.
MG BCs: +ve charge blocks (gridpoints):     29046 (   19299213).
MG BCs: -ve charge blocks (gridpoints):      8556 (    1068866).
MG BCs:     Elided blocks (gridpoints):    171594 (  175928386).
MG BCs: Computational effort saved:  99.9808%.
MG BCs: Charge after coarse-graining:           -9.0009543.
MG DL_MG: Calling solver with defect correction order = 8
MG DL_MG: Solver finished
MG Hartree energy from (\int phi*rho dr):              1216.135911
MG Hartree energy from (\int eps (grad phi)^2 dr):     1215.952538
MG Discrepancy due to finite box and discretization:     -0.183373 (  -0.01508%)
MG Correction to account for finite box:                  0.006361
MG Remaining discrepancy, due to discretization:         -0.177012 (  -0.01456%)
      ideal mu1:      -0.480807212108
             Q0:  -11740.605833258363
             G0:      -0.000000003050
   RMS gradient:       0.000000007295

Reusing previously generated solute cavity.
MG BCs: +ve charge blocks (gridpoints):     29046 (   19299213).
MG BCs: -ve charge blocks (gridpoints):      8556 (    1068867).
MG BCs:     Elided blocks (gridpoints):    171594 (  175928385).
MG BCs: Computational effort saved:  99.9808%.
MG BCs: Charge after coarse-graining:           -9.0009543.
MG DL_MG: Calling solver with defect correction order = 8
MG DL_MG: Solver finished
MG Hartree energy from (\int phi*rho dr):              1216.135888
MG Hartree energy from (\int eps (grad phi)^2 dr):     1215.952514
MG Discrepancy due to finite box and discretization:     -0.183373 (  -0.01508%)
MG Correction to account for finite box:                  0.006361
MG Remaining discrepancy, due to discretization:         -0.177012 (  -0.01456%)
     Trial step:       0.583202061550
             Q1:  -11740.605833259178
 Quadratic coef:       0.000000000964
 Linear coef   :      -0.000000001779
           Qmin:  -11740.605833259184
Quadratic minimum step length (  0.538016638901) accepted
    Initial Ne1:    7234.00000000
      Final Ne1:    7234.00000000

=================== Penalty functional idempotency correction ==================
 RMS occupancy error at iteration   1:  0.000000 (step -0.5000 Ne1=   7234.0000)
            Final RMS occupancy error   :  0.000000 (Ne1=   7234.0000)
               Final occupancy bounds   : [ -0.0000,  1.0000]
================================================================================

    8        -1.174060583326E+04     7.2954E-09     6.6006E-09    -2.9104E-09

Reusing previously generated solute cavity.
MG BCs: +ve charge blocks (gridpoints):     29046 (   19299213).
MG BCs: -ve charge blocks (gridpoints):      8556 (    1068867).
MG BCs:     Elided blocks (gridpoints):    171594 (  175928385).
MG BCs: Computational effort saved:  99.9808%.
MG BCs: Charge after coarse-graining:           -9.0009543.
MG DL_MG: Calling solver with defect correction order = 8
MG DL_MG: Solver finished
MG Hartree energy from (\int phi*rho dr):              1216.135890
MG Hartree energy from (\int eps (grad phi)^2 dr):     1215.952516
MG Discrepancy due to finite box and discretization:     -0.183373 (  -0.01508%)
MG Correction to account for finite box:                  0.006361
MG Remaining discrepancy, due to discretization:         -0.177012 (  -0.01456%)
      ideal mu1:      -0.480807188492
             Q0:  -11740.605833259062
             G0:      -0.000000001439
   RMS gradient:       0.000000004425

Reusing previously generated solute cavity.
MG BCs: +ve charge blocks (gridpoints):     29046 (   19299213).
MG BCs: -ve charge blocks (gridpoints):      8556 (    1068866).
MG BCs:     Elided blocks (gridpoints):    171594 (  175928386).
MG BCs: Computational effort saved:  99.9808%.
MG BCs: Charge after coarse-graining:           -9.0009543.
MG DL_MG: Calling solver with defect correction order = 8
MG DL_MG: Solver finished
MG Hartree energy from (\int phi*rho dr):              1216.135896
MG Hartree energy from (\int eps (grad phi)^2 dr):     1215.952522
MG Discrepancy due to finite box and discretization:     -0.183373 (  -0.01508%)
MG Correction to account for finite box:                  0.006361
MG Remaining discrepancy, due to discretization:         -0.177012 (  -0.01456%)
     Trial step:       0.560153918986
             Q1:  -11740.605833259295
 Quadratic coef:       0.000000000573
 Linear coef   :      -0.000000000806
           Qmin:  -11740.605833259346
Quadratic minimum step length (  0.393934170596) accepted
    Initial Ne1:    7234.00000000
      Final Ne1:    7234.00000000

=================== Penalty functional idempotency correction ==================
 RMS occupancy error at iteration   1:  0.000000 (step -0.5000 Ne1=   7234.0000)
            Final RMS occupancy error   :  0.000000 (Ne1=   7234.0000)
               Final occupancy bounds   : [ -0.0000,  1.0000]
================================================================================

    9        -1.174060583326E+04     4.4249E-09     4.0034E-09    -6.9849E-10

Reusing previously generated solute cavity.
MG BCs: +ve charge blocks (gridpoints):     29046 (   19299213).
MG BCs: -ve charge blocks (gridpoints):      8556 (    1068866).
MG BCs:     Elided blocks (gridpoints):    171594 (  175928386).
MG BCs: Computational effort saved:  99.9808%.
MG BCs: Charge after coarse-graining:           -9.0009543.
MG DL_MG: Calling solver with defect correction order = 8
MG DL_MG: Solver finished
MG Hartree energy from (\int phi*rho dr):              1216.135894
MG Hartree energy from (\int eps (grad phi)^2 dr):     1215.952521
MG Discrepancy due to finite box and discretization:     -0.183373 (  -0.01508%)
MG Correction to account for finite box:                  0.006361
MG Remaining discrepancy, due to discretization:         -0.177012 (  -0.01456%)
      ideal mu1:      -0.480807191605
   10        -1.174060583326E+04     3.5777E-09     3.2369E-09    -2.3283E-10
Finished density kernel iterations (  10)

Writing density kernel to file "complex_28601.dkn" ... done


>>> Density kernel optimised for the current NGWF basis:
     ~~~~~~~~~~~~~~~~~~~~~~~~~~~~~~~~~~~~~~~~~~~~~~~~~~~~~~~~~~~
     Total energy                =  -1.17406058332593E+04  Eh
     Estimated bandgap           =   8.3823E-02  Eh
     RMS occupancy error         =   6.6035E-16
     [H,K] commutator            =   3.2369E-09
     Occupancy bounds            = [ -0.000:  1.000]
     ~~~~~~~~~~~~~~~~~~~~~~~~~~~~~~~~~~~~~~~~~~~~~~~~~~~~~~~~~~~




################################################################################
########################### NGWF CG iteration  004 #############################
################################################################################
****** Reciprocal space K.E. preconditioning with k_zero =  3.5000 a0^-1 *******

>>> Checking for convergence of NGWFs: 
           ........................................................
           |         *** NGWF optimisation converged ***          |
           | RMS NGWF gradient =    0.00000195696062              |
           | Criteria satisfied:                                  |
           | -> RMS NGWF gradient lower than set threshold.       |
           ========================================================

Reusing previously generated solute cavity.
MG BCs: +ve charge blocks (gridpoints):     29046 (   19299213).
MG BCs: -ve charge blocks (gridpoints):      8556 (    1068866).
MG BCs:     Elided blocks (gridpoints):    171594 (  175928386).
MG BCs: Computational effort saved:  99.9808%.
MG BCs: Charge after coarse-graining:           -9.0009543.
MG DL_MG: Calling solver with defect correction order = 8
MG DL_MG: Solver finished
MG Hartree energy from (\int phi*rho dr):              1216.135894
MG Hartree energy from (\int eps (grad phi)^2 dr):     1215.952521
MG Discrepancy due to finite box and discretization:     -0.183373 (  -0.01508%)
MG Correction to account for finite box:                  0.006361
MG Remaining discrepancy, due to discretization:         -0.177012 (  -0.01456%)

================================================================================
           ---------------- ENERGY COMPONENTS (Eh) ----------------
           | Kinetic                    :     8575.52340384227136 |
           | Pseudo. (local,OBC,corr'd) :    -5077.18030082998484 |
           | Pseudopotential (non-local):     1410.54933524911735 |
           | Hartree (molecular)        :     1216.13589399475291 |
           | Exchange-correlation       :    -3376.18025573781915 |
           | Ion-ion (open BC)          :   838773.24260480888188 |
           | Dispersion Correction      :       -3.29763905369969 |
           | Smeared ion non-self corr. :  -838725.08114418270998 |
           | Smeared ion self corr.     :   -14534.96330857570138 |
           | Solvent cavitation energy  :        2.29681482033195 |
           | Solute-solvent dis-rep en. :       -1.65123759470715 |
           | Total                      :   -11740.60583325930747 |
           --------------------------------------------------------
           ------ LOCAL ENERGY COMPONENTS FROM MATRIX TRACES ------
           | Pseudopotential (local)    :    -5077.18030082997757 |
           | Hartree                    :    -2000.81040035661908 |
           --------------------------------------------------------
           Integrated density           :     7233.99999999735155
           Integrated density tr(KS)    :     7234.00000000000000
================================================================================


                        <<<<< CALCULATION SUMMARY >>>>>                         
|ITER|    RMS GRADIENT   |     TOTAL ENERGY    |   step   |     Epredicted              
   0     0.00003811130373 -11740.54755734826904   0.622277 -11740.59775126971545        
   1     0.00001020230774 -11740.60515215783380   0.098450 -11740.60572123501152        
   2     0.00000443723792 -11740.60581146972254   0.017437 -11740.60583053586015        
   3     0.00000195696062 -11740.60583325929474  <-- CG                                 

=================== Finished the calculation in solvent ========================
= Adjusting the following parameters: 
= read_denskern: F
= read_tightbox_ngwfs: F
= maxit_pen: 0 (restored to user-specified value)
= restart read filename prefix: ""
= restart write filename prefix: ""
================================================================================

================================================================================
IS: Calculation in solvent completed (NGWFs converged).      

Individual components of total energy in solvent:     hartree           kcal/mol
- Usual non-electrostatic DFT terms:    -12957.38730447967282    -8130883.116266
- Electrostatic fixed charge energy:      1216.13589399475291      763136.778674
- Apolar cavitation energy:                  2.29681482033195        1441.273029
- Apolar dispersion-repulsion energy:       -1.65123759470715       -1036.167212
 -------------------------------------------------------------------------------
- Total energy in solvent:              -11740.60583325929474    -7367341.231775

Components of total energy in solvent:                hartree           kcal/mol
- Usual non-electrostatic DFT terms:    -12957.38730447967282    -8130883.116266
- Electrostatic energy:                   1216.13589399475291      763136.778674
- Apolar energy terms:                       0.64557722562480         405.105817
 -------------------------------------------------------------------------------
- Total energy in solvent:              -11740.60583325929474    -7367341.231775

Calculation of free energy of solvation:              hartree           kcal/mol
- Total energy in solvent:         (+)  -11740.60583325929474    -7367341.231775
- Total energy in vacuum:          (-)  -11736.84556176268961    -7364981.625838
 -------------------------------------------------------------------------------
- Total free energy of solvation:           -3.76027149660513       -2359.605938

Components of polar term in f.e. of solvation:        hartree           kcal/mol
- Electrostatic:                            -4.65888797922685       -2923.496282
- Change in nonelectrostatic DFT terms:      0.25303925699700         158.784528
 -------------------------------------------------------------------------------
- Polar term in f.e. of solvation:          -4.40584872222985       -2764.711755

Components of free energy of solvation:               hartree           kcal/mol
- Polar term in f.e. of solvation: (+)      -4.40584872222985       -2764.711755
- Apolar (cavitation, dis., rep.): (+)       0.64557722562480         405.105817
 -------------------------------------------------------------------------------
- Total free energy of solvation:           -3.76027149660505       -2359.605938
================================================================================


------------------------------ TIMING INFORMATION ------------------------------
AVERAGE TIME:   32324.695s on     30 node(s)                                    
TOTAL TIME:     32324.698s on     30 node(s)                                    
================= AVERAGE TIMINGS FROM ALL NODES (CUMULATIVE) ==================
|| TAG                                    #calls    cpu time   %total  Gflops ||
|| work_imbalance                       :     1        0.00s   0.000%  ------ ||
|| parallel_prepare_fd_halos_request    :  1827        0.04s   0.000%  ------ ||
|| sparse_set_to_garbage                :   164        0.06s   0.000%  ------ ||
|| parallel_prepare_fd_halos_alloc      :  1827        0.07s   0.000%  ------ ||
|| ngwfs_initialise_from_radial         :     1        0.24s   0.001%  ------ ||
|| basis_extract_function_from_box      :  6763        0.25s   0.001%  ------ ||
|| parallel_prepare_fd_halos_satisfy    :  1827        0.72s   0.002%  ------ ||
|| pseudopotentials_nonlocal_mat        :    28        0.94s   0.003%  ------ ||
|| restart_ngwfs_tightbox_input         :     1        1.39s   0.004%  ------ ||
|| parallel_prepare_fd_halos_comms_imbal:  1827        5.74s   0.018%  ------ ||
|| openbc_locps_radial                  :     1        6.92s   0.021%  ------ ||
|| parallel_prepare_fd_halos_clear      :  1827       12.79s   0.040%  ------ ||
|| sparse_init                          :     2       26.49s   0.082%  ------ ||
|| parallel_prepare_fd_halos_comms_wait :  1827       26.90s   0.083%  ------ ||
|| projectors_func_ovlp_box             :    28       28.09s   0.087%  ------ ||
|| function_ops_brappd_ketppd           :    28       30.13s   0.093%  ------ ||
|| restart_kernel_write                 :    16       30.54s   0.094%  ------ ||
|| projectors_init_fftbox_recip         :   238       32.27s   0.100%  ------ ||
|| parallel_prepare_fd_halos            :  1827       46.27s   0.143%  ------ ||
|| palser_mano_kernel_optimise          :     1       48.19s   0.149%  ------ ||
|| density_init_guess_real              :     1       48.21s   0.149%  ------ ||
|| restart_kernel_read                  :     1       48.95s   0.151%  ------ ||
|| basis_copy_function_to_box           : 109.7k      49.09s   0.152%  ------ ||
|| fourier_apply_box_pair               :  9601       59.60s   0.184% 496.658 ||
|| ngwf_gradient_coeffs                 :    15       70.20s   0.217%  ------ ||
|| restart_ngwfs_tightbox_output        :    13       74.85s   0.232%  ------ ||
|| sparse_embed_hotelling_invert_embed  :    28      102.97s   0.319%  ------ ||
|| pseudo_make_structure_factor         :     2      111.83s   0.346%  ------ ||
|| finite_difference_derivative         :  1827      137.94s   0.427%  ------ ||
|| sparse_trace                         :  4982      148.62s   0.460%  ------ ||
|| integrals_kinetic                    :    28      195.76s   0.606%  ------ ||
|| projectors_gradient_batch            :   210      256.26s   0.793%  ------ ||
|| fourier_apply_cell_forward           :  1217      260.32s   0.805%  64.575 ||
|| fourier_apply_cell_backward          :  1219      261.69s   0.810%  64.344 ||
|| basis_dot_function_with_box          : 16.88M     287.91s   0.891%  ------ ||
|| kernel_purify                        :   464      381.59s   1.180%  ------ ||
|| openbc_locps_on_grid                 :     2      482.70s   1.493%  ------ ||
|| hamiltonian_energy_components        :     4      537.14s   1.662%  ------ ||
|| lnv_gradient_norm                    :   150      570.33s   1.764%  ------ ||
|| basis_add_function_to_box            : 35.11M     606.21s   1.875%  ------ ||
|| xc_energy_potential                  :   304      623.55s   1.929%  ------ ||
|| kernel_fix                           :   150      668.54s   2.068%  ------ ||
|| ngwf_gradient_build_batch            :   210      952.78s   2.948%  ------ ||
|| cell_grid_extract_box_real           : 57721      992.56s   3.071%  ------ ||
|| integrals_locpot_mat_els_batch       :  2226     1072.94s   3.319%  ------ ||
|| ngwf_gradient_batch                  :   210     1307.09s   4.044%  ------ ||
|| density_fftbox_deposit_to_cell       : 66357     1437.99s   4.449%  ------ ||
|| cell_grid_deposit_box_real           : 68271     1510.47s   4.673%  ------ ||
|| density_batch_row_sums               :  4242     1513.95s   4.684%  ------ ||
|| ngwf_gradient_lnv                    :    15     1551.07s   4.798%  ------ ||
|| sparse_product                       :  6279     2382.83s   7.372%  ------ ||
|| multigrid_prepare_bound_cond         :   304     4004.19s  12.387%  ------ ||
|| potential_apply_to_ngwf_batch        :  2226     4024.41s  12.450%  ------ ||
|| density_fftbox_interpolate_multiply  : 66357     4939.09s  15.280%  ------ ||
|| integrals_locpot_dbl_grid            :   159     5105.08s  15.793%  ------ ||
|| fourier_apply_box                    : 228.8k    5933.32s  18.355% 576.485 ||
|| density_batch_interp_deposit         :  4242     7078.92s  21.899%  ------ ||
|| dl_mg_solver_calls                   :   304     7089.13s  21.931%  ------ ||
|| density_on_dbl_grid                  :   303     9166.47s  28.357%  ------ ||
|| multigrid_calculate_hartree          :   304    11279.64s  34.895%  ------ ||
|| hamiltonian_lhxc_calculate           :   299    20901.61s  64.661%  ------ ||
|| lnv_denskernel_optimise_cg           :    15    27208.53s  84.173%  ------ ||
|| ngwf_cg_optimise                     :     2    30775.78s  95.208%  ------ ||
|| total_time                           :     1    32324.70s 100.000%  ------ ||
================================================================================
Overhead of generating timer report: 
- 1 ms averaging over threads,
- 4 ms ensuring consistency across MPI ranks,
- 0 ms printing in order.

Job completed: 24-01-2020 09:24 (-0000)

