 +---------------------------------------------------------------+
 |                                                               |
 |        ####### #     # ####### ####### ####### ######         |
 |        #     # ##    # #          #    #       #     #        |
 |        #     # # #   # #          #    #       #     #        |
 |        #     # #  #  # #####      #    #####   ######         |
 |        #     # #   # # #          #    #       #              |
 |        #     # #    ## #          #    #       #              |
 |        ####### #     # #######    #    ####### #              |
 |                                                               |
 |        Linear-Scaling Ab Initio Total Energy Program          |
 |                                                               |
 |          Release for academic collaborators of ODG            |
 |                                             Version 5.3.2.6.  |
 |                                                               |
 +---------------------------------------------------------------+
 |                                                               |
 |  Authors:                                                     |
 |  Jacek Dziedzic, Peter D. Haynes, Nicholas D. M. Hine,        |
 |  Arash. A. Mostofi, Mike C. Payne and Chris-Kriton Skylaris   |
 |                                                               |
 |  Contributors:                                                |
 |  J. Aarons, L. Andrinopoulos, P. W. Avraam, R. A. Bell,       |
 |  A. Bhandari, G. A. Bramley, R. J. Charlton, S. J. Clark,     |
 |  R. J. Clements, G. C. Constantinescu, F. Corsetti,           |
 |  N. Corsini, O. Dieguez, S. M. M. Dubois, K. K. B. Duff,      |
 |  J. M. Escartin, A. Greco, H. Helal, Q. O. Hill, L. P. Lee,   |
 |  J.-H. Li, E. B. Linscott, G. Moynihan, D. D. O`Regan,        |
 |  O. K. Okan, M. J. S. Phipps, C. J. Pickard,                  |
 |  J. C. A. Prentice, M. I. J. Probert, L. E. Ratcliff,         |
 |  M. Robinson, A. Ruiz Serrano, J. S. Spencer, E. W. Tait,     |
 |  G. Teobaldi, D. Turban, V. Vitale, K. A. Wilkinson,          |
 |  C. Weber, J. C. Womack, N. Yeung and T. J. Zuehlsdorff       |
 |                                                               |
 |                                   Copyright (c) 2004-2019     |
 |                                                               |
 |  Please cite:                                                 |
 |  "Introducing ONETEP: Linear-scaling density functional       |
 |   simulations on parallel computers".                         |
 |   C.-K. Skylaris, P. D. Haynes, A. A. Mostofi, M. C. Payne.   |
 |   J. Chem. Phys. 122 084119 (2005).                           |
 |                                                               |
 |          in all publications arising from your use of ONETEP. |
 |                                                               |
 +---------------------------------------------------------------+
 |                                                               |
 |   ONETEP is based on developments described in the following  |
 |   publications:                                               |
 |                                                               |
 |  "Nonorthogonal generalized Wannier function pseudopotential  |
 |   plane-wave method".                                         |
 |   C.-K. Skylaris, A. A. Mostofi, P. D. Haynes, O. Dieguez,    |
 |   M. C. Payne.                                                |
 |   Phys. Rev. B 66 035119 (2002).                              |
 |                                                               |
 |  "Preconditioned iterative minimization for linear-scaling    |
 |   electronic structure calculations".                         |
 |   A. A. Mostofi, P. D. Haynes, C.-K. Skylaris, M. C. Payne.   |
 |   J. Chem. Phys. 119(17), pp.8842-8848 (2003).                |
 |                                                               |
 |  "Total-energy calculations on a real space grid with         |
 |   localized functions and a plane-wave basis".                |
 |   A. A. Mostofi, C.-K. Skylaris, P. D. Haynes, M. C. Payne.   |
 |   Comput. Phys. Commun. 147, pp.788-802 (2002).               |
 |                                                               |
 |  "Accurate kinetic energy evaluation in electronic structure  |
 |   calculations with localized functions on real space grids"  |
 |   C.-K. Skylaris, A. A. Mostofi, P. D. Haynes, C. J. Pickard, |
 |   M. C. Payne.                                                |
 |   Comput. Phys. Commun. 140, pp.315-322 (2001).               |
 |                                                               |
 |  "Accurate ionic forces and geometry optimization in linear-  |
 |   scaling density-functional theory with local orbitals"      |
 |   N. D. M. Hine, M. Robinson, P. D. Haynes, C.-K. Skylaris,   |
 |   M. C. Payne, and A. A. Mostofi.                             |
 |   Phys. Rev. B 83 195102 (2011).                              |
 |                                                               |
 +---------------------------------------------------------------+

Job started: 27-01-2020 01:29 (-0000)
 
Reading parameters from file "complex_6561.dat" ...... done

If your calculation crashes here, before "Checking processes and threads..."
is displayed, then your stack size is insufficient.
If so, use "ulimit -s unlimited" at runtime.
You can disable this check with "check_stack_size F".

Checking processes and threads...
   Determining the default number of threads...
      No default threads set at compilation time: defaulting to 1.
      OpenMP library call suggests 4 threads.
      Hybrid MPI-OpenMP compilation detected.
      Number of MPI processes > 1.
      OMP_NUM_THREADS environment variable present and
      its value matches the one obtained from the OpenMP library call.
      Using this value as default.
      Default threads: 4
      Default applies to threads_max and threads_num_fftboxes.
      Settings in the input file override this default.
   ... done

   Running with 30 MPI processes.
   There are 4 MPI processes running on the same node as the root process.
   Each MPI process is using: 
               1 threads for simulation cell FFTs.
               1 threads for parallel FFT box operations.
               4 threads for loops over batched FFT box operations.
               4 threads in other parallel regions.
... done

Basic input checks...... done

Reading geometry and species blocks from file "complex_6561.dat" ...
  <species_atomic_set> block not found: NGWF initialisation set to SOLVE
IS: Dielectric excluded regions:
    - NONE.
    
  Number of PPD points along a3 set to 1.  This is 
  the default value, it may have been provided also in the input file.
... done
 Writing xyz coordinates to file "complex_6561.xyz" ... done


--------------------------------------------------------------------------------
---------------------------------- INPUT FILE ----------------------------------
--------------------------------------------------------------------------------

cutoff_energy       : 800 eV                                                    
xc_functional PBE                                                               
task SINGLEPOINT                                                                
write_xyz true                                                                  
output_detail VERBOSE                                                           
ngwf_threshold_orig : 0.000002                                                  
kernel_cutoff       : 1000                                                      
k_zero              : 3.5                                                       
elec_cg_max 0                                                                   
occ_mix 1.0                                                                     
dispersion 1                                                                    
maxit_ngwf_cg 40                                                                
minit_lnv 10                                                                    
maxit_lnv 10                                                                    
write_denskern T                                                                
write_tightbox_ngwfs T                                                          
charge 9                                                                        
is_implicit_solvent T                                                           
is_auto_solvation T                                                             
is_include_apolar T                                                             
is_smeared_ion_rep T                                                            
is_solvent_surf_tension 4.7624E-5 Ha/bohr**2                                    
is_apolar_scaling_factor 0.281075                                               
is_solvation_beta 1.3                                                           
is_density_threshold 0.00035                                                    
is_bulk_permittivity 78.54                                                      
is_dielectric_model fix_initial                                                 
is_smeared_ion_width 0.8                                                        
mg_defco_fd_order 8                                                             
is_bc_coarseness 10                                                             
is_bc_surface_coarseness 1                                                      
fine_grid_scale 2.0                                                             
%block species                                                                  
N   N   7 4 8.0                                                                 
H   H   1 1 8.0                                                                 
C   C   6 4 8.0                                                                 
S   S  16 9 8.0                                                                 
O   O   8 4 8.0                                                                 
%endblock species                                                               
%block species_pot                                                              
N   N_00.recpot                                                                 
H   H_04.recpot                                                                 
C   C_01.recpot                                                                 
S   S_00.recpot                                                                 
O   O_02.recpot                                                                 
%endblock species_pot                                                           
%block lattice_cart                                                             
137.614   0.000   0.000                                                         
0.000 142.646   0.000                                                           
0.000   0.000   160.855                                                         
%endblock lattice_cart                                                          
%block positions_abs                                                            
     Hash =  -000005845690770634850215
%endblock positions_abs                                                         

--------------------------------------------------------------------------------
-------------------------------- END INPUT FILE --------------------------------
--------------------------------------------------------------------------------


 
 ESDF WARNING(1): "kernelcutoff" (esdf_physical) has no units. Assume "bohr".
 ESDF WARNING(2): "kzero" (esdf_physical) has no units. Assume "1/bohr".
 ESDF WARNING(3
 ): "issmearedionwidth" (esdf_physical) has no units. Assume "bohr".
<<<<<<<<<<<<<<<<<<<<<<<<<<<<<<<<< Full system >>>>>>>>>>>>>>>>>>>>>>>>>>>>>>>>>>
<<<<<<<<<<<<<<<<<<<<<<<<< Pseudopotential information >>>>>>>>>>>>>>>>>>>>>>>>>>
File: N_00.recpot [ 2001 points up to Gmax=  52.9 (1/bohr)]
  Atomic number:  7;  ionic charge:  5.000000
    Shell 1: l = 0; rc = 1.48 bohr
File: H_04.recpot [ 2001 points up to Gmax=  52.9 (1/bohr)]
  Atomic number:  1;  ionic charge:  1.000000
    Local potential
File: C_01.recpot [ 2001 points up to Gmax=  52.9 (1/bohr)]
  Atomic number:  6;  ionic charge:  4.000000
    Shell 1: l = 0; rc = 1.48 bohr
File: S_00.recpot [ 2001 points up to Gmax=  52.9 (1/bohr)]
  Atomic number: 16;  ionic charge:  6.000000
    Shell 1: l = 0; rc = 1.90 bohr
    Shell 2: l = 2; rc = 1.84 bohr
File: O_02.recpot [ 2001 points up to Gmax=  52.9 (1/bohr)]
  Atomic number:  8;  ionic charge:  6.000000
    Shell 1: l = 0; rc = 1.31 bohr
<<<<<<<<<<<<<<<<<<<<<<<<<<<<<<<<<<<<<<<<>>>>>>>>>>>>>>>>>>>>>>>>>>>>>>>>>>>>>>>>

-------------------------- Atom counting information ---------------------------
Symbol    Natoms    Nngwfs    Nprojs
  N        236       944       236
  H       1319      1319         0
  C        817      3268       817
  S          6        54        36
  O        240       960       240
.......   ......    ......    ......
Totals:   2618      6545      1329
--------------------------------------------------------------------------------

=============================== PSINC grid sizes ===============================
                      Simulation cell:  273 x 286 x 320
                              FFT-box:   99 x 105 x  99
                                  PPD:    7 x  11 x   1
Grid space d1=  0.504080586081a0 (KE cutoff=  29.89538Eh = 813.49465eV)
Grid space d2=  0.498762237762a0 (KE cutoff=  30.53633Eh = 830.93588eV)
Grid space d3=  0.502671875000a0 (KE cutoff=  30.06317Eh = 818.06059eV)
================================================================================

********************* Fourier parallelisation information **********************
       Coarse grid (whole simulation cell) dimensions:    273   286   320
          Real-space ('12') slabs/node (min max mean):     10    11    10
         Recip-space ('23') slabs/node (min max mean):      4     5     4
********************************************************************************

********************* Fourier parallelisation information **********************
       Double grid (whole simulation cell) dimensions:    546   572   640
          Real-space ('12') slabs/node (min max mean):     21    22    21
         Recip-space ('23') slabs/node (min max mean):      9    10     9
********************************************************************************
ONETEP fine grid is 546 x 572 x 640 gridpoints, 137.6140 x 142.6460 x 160.8550 bohr.
FD multigrid is     545 x 569 x 633 gridpoints, 137.3620 x 141.8979 x 159.0956 bohr.


Calculating local pseudopotential in open BC on a radial grid ...
Discrepancy between calculated realspace psloc and -Z/x on [5a0,255.264a0]:
max |rel. diff| # avg |rel. diff| #  avg rel. diff #  f # pseudopotential file
 0.000296759711    0.000009439468   0.000000085927   54  'N_00.recpot'
 0.000490027943    0.000021572324  -0.000000031900   54  'H_04.recpot'
 0.000320795249    0.000014598087   0.000000111901   54  'C_01.recpot'
 0.000388730920    0.000016096375   0.000000514750   54  'S_00.recpot'
 0.000828383344    0.000035421288   0.000000087443   54  'O_02.recpot'
... done

Atom SCF Calculation for N  : Z (AE atom) =   7 : Z (PS atom) =   5
Config String:
Orbitals (num,occ):  2     2.00 3.00
Orbitals   (num,l):  2        0    1
Real-space Grid (nr,dr,rmax): 1203    0.0066555740    8.0000000000
Spherical Bessel Basis (nsws,lmax,cutoff):   47    1  176.3951722778
Confining potential (l,width,scale):  0    3.0000000000  100.0000000000
Confining potential (l,width,scale):  1    3.0000000000  100.0000000000
  1         -4.7312375307   -3.4155304497    7.0523828109   -1.9351020946
  2         -9.7309464766   -2.0532547791    8.2966052865   -2.2494486027
  3         -9.6627394379   -2.1124926340    8.2327997121   -2.2369778124
  4         -9.6814993499   -2.1215521045    8.2229805960   -2.2365178421
  5         -9.6843326483   -2.1250939529    8.2191374534   -2.2362718126
  6         -9.6859628709   -2.1267894855    8.2172963573   -2.2362066344
  7         -9.6867347035   -2.1276425665    8.2163697352   -2.2361903369
  8         -9.6870802100   -2.1280764625    8.2158983890   -2.2361891460
  9         -9.6872290423   -2.1282977424    8.2156580222   -2.2361920435
 10         -9.6872901988   -2.1284107021    8.2155353368   -2.2361953393
 11         -9.6873135296   -2.1284684031    8.2154726809   -2.2361979819
 12         -9.6873212476   -2.1284978948    8.2154406648   -2.2361998431
 13         -9.6873229586   -2.1285129774    8.2154242957   -2.2362010676
 14         -9.6873226456   -2.1285206957    8.2154159216   -2.2362018403
 15         -9.6873218534   -2.1285246479    8.2154116349   -2.2362023142
 16         -9.6873212599   -2.1285262679    8.2154098784   -2.2362025420
 17         -9.6873207834   -2.1285272564    8.2154088068   -2.2362026955
 18         -9.6873204210   -2.1285278597    8.2154081529   -2.2362027982
 19         -9.6873201550   -2.1285282280    8.2154077538   -2.2362028667
 20         -9.6873199645   -2.1285284529    8.2154075102   -2.2362029121
 21         -9.6873198305   -2.1285285903    8.2154073614   -2.2362029421
 22         -9.6873197377   -2.1285286742    8.2154072705   -2.2362029618
Atom SCF converged after  22 iterations to a total energy of     -9.68731974

Atom SCF Calculation for H  : Z (AE atom) =   1 : Z (PS atom) =   1
Config String:
Orbitals (num,occ):  1     1.00
Orbitals   (num,l):  1        0
Real-space Grid (nr,dr,rmax): 1203    0.0066555740    8.0000000000
Spherical Bessel Basis (nsws,lmax,cutoff):   47    0  176.3951722778
Confining potential (l,width,scale):  0    3.0000000000  100.0000000000
  1         -0.3194257691   -0.2393854593    0.2820953124   -0.2424203209
  2         -0.3951823392   -0.2377116493    0.2886404059   -0.2475147891
  3         -0.4317044583   -0.2352244387    0.2921333887   -0.2514046172
  4         -0.4470703708   -0.2341892222    0.2934391879   -0.2531009782
  5         -0.4532132900   -0.2338556667    0.2938388426   -0.2537313520
  6         -0.4556579251   -0.2337612552    0.2939448584   -0.2539550462
  7         -0.4566418315   -0.2337377355    0.2939680120   -0.2540342273
  8         -0.4570437922   -0.2337331116    0.2939708287   -0.2540627372
  9         -0.4572102946   -0.2337328328    0.2939698291   -0.2540732650
 10         -0.4572800424   -0.2337332404    0.2939687193   -0.2540772588
 11         -0.4573095100   -0.2337335791    0.2939680317   -0.2540788122
 12         -0.4573220379   -0.2337337762    0.2939676699   -0.2540794294
 13         -0.4573273880   -0.2337338775    0.2939674931   -0.2540796787
 14         -0.4573296803   -0.2337339266    0.2939674099   -0.2540797808
 15         -0.4573306647   -0.2337339495    0.2939673718   -0.2540798230
 16         -0.4573310882   -0.2337339601    0.2939673545   -0.2540798406
 17         -0.4573312706   -0.2337339649    0.2939673467   -0.2540798479
 18         -0.4573313493   -0.2337339670    0.2939673433   -0.2540798510
Atom SCF converged after  18 iterations to a total energy of     -0.45733135

Atom SCF Calculation for C  : Z (AE atom) =   6 : Z (PS atom) =   4
Config String:
Orbitals (num,occ):  2     2.00 2.00
Orbitals   (num,l):  2        0    1
Real-space Grid (nr,dr,rmax): 1203    0.0066555740    8.0000000000
Spherical Bessel Basis (nsws,lmax,cutoff):   47    1  176.3951722778
Confining potential (l,width,scale):  0    3.0000000000  100.0000000000
Confining potential (l,width,scale):  1    3.0000000000  100.0000000000
  1         -5.2976922011   -1.3069684169    4.5135249990   -1.4493313817
  2         -5.3721716256   -1.3429755895    4.4750154450   -1.4361613026
  3         -5.3809959565   -1.3617365618    4.4541655428   -1.4305930207
  4         -5.3918938866   -1.3667928461    4.4484735100   -1.4294652294
  5         -5.3956096428   -1.3688539142    4.4461376126   -1.4290734646
  6         -5.3968271862   -1.3696852393    4.4451910874   -1.4289366866
  7         -5.3972028401   -1.3700178062    4.4448112275   -1.4288900460
  8         -5.3973067903   -1.3701500158    4.4446598370   -1.4288749220
  9         -5.3973286940   -1.3702023868    4.4445997329   -1.4288704293
 10         -5.3973289850   -1.3702230869    4.4445759233   -1.4288693188
 11         -5.3973254264   -1.3702312560    4.4445665049   -1.4288691775
 12         -5.3973224003   -1.3702344755    4.4445627836   -1.4288692549
 13         -5.3973208708   -1.3702354890    4.4445616088   -1.4288693270
 14         -5.3973198783   -1.3702360102    4.4445610034   -1.4288693814
 15         -5.3973192535   -1.3702362780    4.4445606917   -1.4288694190
 16         -5.3973188684   -1.3702364155    4.4445605313   -1.4288694437
 17         -5.3973186349   -1.3702364860    4.4445604489   -1.4288694595
 18         -5.3973184951   -1.3702365221    4.4445604065   -1.4288694693
 19         -5.3973184122   -1.3702365405    4.4445603848   -1.4288694753
Atom SCF converged after  19 iterations to a total energy of     -5.39731841

Atom SCF Calculation for S  : Z (AE atom) =  16 : Z (PS atom) =   6
Config String:
Orbitals (num,occ):  3     2.00 4.00 0.00
Orbitals   (num,l):  3        0    1    2
Real-space Grid (nr,dr,rmax): 1203    0.0066555740    8.0000000000
Spherical Bessel Basis (nsws,lmax,cutoff):   47    2  176.3951722778
Confining potential (l,width,scale):  0    3.0000000000  100.0000000000
Confining potential (l,width,scale):  1    3.0000000000  100.0000000000
Confining potential (l,width,scale):  2    3.0000000000  100.0000000000
  1        -12.4735062396   -1.0328741412   10.1554312477   -2.4512393157
  2         -9.9458301913   -2.4607392455    8.3041325857   -2.0306994528
  3        -10.1450417646   -2.2931184565    8.4831893826   -2.0812538287
  4        -10.1528335592   -2.2733105793    8.5050388867   -2.0896035179
  5        -10.1571940363   -2.2633716629    8.5160794258   -2.0939370707
  6        -10.1594380571   -2.2584938667    8.5215163935   -2.0961289008
  7        -10.1605856507   -2.2561081821    8.5241804044   -2.0972291378
  8        -10.1611799191   -2.2549395235    8.5254868240   -2.0977806248
  9        -10.1614918752   -2.2543658586    8.5261285885   -2.0980571586
 10        -10.1616572884   -2.2540839121    8.5264441898   -2.0981959233
 11        -10.1617455602   -2.2539453058    8.5265994231   -2.0982656006
 12        -10.1617928447   -2.2538772062    8.5266757320   -2.0983006047
 13        -10.1618182292   -2.2538437891    8.5267131983   -2.0983181961
 14        -10.1618318741   -2.2538274201    8.5267315620   -2.0983270391
 15        -10.1618392144   -2.2538194197    8.5267405433   -2.0983314852
 16        -10.1618431651   -2.2538155200    8.5267449245   -2.0983337210
 17        -10.1618452923   -2.2538136252    8.5267470551   -2.0983348455
 18        -10.1618464380   -2.2538127080    8.5267480875   -2.0983354110
 19        -10.1618470552   -2.2538122659    8.5267485856   -2.0983356955
 20        -10.1618473878   -2.2538120540    8.5267488248   -2.0983358386
 21        -10.1618475670   -2.2538119530    8.5267489389   -2.0983359106
 22        -10.1618476637   -2.2538119053    8.5267489929   -2.0983359468
Atom SCF converged after  22 iterations to a total energy of    -10.16184766

Atom SCF Calculation for O  : Z (AE atom) =   8 : Z (PS atom) =   6
Config String:
Orbitals (num,occ):  2     2.00 4.00
Orbitals   (num,l):  2        0    1
Real-space Grid (nr,dr,rmax): 1203    0.0066555740    8.0000000000
Spherical Bessel Basis (nsws,lmax,cutoff):   47    1  176.3951722778
Confining potential (l,width,scale):  0    3.0000000000  100.0000000000
Confining potential (l,width,scale):  1    3.0000000000  100.0000000000
  1         -1.8735052164   -7.5539365035   10.1554312477   -2.4512393157
  2        -16.0318313751   -3.1285771268   13.6395848164   -3.2358799643
  3        -15.9524020423   -3.0762819706   13.6967272503   -3.2536856837
  4        -15.8521515939   -3.0781493909   13.6951909330   -3.2561700440
  5        -15.8357139793   -3.0748501933   13.6988803334   -3.2580493133
  6        -15.8246052853   -3.0740779781   13.6997881576   -3.2588327446
  7        -15.8189019501   -3.0737449687   13.7001869911   -3.2592378801
  8        -15.8159785510   -3.0736026016   13.7003615168   -3.2594475790
  9        -15.8144776168   -3.0735437994   13.7004360379   -3.2595560735
 10        -15.8137058024   -3.0735207882   13.7004667348   -3.2596122456
 11        -15.8133083127   -3.0735125946   13.7004786868   -3.2596413656
 12        -15.8131032938   -3.0735102195   13.7004828997   -3.2596564858
 13        -15.8129973902   -3.0735099286   13.7004840891   -3.2596643505
 14        -15.8129426040   -3.0735102506   13.7004842061   -3.2596684489
 15        -15.8129142203   -3.0735106556   13.7004840157   -3.2596705887
 16        -15.8128994940   -3.0735109855   13.7004837906   -3.2596717080
 17        -15.8128918425   -3.0735112169   13.7004836103   -3.2596722946
 18        -15.8128878614   -3.0735113674   13.7004834848   -3.2596726026
 19        -15.8128857871   -3.0735114608   13.7004834035   -3.2596727646
 20        -15.8128847048   -3.0735115170   13.7004833533   -3.2596728500
 21        -15.8128841394   -3.0735115501   13.7004833231   -3.2596728951
 22        -15.8128838436   -3.0735115693   13.7004833054   -3.2596729190
 23        -15.8128836887   -3.0735115802   13.7004832951   -3.2596729316
 24        -15.8128836074   -3.0735115864   13.7004832893   -3.2596729383
Atom SCF converged after  24 iterations to a total energy of    -15.81288361

========================== Calculation in vacuum ==============================
= Adjusting the following parameters: 
= is_implicit_solvent: F
= is_include_apolar: F
= write_denskern: T
= write_tightbox_ngwfs: T
= restart read filename prefix: ""
= restart write filename prefix: "vacuum_"
===============================================================================

Determining parallel strategy ...
... using space-filling curve
... NGWF load balancing: max    219;  min    218;  average    218
... Projector load balancing: max     47;  min     43;  average     44
... done
Calculating direct Ion-Ion energy ...
Ion-Ion Energy        :    841655.49710054812022
======================= Empirical dispersion information =======================
Model : Elstner
Dispersion Correction Energy: -0.32861488E+01 Hartree
================================================================================
Basis initialisation ...... NGWF spheres initialised
... Projector spheres initialised
... NGWF tight boxes initialised
... Tight-boxes gathered
... NGWF basis size (local,global):    1307686  39257515
... Nonlocal pseudopotential projector initialisation
... done

========================== Sparse matrix information ===========================
                        Overlap matrix filling:   6.83%
                        Density kernel filling: 100.00%
              NGWF-Proj overlap matrix filling:   1.77%
                    Hamiltonian matrix filling:   7.71%
                  NGWF diagonal matrix filling:   0.05%
                             KS matrix filling: 100.00% 
                           KSKS matrix filling: 100.00% 
================================================================================

Sparse matrix initialisation ... done

Generating smeared ion density ... done
Smeared ion self correction:     -14534.963309
Smeared ion non-self correction: -841607.150221
NGWF initialisation ...... done
============ Calculation of NGWF S^-1 using Hotelling algorithm ================ 
         Iteration  |  Frobenius norm and Maximum abs value    (of I-S*S_n^-1)   
               1       0.78732435E+02     0.98264532E+00
               2       0.76883581E+02     0.96578249E+00
               3       0.73886486E+02     0.93341825E+00
               4       0.69621215E+02     0.87348252E+00
               5       0.64304802E+02     0.76942527E+00
               6       0.58328484E+02     0.70729608E+00
               7       0.52313913E+02     0.67206956E+00
               8       0.46752791E+02     0.64765483E+00
               9       0.40685423E+02     0.60976028E+00
              10       0.32425285E+02     0.54433086E+00
              11       0.21844622E+02     0.43756627E+00
              12       0.11205487E+02     0.28890687E+00
              13       0.37226990E+01     0.13230224E+00
              14       0.60356210E+00     0.37734572E-01
              15       0.31899264E-01     0.41643470E-02
              16       0.23627978E-03     0.54108987E-04
              17       0.30593552E-07     0.92719303E-08
              18       0.98013346E-13     0.59952043E-14
================================================================================
Calculating local pseudopotential in open BC on the fine real space grid ...
... done

MG BCs: +ve charge blocks (gridpoints):     20651 (   16224483).
MG BCs: -ve charge blocks (gridpoints):      8201 (    1102342).
MG BCs:     Elided blocks (gridpoints):    179989 (  178969640).
MG BCs: Computational effort saved:  99.9853%.
MG BCs: Charge after coarse-graining:           -9.0002278.
MG DL_MG: Calling solver with defect correction order = 8
MG DL_MG: Solver finished
MG Hartree energy from (\int phi*rho dr):              1471.984848
MG Hartree energy from (\int eps (grad phi)^2 dr):     1471.373107
MG Discrepancy due to finite box and discretization:     -0.611740 (  -0.04156%)
MG Correction to account for finite box:                  0.464209
MG Remaining discrepancy, due to discretization:         -0.147531 (  -0.01002%)
Up spin density kernel initialisation ... 
======= Optimisation of K by Palser-Manolopoulos canonical purification ======== 
         Iteration  |  Band structure energy |    c_n   
               1       -2602.21417298627375    0.5269558
               2       -2779.09507814838935    0.5171340
               3       -2960.50313893309340    0.5155041
               4       -3112.12706176971278    0.5290761
               5       -3205.48273029755910    0.5649161
               6       -3244.59223478900094    0.6098660
               7       -3257.89444513710578    0.6220414
               8       -3263.65389587377740    0.6207144
               9       -3266.44892155314301    0.6369314
              10       -3267.60071525907370    0.6691502
              11       -3268.03723527268585    0.6947189
              12       -3268.22358769650191    0.6882540
              13       -3268.32559241997478    0.6436528
              14       -3268.39286360620827    0.5757973
              15       -3268.43390081264715    0.5101711
              16       -3268.44997252585472    0.4718000
              17       -3268.45285045764012    0.4510970
              18       -3268.45421773514727    0.4524933
              19       -3268.45481674318762    0.4835554
              20       -3268.45501546560854    0.4984083
              21       -3268.45503640111383    0.4999849
              22       -3268.45503660641180    0.4999849
Termination criterion satisfied: band energy change below threshold.
Final occupancy bounds: [    0.00000000000099:    0.99999999999997]
Closest occupancy to 0.5:     0.99999999999990
================================================================================
... done

Writing density kernel to file "complex_6561.vacuum_dkn" ... done

>>> Optimising kernel for current NGWFs:
   Initial electron number for spin 1:    7234.00000000
     Final electron number for spin 1:    7234.00000000

=================== Penalty functional idempotency correction ==================
 RMS occupancy error at iteration   1:  0.000000 (step -0.5000 Ne1=   7234.0000)
            Final RMS occupancy error   :  0.000000 (Ne1=   7234.0000)
               Final occupancy bounds   : [  0.0000,  1.0000]
================================================================================

................................................................................
<<<<<<<<<<<<<< LNV (Original version) density kernel optimisation >>>>>>>>>>>>>>
~~~~~~~~~~~~~~~~~~~~~~~~~~~~~~~~~~~~~~~~~~~~~~~~~~~~~~~~~~~~~~~~~~~~~~~~~~~~~~~~
   iter  |      energy (Eh)       | rms gradient |  commutator  |   dE (Eh)
MG BCs: +ve charge blocks (gridpoints):     31067 (   17312778).
MG BCs: -ve charge blocks (gridpoints):      8515 (    1136506).
MG BCs:     Elided blocks (gridpoints):    169559 (  177847181).
MG BCs: Computational effort saved:  99.9798%.
MG BCs: Charge after coarse-graining:           -9.0009699.
MG DL_MG: Calling solver with defect correction order = 8
MG DL_MG: Solver finished
MG Hartree energy from (\int phi*rho dr):              1425.565691
MG Hartree energy from (\int eps (grad phi)^2 dr):     1424.906383
MG Discrepancy due to finite box and discretization:     -0.659307 (  -0.04625%)
MG Correction to account for finite box:                  0.470403
MG Remaining discrepancy, due to discretization:         -0.188905 (  -0.01325%)
      ideal mu1:      -0.707440302281
             Q0:  -11569.396939348080
             G0:    -143.297276490660
   RMS gradient:       0.001828981519
MG BCs: +ve charge blocks (gridpoints):     31043 (   17398873).
MG BCs: -ve charge blocks (gridpoints):      8443 (    1115708).
MG BCs:     Elided blocks (gridpoints):    169583 (  177781884).
MG BCs: Computational effort saved:  99.9799%.
MG BCs: Charge after coarse-graining:           -9.0009902.
MG DL_MG: Calling solver with defect correction order = 8
MG DL_MG: Solver finished
MG Hartree energy from (\int phi*rho dr):              1451.721537
MG Hartree energy from (\int eps (grad phi)^2 dr):     1451.077989
MG Discrepancy due to finite box and discretization:     -0.643548 (  -0.04433%)
MG Correction to account for finite box:                  0.470041
MG Remaining discrepancy, due to discretization:         -0.173507 (  -0.01195%)
     Trial step:       0.500000000000
             Q1:  -11580.482479193946
 Quadratic coef:      60.563098399463
 Linear coef   :     -71.648638245330
           Qmin:  -11590.587761391853
Quadratic minimum step length (  0.295760290254) accepted
    Initial Ne1:    7234.00000000
      Final Ne1:    7234.00000000

=================== Penalty functional idempotency correction ==================
 RMS occupancy error at iteration   1:  0.003337 (step -0.4887 Ne1=   7234.0000)
 RMS occupancy error at iteration   2:  0.000025 (step -0.5000 Ne1=   7234.0000)
            Final RMS occupancy error   :  0.000000 (Ne1=   7234.0000)
               Final occupancy bounds   : [  0.0000,  1.0000]
================================================================================

    1        -1.156939693935E+04     1.8290E-03     1.6548E-03
MG BCs: +ve charge blocks (gridpoints):     31050 (   17365653).
MG BCs: -ve charge blocks (gridpoints):      8464 (    1124726).
MG BCs:     Elided blocks (gridpoints):    169576 (  177806086).
MG BCs: Computational effort saved:  99.9799%.
MG BCs: Charge after coarse-graining:           -9.0009815.
MG DL_MG: Calling solver with defect correction order = 8
MG DL_MG: Solver finished
MG Hartree energy from (\int phi*rho dr):              1433.122003
MG Hartree energy from (\int eps (grad phi)^2 dr):     1432.472917
MG Discrepancy due to finite box and discretization:     -0.649086 (  -0.04529%)
MG Correction to account for finite box:                  0.470098
MG Remaining discrepancy, due to discretization:         -0.178989 (  -0.01249%)
      ideal mu1:      -0.751689616080
             Q0:  -11590.984103953117
             G0:     -11.693708044630
   RMS gradient:       0.000518978399
MG BCs: +ve charge blocks (gridpoints):     31053 (   17383624).
MG BCs: -ve charge blocks (gridpoints):      8447 (    1119191).
MG BCs:     Elided blocks (gridpoints):    169573 (  177793650).
MG BCs: Computational effort saved:  99.9799%.
MG BCs: Charge after coarse-graining:           -9.0009852.
MG DL_MG: Calling solver with defect correction order = 8
MG DL_MG: Solver finished
MG Hartree energy from (\int phi*rho dr):              1438.573050
MG Hartree energy from (\int eps (grad phi)^2 dr):     1437.927558
MG Discrepancy due to finite box and discretization:     -0.645492 (  -0.04487%)
MG Correction to account for finite box:                  0.469650
MG Remaining discrepancy, due to discretization:         -0.175842 (  -0.01222%)
     Trial step:       0.384551875730
             Q1:  -11593.730954388971
 Quadratic coef:       1.749986926943
 Linear coef   :      -4.496837362798
           Qmin:  -11593.872917857398
Quadratic minimum step length (  0.494080045997) accepted
    Initial Ne1:    7233.99991600
      Final Ne1:    7234.00000000

=================== Penalty functional idempotency correction ==================
 RMS occupancy error at iteration   1:  0.001749 (step -0.4934 Ne1=   7234.0000)
 RMS occupancy error at iteration   2:  0.000009 (step -0.5000 Ne1=   7234.0000)
            Final RMS occupancy error   :  0.000000 (Ne1=   7234.0000)
               Final occupancy bounds   : [  0.0000,  1.0000]
================================================================================

    2        -1.159098410395E+04     5.1898E-04     4.6955E-04    -2.1587E+01
MG BCs: +ve charge blocks (gridpoints):     31048 (   17388730).
MG BCs: -ve charge blocks (gridpoints):      8440 (    1117604).
MG BCs:     Elided blocks (gridpoints):    169578 (  177790131).
MG BCs: Computational effort saved:  99.9799%.
MG BCs: Charge after coarse-graining:           -9.0009864.
MG DL_MG: Calling solver with defect correction order = 8
MG DL_MG: Solver finished
MG Hartree energy from (\int phi*rho dr):              1440.165757
MG Hartree energy from (\int eps (grad phi)^2 dr):     1439.521212
MG Discrepancy due to finite box and discretization:     -0.644545 (  -0.04475%)
MG Correction to account for finite box:                  0.469536
MG Remaining discrepancy, due to discretization:         -0.175009 (  -0.01215%)
      ideal mu1:      -0.775615765874
             Q0:  -11593.907453722553
             G0:      -1.829574594460
   RMS gradient:       0.000205421868
MG BCs: +ve charge blocks (gridpoints):     31059 (   17387925).
MG BCs: -ve charge blocks (gridpoints):      8450 (    1118704).
MG BCs:     Elided blocks (gridpoints):    169567 (  177789836).
MG BCs: Computational effort saved:  99.9799%.
MG BCs: Charge after coarse-graining:           -9.0009860.
MG DL_MG: Calling solver with defect correction order = 8
MG DL_MG: Solver finished
MG Hartree energy from (\int phi*rho dr):              1437.989841
MG Hartree energy from (\int eps (grad phi)^2 dr):     1437.345724
MG Discrepancy due to finite box and discretization:     -0.644117 (  -0.04479%)
MG Correction to account for finite box:                  0.469288
MG Remaining discrepancy, due to discretization:         -0.174829 (  -0.01216%)
     Trial step:       0.435889215798
             Q1:  -11594.367559539969
 Quadratic coef:       0.337386017807
 Linear coef   :      -0.797491835222
           Qmin:  -11594.378718974875
Quadratic minimum step length (  0.515163747626) accepted
    Initial Ne1:    7233.99996727
      Final Ne1:    7234.00000000

=================== Penalty functional idempotency correction ==================
 RMS occupancy error at iteration   1:  0.000576 (step -0.4977 Ne1=   7234.0000)
 RMS occupancy error at iteration   2:  0.000001 (step -0.5000 Ne1=   7234.0000)
            Final RMS occupancy error   :  0.000000 (Ne1=   7234.0000)
               Final occupancy bounds   : [  0.0000,  1.0000]
================================================================================

    3        -1.159390745372E+04     2.0542E-04     1.8586E-04    -2.9233E+00
MG BCs: +ve charge blocks (gridpoints):     31062 (   17387801).
MG BCs: -ve charge blocks (gridpoints):      8449 (    1118869).
MG BCs:     Elided blocks (gridpoints):    169564 (  177789795).
MG BCs: Computational effort saved:  99.9799%.
MG BCs: Charge after coarse-graining:           -9.0009860.
MG DL_MG: Calling solver with defect correction order = 8
MG DL_MG: Solver finished
MG Hartree energy from (\int phi*rho dr):              1437.602162
MG Hartree energy from (\int eps (grad phi)^2 dr):     1436.958114
MG Discrepancy due to finite box and discretization:     -0.644048 (  -0.04480%)
MG Correction to account for finite box:                  0.469243
MG Remaining discrepancy, due to discretization:         -0.174805 (  -0.01216%)
      ideal mu1:      -0.776211237169
             Q0:  -11594.382932420936
             G0:      -0.420298380914
   RMS gradient:       0.000098564471
MG BCs: +ve charge blocks (gridpoints):     31063 (   17388682).
MG BCs: -ve charge blocks (gridpoints):      8449 (    1118655).
MG BCs:     Elided blocks (gridpoints):    169564 (  177789128).
MG BCs: Computational effort saved:  99.9799%.
MG BCs: Charge after coarse-graining:           -9.0009862.
MG DL_MG: Calling solver with defect correction order = 8
MG DL_MG: Solver finished
MG Hartree energy from (\int phi*rho dr):              1438.807119
MG Hartree energy from (\int eps (grad phi)^2 dr):     1438.163080
MG Discrepancy due to finite box and discretization:     -0.644039 (  -0.04476%)
MG Correction to account for finite box:                  0.469135
MG Remaining discrepancy, due to discretization:         -0.174904 (  -0.01216%)
     Trial step:       0.473871630254
             Q1:  -11594.479300697567
 Quadratic coef:       0.102799202326
 Linear coef   :      -0.199167478957
           Qmin:  -11594.479401274237
Quadratic minimum step length (  0.459049369116) accepted
    Initial Ne1:    7233.99999316
      Final Ne1:    7234.00000000

=================== Penalty functional idempotency correction ==================
 RMS occupancy error at iteration   1:  0.000181 (step -0.4992 Ne1=   7234.0000)
            Final RMS occupancy error   :  0.000000 (Ne1=   7234.0000)
               Final occupancy bounds   : [ -0.0000,  1.0000]
================================================================================

    4        -1.159438293242E+04     9.8564E-05     8.9177E-05    -4.7548E-01
MG BCs: +ve charge blocks (gridpoints):     31063 (   17388670).
MG BCs: -ve charge blocks (gridpoints):      8449 (    1118650).
MG BCs:     Elided blocks (gridpoints):    169564 (  177789145).
MG BCs: Computational effort saved:  99.9799%.
MG BCs: Charge after coarse-graining:           -9.0009861.
MG DL_MG: Calling solver with defect correction order = 8
MG DL_MG: Solver finished
MG Hartree energy from (\int phi*rho dr):              1438.769426
MG Hartree energy from (\int eps (grad phi)^2 dr):     1438.125387
MG Discrepancy due to finite box and discretization:     -0.644039 (  -0.04476%)
MG Correction to account for finite box:                  0.469139
MG Remaining discrepancy, due to discretization:         -0.174900 (  -0.01216%)
      ideal mu1:      -0.776341634089
             Q0:  -11594.479801609647
             G0:      -0.102519740449
   RMS gradient:       0.000048824587
MG BCs: +ve charge blocks (gridpoints):     31058 (   17388903).
MG BCs: -ve charge blocks (gridpoints):      8447 (    1118473).
MG BCs:     Elided blocks (gridpoints):    169569 (  177789089).
MG BCs: Computational effort saved:  99.9799%.
MG BCs: Charge after coarse-graining:           -9.0009861.
MG DL_MG: Calling solver with defect correction order = 8
MG DL_MG: Solver finished
MG Hartree energy from (\int phi*rho dr):              1439.151801
MG Hartree energy from (\int eps (grad phi)^2 dr):     1438.507624
MG Discrepancy due to finite box and discretization:     -0.644177 (  -0.04476%)
MG Correction to account for finite box:                  0.469139
MG Remaining discrepancy, due to discretization:         -0.175037 (  -0.01216%)
     Trial step:       0.466401621899
             Q1:  -11594.504990586895
 Quadratic coef:       0.022626395974
 Linear coef   :      -0.047815373222
           Qmin:  -11594.505063143995
Quadratic minimum step length (  0.492813076554) accepted
    Initial Ne1:    7234.00155393
      Final Ne1:    7234.00000000

=================== Penalty functional idempotency correction ==================
 RMS occupancy error at iteration   1:  0.000064 (step -0.4997 Ne1=   7234.0000)
            Final RMS occupancy error   :  0.000000 (Ne1=   7234.0000)
               Final occupancy bounds   : [ -0.0000,  1.0000]
================================================================================

    5        -1.159447980161E+04     4.8825E-05     4.4174E-05    -9.6869E-02
MG BCs: +ve charge blocks (gridpoints):     31058 (   17388938).
MG BCs: -ve charge blocks (gridpoints):      8448 (    1118452).
MG BCs:     Elided blocks (gridpoints):    169569 (  177789075).
MG BCs: Computational effort saved:  99.9799%.
MG BCs: Charge after coarse-graining:           -9.0009861.
MG DL_MG: Calling solver with defect correction order = 8
MG DL_MG: Solver finished
MG Hartree energy from (\int phi*rho dr):              1439.173484
MG Hartree energy from (\int eps (grad phi)^2 dr):     1438.529299
MG Discrepancy due to finite box and discretization:     -0.644185 (  -0.04476%)
MG Correction to account for finite box:                  0.469139
MG Remaining discrepancy, due to discretization:         -0.175045 (  -0.01216%)
      ideal mu1:      -0.776284300859
             Q0:  -11594.505110234371
             G0:      -0.031045957784
   RMS gradient:       0.000026888163
MG BCs: +ve charge blocks (gridpoints):     31060 (   17388564).
MG BCs: -ve charge blocks (gridpoints):      8448 (    1118703).
MG BCs:     Elided blocks (gridpoints):    169567 (  177789198).
MG BCs: Computational effort saved:  99.9799%.
MG BCs: Charge after coarse-graining:           -9.0009860.
MG DL_MG: Calling solver with defect correction order = 8
MG DL_MG: Solver finished
MG Hartree energy from (\int phi*rho dr):              1438.536882
MG Hartree energy from (\int eps (grad phi)^2 dr):     1437.892700
MG Discrepancy due to finite box and discretization:     -0.644182 (  -0.04478%)
MG Correction to account for finite box:                  0.469149
MG Remaining discrepancy, due to discretization:         -0.175033 (  -0.01217%)
     Trial step:       0.479425508497
             Q1:  -11594.514855781337
 Quadratic coef:       0.005138677132
 Linear coef   :      -0.014884224098
           Qmin:  -11594.515888306300
Quadratic minimum step length (  0.694330128485) accepted
    Initial Ne1:    7234.00096061
      Final Ne1:    7234.00000000

=================== Penalty functional idempotency correction ==================
 RMS occupancy error at iteration   1:  0.000039 (step -0.4998 Ne1=   7234.0000)
            Final RMS occupancy error   :  0.000000 (Ne1=   7234.0000)
               Final occupancy bounds   : [ -0.0000,  1.0000]
================================================================================

    6        -1.159450511023E+04     2.6888E-05     2.4327E-05    -2.5309E-02
MG BCs: +ve charge blocks (gridpoints):     31061 (   17388408).
MG BCs: -ve charge blocks (gridpoints):      8448 (    1118802).
MG BCs:     Elided blocks (gridpoints):    169566 (  177789255).
MG BCs: Computational effort saved:  99.9799%.
MG BCs: Charge after coarse-graining:           -9.0009860.
MG DL_MG: Calling solver with defect correction order = 8
MG DL_MG: Solver finished
MG Hartree energy from (\int phi*rho dr):              1438.250824
MG Hartree energy from (\int eps (grad phi)^2 dr):     1437.606643
MG Discrepancy due to finite box and discretization:     -0.644181 (  -0.04479%)
MG Correction to account for finite box:                  0.469153
MG Remaining discrepancy, due to discretization:         -0.175028 (  -0.01217%)
      ideal mu1:      -0.776133335038
             Q0:  -11594.515896950732
             G0:      -0.015901689645
   RMS gradient:       0.000019266906
MG BCs: +ve charge blocks (gridpoints):     31059 (   17388756).
MG BCs: -ve charge blocks (gridpoints):      8449 (    1118545).
MG BCs:     Elided blocks (gridpoints):    169568 (  177789164).
MG BCs: Computational effort saved:  99.9799%.
MG BCs: Charge after coarse-graining:           -9.0009862.
MG DL_MG: Calling solver with defect correction order = 8
MG DL_MG: Solver finished
MG Hartree energy from (\int phi*rho dr):              1438.882494
MG Hartree energy from (\int eps (grad phi)^2 dr):     1438.238349
MG Discrepancy due to finite box and discretization:     -0.644144 (  -0.04477%)
MG Correction to account for finite box:                  0.469132
MG Remaining discrepancy, due to discretization:         -0.175012 (  -0.01216%)
     Trial step:       0.576957169046
             Q1:  -11594.520095933927
 Quadratic coef:       0.004975610645
 Linear coef   :      -0.009174593841
           Qmin:  -11594.520126239262
Quadratic minimum step length (  0.531929452143) accepted
    Initial Ne1:    7234.00016012
      Final Ne1:    7234.00000000

=================== Penalty functional idempotency correction ==================
 RMS occupancy error at iteration   1:  0.000002 (step -0.5000 Ne1=   7234.0000)
            Final RMS occupancy error   :  0.000000 (Ne1=   7234.0000)
               Final occupancy bounds   : [  0.0000,  1.0000]
================================================================================

    7        -1.159451589695E+04     1.9267E-05     1.7432E-05    -1.0787E-02
MG BCs: +ve charge blocks (gridpoints):     31059 (   17388732).
MG BCs: -ve charge blocks (gridpoints):      8449 (    1118561).
MG BCs:     Elided blocks (gridpoints):    169568 (  177789172).
MG BCs: Computational effort saved:  99.9799%.
MG BCs: Charge after coarse-graining:           -9.0009861.
MG DL_MG: Calling solver with defect correction order = 8
MG DL_MG: Solver finished
MG Hartree energy from (\int phi*rho dr):              1438.833130
MG Hartree energy from (\int eps (grad phi)^2 dr):     1438.188983
MG Discrepancy due to finite box and discretization:     -0.644147 (  -0.04477%)
MG Correction to account for finite box:                  0.469134
MG Remaining discrepancy, due to discretization:         -0.175013 (  -0.01216%)
      ideal mu1:      -0.776398547100
             Q0:  -11594.520126354531
             G0:      -0.009477052820
   RMS gradient:       0.000014874606
MG BCs: +ve charge blocks (gridpoints):     31060 (   17388777).
MG BCs: -ve charge blocks (gridpoints):      8450 (    1118532).
MG BCs:     Elided blocks (gridpoints):    169567 (  177789156).
MG BCs: Computational effort saved:  99.9799%.
MG BCs: Charge after coarse-graining:           -9.0009862.
MG DL_MG: Calling solver with defect correction order = 8
MG DL_MG: Solver finished
MG Hartree energy from (\int phi*rho dr):              1438.868345
MG Hartree energy from (\int eps (grad phi)^2 dr):     1438.224235
MG Discrepancy due to finite box and discretization:     -0.644110 (  -0.04477%)
MG Correction to account for finite box:                  0.469126
MG Remaining discrepancy, due to discretization:         -0.174984 (  -0.01216%)
     Trial step:       0.553986020438
             Q1:  -11594.524022091995
 Quadratic coef:       0.001354417314
 Linear coef   :      -0.005250154777
           Qmin:  -11594.525214174380
Quadratic minimum step length (  1.073713515321) accepted
    Initial Ne1:    7234.00019120
      Final Ne1:    7234.00000000

=================== Penalty functional idempotency correction ==================
 RMS occupancy error at iteration   1:  0.000028 (step -0.4991 Ne1=   7234.0000)
            Final RMS occupancy error   :  0.000000 (Ne1=   7234.0000)
               Final occupancy bounds   : [ -0.0000,  1.0000]
================================================================================

    8        -1.159452012635E+04     1.4875E-05     1.3458E-05    -4.2294E-03
MG BCs: +ve charge blocks (gridpoints):     31061 (   17388823).
MG BCs: -ve charge blocks (gridpoints):      8448 (    1118518).
MG BCs:     Elided blocks (gridpoints):    169566 (  177789124).
MG BCs: Computational effort saved:  99.9799%.
MG BCs: Charge after coarse-graining:           -9.0009862.
MG DL_MG: Calling solver with defect correction order = 8
MG DL_MG: Solver finished
MG Hartree energy from (\int phi*rho dr):              1438.899467
MG Hartree energy from (\int eps (grad phi)^2 dr):     1438.255393
MG Discrepancy due to finite box and discretization:     -0.644074 (  -0.04476%)
MG Correction to account for finite box:                  0.469119
MG Remaining discrepancy, due to discretization:         -0.174956 (  -0.01216%)
      ideal mu1:      -0.776398479658
             Q0:  -11594.525198002695
             G0:      -0.014435524088
   RMS gradient:       0.000018413958
MG BCs: +ve charge blocks (gridpoints):     31061 (   17388698).
MG BCs: -ve charge blocks (gridpoints):      8448 (    1118690).
MG BCs:     Elided blocks (gridpoints):    169566 (  177789077).
MG BCs: Computational effort saved:  99.9799%.
MG BCs: Charge after coarse-graining:           -9.0009861.
MG DL_MG: Calling solver with defect correction order = 8
MG DL_MG: Solver finished
MG Hartree energy from (\int phi*rho dr):              1438.567617
MG Hartree energy from (\int eps (grad phi)^2 dr):     1437.923601
MG Discrepancy due to finite box and discretization:     -0.644016 (  -0.04477%)
MG Correction to account for finite box:                  0.469106
MG Remaining discrepancy, due to discretization:         -0.174910 (  -0.01216%)
     Trial step:       0.771247222000
             Q1:  -11594.532203746028
 Quadratic coef:       0.004127614518
 Linear coef   :      -0.011133357851
           Qmin:  -11594.532705465934
Quadratic minimum step length (  1.040137260357) accepted
    Initial Ne1:    7234.00063156
      Final Ne1:    7234.00000000

=================== Penalty functional idempotency correction ==================
 RMS occupancy error at iteration   1:  0.000173 (step -0.4941 Ne1=   7234.0000)
 RMS occupancy error at iteration   2:  0.000001 (step -0.5000 Ne1=   7234.0000)
            Final RMS occupancy error   :  0.000000 (Ne1=   7234.0000)
               Final occupancy bounds   : [  0.0000,  1.0000]
================================================================================

    9        -1.159452519800E+04     1.8414E-05     1.6660E-05    -5.0716E-03
MG BCs: +ve charge blocks (gridpoints):     31061 (   17388658).
MG BCs: -ve charge blocks (gridpoints):      8448 (    1118742).
MG BCs:     Elided blocks (gridpoints):    169566 (  177789065).
MG BCs: Computational effort saved:  99.9799%.
MG BCs: Charge after coarse-graining:           -9.0009861.
MG DL_MG: Calling solver with defect correction order = 8
MG DL_MG: Solver finished
MG Hartree energy from (\int phi*rho dr):              1438.448121
MG Hartree energy from (\int eps (grad phi)^2 dr):     1437.804126
MG Discrepancy due to finite box and discretization:     -0.643995 (  -0.04477%)
MG Correction to account for finite box:                  0.469102
MG Remaining discrepancy, due to discretization:         -0.174893 (  -0.01216%)
      ideal mu1:      -0.775956664315
   10        -1.159453260993E+04     2.1250E-05     1.9226E-05    -7.4119E-03
Finished density kernel iterations (  10)

Writing density kernel to file "complex_6561.vacuum_dkn" ... done


>>> Density kernel optimised for the current NGWF basis:
     ~~~~~~~~~~~~~~~~~~~~~~~~~~~~~~~~~~~~~~~~~~~~~~~~~~~~~~~~~~~
     Total energy                =  -1.15945326099269E+04  Eh
     Estimated bandgap           =  -2.3020E-01  Eh
     RMS occupancy error         =   5.6977E-11
     [H,K] commutator            =   1.9226E-05
     Occupancy bounds            = [  0.000:  1.000]
     ~~~~~~~~~~~~~~~~~~~~~~~~~~~~~~~~~~~~~~~~~~~~~~~~~~~~~~~~~~~




################################################################################
########################### NGWF CG iteration  001 #############################
################################################################################
****** Reciprocal space K.E. preconditioning with k_zero =  3.5000 a0^-1 *******

>>> Checking for convergence of NGWFs:   NOT CONVERGED
  ========================================================================
         NGWF RMS gradient =  1.5632E-03 >  2.0000E-06  | above tolerance
  ========================================================================

>>> Improving NGWFs using line search:
============ Calculation of NGWF S^-1 using Hotelling algorithm ================ 
         Iteration  |  Frobenius norm and Maximum abs value    (of I-S*S_n^-1)   
               1       0.19199228E+00     0.48871051E-02
               2       0.84675383E-03     0.36612769E-04
               3       0.27665567E-07     0.20179886E-08
               4       0.13844207E-12     0.57731597E-14
================================================================================
MG BCs: +ve charge blocks (gridpoints):     30562 (   17336272).
MG BCs: -ve charge blocks (gridpoints):      8467 (    1118768).
MG BCs:     Elided blocks (gridpoints):    170064 (  177841425).
MG BCs: Computational effort saved:  99.9801%.
MG BCs: Charge after coarse-graining:           -9.0009870.
MG DL_MG: Calling solver with defect correction order = 8
MG DL_MG: Solver finished
MG Hartree energy from (\int phi*rho dr):              1406.937568
MG Hartree energy from (\int eps (grad phi)^2 dr):     1406.294220
MG Discrepancy due to finite box and discretization:     -0.643348 (  -0.04573%)
MG Correction to account for finite box:                  0.469049
MG Remaining discrepancy, due to discretization:         -0.174299 (  -0.01239%)
============ Calculation of NGWF S^-1 using Hotelling algorithm ================ 
         Iteration  |  Frobenius norm and Maximum abs value    (of I-S*S_n^-1)   
               1       0.18543371E+01     0.40341952E-01
               2       0.71020509E-01     0.22377321E-02
               3       0.13867605E-03     0.76193511E-05
               4       0.92984531E-09     0.10478800E-09
               5       0.11475414E-12     0.71054274E-14
================================================================================
------------------------------- NGWF line search -------------------------------
RMS gradient                =       0.00156320734658
Trial step length           =               0.122474
Gradient along search dir.  =       -271.40839208346
Functional at step 0        =  -11594.53260992688593
Functional at step 1        =  -11625.28401179565117
Functional predicted        =  -11705.50570866505223
Selected quadratic step     =               0.817757
--------------------------- NGWF line search finished --------------------------
                                               
Writing NGWFs to file "complex_6561.vacuum_tightbox_ngwfs"....  done

>>> Optimising kernel for current NGWFs:
   Initial electron number for spin 1:    7268.33158828
     Final electron number for spin 1:    7234.00000000

=================== Penalty functional idempotency correction ==================
 RMS occupancy error at iteration   1:  0.004200 (step -0.4866 Ne1=   7234.0000)
 RMS occupancy error at iteration   2:  0.000067 (step -0.5003 Ne1=   7234.0000)
            Final RMS occupancy error   :  0.000000 (Ne1=   7234.0000)
               Final occupancy bounds   : [  0.0000,  1.0000]
================================================================================

................................................................................
<<<<<<<<<<<<<< LNV (Original version) density kernel optimisation >>>>>>>>>>>>>>
~~~~~~~~~~~~~~~~~~~~~~~~~~~~~~~~~~~~~~~~~~~~~~~~~~~~~~~~~~~~~~~~~~~~~~~~~~~~~~~~
   iter  |      energy (Eh)       | rms gradient |  commutator  |   dE (Eh)
MG BCs: +ve charge blocks (gridpoints):     24722 (   17091783).
MG BCs: -ve charge blocks (gridpoints):      8590 (    1102597).
MG BCs:     Elided blocks (gridpoints):    175918 (  178102085).
MG BCs: Computational effort saved:  99.9830%.
MG BCs: Charge after coarse-graining:           -9.0006581.
MG DL_MG: Calling solver with defect correction order = 8
MG DL_MG: Solver finished
MG Hartree energy from (\int phi*rho dr):              1250.599018
MG Hartree energy from (\int eps (grad phi)^2 dr):     1249.954930
MG Discrepancy due to finite box and discretization:     -0.644088 (  -0.05150%)
MG Correction to account for finite box:                  0.468788
MG Remaining discrepancy, due to discretization:         -0.175300 (  -0.01402%)
      ideal mu1:      -0.716176091099
             Q0:  -11704.682552731130
             G0:      -9.891110159703
   RMS gradient:       0.000480521549
MG BCs: +ve charge blocks (gridpoints):     24808 (   17109717).
MG BCs: -ve charge blocks (gridpoints):      8578 (    1097830).
MG BCs:     Elided blocks (gridpoints):    175832 (  178088918).
MG BCs: Computational effort saved:  99.9830%.
MG BCs: Charge after coarse-graining:           -9.0006538.
MG DL_MG: Calling solver with defect correction order = 8
MG DL_MG: Solver finished
MG Hartree energy from (\int phi*rho dr):              1271.420926
MG Hartree energy from (\int eps (grad phi)^2 dr):     1270.770042
MG Discrepancy due to finite box and discretization:     -0.650884 (  -0.05119%)
MG Correction to account for finite box:                  0.468337
MG Remaining discrepancy, due to discretization:         -0.182547 (  -0.01436%)
     Trial step:       0.895657843459
             Q1:  -11701.543320873519
 Quadratic coef:      11.998282252665
 Linear coef   :      -8.859050395054
           Qmin:  -11706.317844605612
Quadratic minimum step length (  0.330658914536) accepted
    Initial Ne1:    7233.99963344
      Final Ne1:    7234.00000000

=================== Penalty functional idempotency correction ==================
 RMS occupancy error at iteration   1:  0.000358 (step -0.4986 Ne1=   7234.0000)
 RMS occupancy error at iteration   2:  0.000000 (step -0.5000 Ne1=   7234.0000)
            Final RMS occupancy error   :  0.000000 (Ne1=   7234.0000)
               Final occupancy bounds   : [  0.0000,  1.0000]
================================================================================

    1        -1.170468255273E+04     4.8052E-04     4.3475E-04
MG BCs: +ve charge blocks (gridpoints):     24753 (   17098611).
MG BCs: -ve charge blocks (gridpoints):      8577 (    1100777).
MG BCs:     Elided blocks (gridpoints):    175887 (  178097077).
MG BCs: Computational effort saved:  99.9830%.
MG BCs: Charge after coarse-graining:           -9.0006564.
MG DL_MG: Calling solver with defect correction order = 8
MG DL_MG: Solver finished
MG Hartree energy from (\int phi*rho dr):              1256.912789
MG Hartree energy from (\int eps (grad phi)^2 dr):     1256.266323
MG Discrepancy due to finite box and discretization:     -0.646465 (  -0.05143%)
MG Correction to account for finite box:                  0.468597
MG Remaining discrepancy, due to discretization:         -0.177869 (  -0.01415%)
      ideal mu1:      -0.722255646531
             Q0:  -11706.279495576862
             G0:      -0.990720675551
   RMS gradient:       0.000153362179
MG BCs: +ve charge blocks (gridpoints):     24755 (   17098463).
MG BCs: -ve charge blocks (gridpoints):      8577 (    1101591).
MG BCs:     Elided blocks (gridpoints):    175885 (  178096411).
MG BCs: Computational effort saved:  99.9830%.
MG BCs: Charge after coarse-graining:           -9.0006564.
MG DL_MG: Calling solver with defect correction order = 8
MG DL_MG: Solver finished
MG Hartree energy from (\int phi*rho dr):              1258.202781
MG Hartree energy from (\int eps (grad phi)^2 dr):     1257.555920
MG Discrepancy due to finite box and discretization:     -0.646861 (  -0.05141%)
MG Correction to account for finite box:                  0.468606
MG Remaining discrepancy, due to discretization:         -0.178255 (  -0.01417%)
     Trial step:       0.544203317074
             Q1:  -11706.471630477929
 Quadratic coef:       0.347018576862
 Linear coef   :      -0.539153477928
           Qmin:  -11706.488912660085
Quadratic minimum step length (  0.422757066428) accepted
    Initial Ne1:    7233.99995225
      Final Ne1:    7234.00000000

=================== Penalty functional idempotency correction ==================
 RMS occupancy error at iteration   1:  0.000142 (step -0.4994 Ne1=   7234.0000)
            Final RMS occupancy error   :  0.000000 (Ne1=   7234.0000)
               Final occupancy bounds   : [ -0.0000,  1.0000]
================================================================================

    2        -1.170627949558E+04     1.5336E-04     1.3876E-04    -1.5969E+00
MG BCs: +ve charge blocks (gridpoints):     24753 (   17098436).
MG BCs: -ve charge blocks (gridpoints):      8576 (    1101464).
MG BCs:     Elided blocks (gridpoints):    175887 (  178096565).
MG BCs: Computational effort saved:  99.9830%.
MG BCs: Charge after coarse-graining:           -9.0006564.
MG DL_MG: Calling solver with defect correction order = 8
MG DL_MG: Solver finished
MG Hartree energy from (\int phi*rho dr):              1257.914308
MG Hartree energy from (\int eps (grad phi)^2 dr):     1257.267538
MG Discrepancy due to finite box and discretization:     -0.646769 (  -0.05142%)
MG Correction to account for finite box:                  0.468603
MG Remaining discrepancy, due to discretization:         -0.178166 (  -0.01416%)
      ideal mu1:      -0.723190107653
             Q0:  -11706.489403159125
             G0:      -0.146103090674
   RMS gradient:       0.000058333590
MG BCs: +ve charge blocks (gridpoints):     24757 (   17097884).
MG BCs: -ve charge blocks (gridpoints):      8581 (    1101857).
MG BCs:     Elided blocks (gridpoints):    175883 (  178096724).
MG BCs: Computational effort saved:  99.9830%.
MG BCs: Charge after coarse-graining:           -9.0006563.
MG DL_MG: Calling solver with defect correction order = 8
MG DL_MG: Solver finished
MG Hartree energy from (\int phi*rho dr):              1257.419089
MG Hartree energy from (\int eps (grad phi)^2 dr):     1256.772352
MG Discrepancy due to finite box and discretization:     -0.646737 (  -0.05143%)
MG Correction to account for finite box:                  0.468593
MG Remaining discrepancy, due to discretization:         -0.178144 (  -0.01417%)
     Trial step:       0.479651746444
             Q1:  -11706.534127670457
 Quadratic coef:       0.025354091271
 Linear coef   :      -0.070078602603
           Qmin:  -11706.537827400505
Quadratic minimum step length (  0.662877714045) accepted
    Initial Ne1:    7234.00060200
      Final Ne1:    7234.00000000

=================== Penalty functional idempotency correction ==================
 RMS occupancy error at iteration   1:  0.000062 (step -0.4998 Ne1=   7234.0000)
            Final RMS occupancy error   :  0.000000 (Ne1=   7234.0000)
               Final occupancy bounds   : [ -0.0000,  1.0000]
================================================================================

    3        -1.170648940316E+04     5.8334E-05     5.2778E-05    -2.0991E-01
MG BCs: +ve charge blocks (gridpoints):     24757 (   17097625).
MG BCs: -ve charge blocks (gridpoints):      8585 (    1102026).
MG BCs:     Elided blocks (gridpoints):    175883 (  178096814).
MG BCs: Computational effort saved:  99.9830%.
MG BCs: Charge after coarse-graining:           -9.0006563.
MG DL_MG: Calling solver with defect correction order = 8
MG DL_MG: Solver finished
MG Hartree energy from (\int phi*rho dr):              1257.229949
MG Hartree energy from (\int eps (grad phi)^2 dr):     1256.583223
MG Discrepancy due to finite box and discretization:     -0.646726 (  -0.05144%)
MG Correction to account for finite box:                  0.468589
MG Remaining discrepancy, due to discretization:         -0.178137 (  -0.01417%)
      ideal mu1:      -0.722170322798
             Q0:  -11706.537914624088
             G0:      -0.034666015114
   RMS gradient:       0.000028406611
MG BCs: +ve charge blocks (gridpoints):     24756 (   17097433).
MG BCs: -ve charge blocks (gridpoints):      8584 (    1102053).
MG BCs:     Elided blocks (gridpoints):    175884 (  178096979).
MG BCs: Computational effort saved:  99.9830%.
MG BCs: Charge after coarse-graining:           -9.0006564.
MG DL_MG: Calling solver with defect correction order = 8
MG DL_MG: Solver finished
MG Hartree energy from (\int phi*rho dr):              1257.250140
MG Hartree energy from (\int eps (grad phi)^2 dr):     1256.603501
MG Discrepancy due to finite box and discretization:     -0.646639 (  -0.05143%)
MG Correction to account for finite box:                  0.468603
MG Remaining discrepancy, due to discretization:         -0.178036 (  -0.01416%)
     Trial step:       0.563870954404
             Q1:  -11706.546676294878
 Quadratic coef:       0.010785488239
 Linear coef   :      -0.019547159028
           Qmin:  -11706.546771233488
Quadratic minimum step length (  0.510967838115) accepted
    Initial Ne1:    7234.00022144
      Final Ne1:    7234.00000000

=================== Penalty functional idempotency correction ==================
 RMS occupancy error at iteration   1:  0.000018 (step -0.4999 Ne1=   7234.0000)
            Final RMS occupancy error   :  0.000000 (Ne1=   7234.0000)
               Final occupancy bounds   : [ -0.0000,  1.0000]
================================================================================

    4        -1.170653791462E+04     2.8407E-05     2.5701E-05    -4.8511E-02
MG BCs: +ve charge blocks (gridpoints):     24756 (   17097449).
MG BCs: -ve charge blocks (gridpoints):      8584 (    1102056).
MG BCs:     Elided blocks (gridpoints):    175884 (  178096960).
MG BCs: Computational effort saved:  99.9830%.
MG BCs: Charge after coarse-graining:           -9.0006564.
MG DL_MG: Calling solver with defect correction order = 8
MG DL_MG: Solver finished
MG Hartree energy from (\int phi*rho dr):              1257.248094
MG Hartree energy from (\int eps (grad phi)^2 dr):     1256.601447
MG Discrepancy due to finite box and discretization:     -0.646647 (  -0.05143%)
MG Correction to account for finite box:                  0.468601
MG Remaining discrepancy, due to discretization:         -0.178046 (  -0.01416%)
      ideal mu1:      -0.722249898544
             Q0:  -11706.546775953611
             G0:      -0.011708215956
   RMS gradient:       0.000016529238
MG BCs: +ve charge blocks (gridpoints):     24756 (   17097975).
MG BCs: -ve charge blocks (gridpoints):      8582 (    1101874).
MG BCs:     Elided blocks (gridpoints):    175884 (  178096616).
MG BCs: Computational effort saved:  99.9830%.
MG BCs: Charge after coarse-graining:           -9.0006563.
MG DL_MG: Calling solver with defect correction order = 8
MG DL_MG: Solver finished
MG Hartree energy from (\int phi*rho dr):              1257.653730
MG Hartree energy from (\int eps (grad phi)^2 dr):     1257.007123
MG Discrepancy due to finite box and discretization:     -0.646607 (  -0.05141%)
MG Correction to account for finite box:                  0.468592
MG Remaining discrepancy, due to discretization:         -0.178015 (  -0.01415%)
     Trial step:       0.536768034208
             Q1:  -11706.550090478966
 Quadratic coef:       0.002970070707
 Linear coef   :      -0.006284596063
           Qmin:  -11706.550100466018
Quadratic minimum step length (  0.567893933651) accepted
    Initial Ne1:    7234.00009662
      Final Ne1:    7234.00000000

=================== Penalty functional idempotency correction ==================
 RMS occupancy error at iteration   1:  0.000010 (step -0.4999 Ne1=   7234.0000)
            Final RMS occupancy error   :  0.000000 (Ne1=   7234.0000)
               Final occupancy bounds   : [ -0.0000,  1.0000]
================================================================================

    5        -1.170654677595E+04     1.6529E-05     1.4955E-05    -8.8613E-03
MG BCs: +ve charge blocks (gridpoints):     24755 (   17098016).
MG BCs: -ve charge blocks (gridpoints):      8581 (    1101861).
MG BCs:     Elided blocks (gridpoints):    175885 (  178096588).
MG BCs: Computational effort saved:  99.9830%.
MG BCs: Charge after coarse-graining:           -9.0006562.
MG DL_MG: Calling solver with defect correction order = 8
MG DL_MG: Solver finished
MG Hartree energy from (\int phi*rho dr):              1257.677277
MG Hartree energy from (\int eps (grad phi)^2 dr):     1257.030672
MG Discrepancy due to finite box and discretization:     -0.646605 (  -0.05141%)
MG Correction to account for finite box:                  0.468591
MG Remaining discrepancy, due to discretization:         -0.178013 (  -0.01415%)
      ideal mu1:      -0.722586789474
             Q0:  -11706.550101461937
             G0:      -0.003877214698
   RMS gradient:       0.000009512239
MG BCs: +ve charge blocks (gridpoints):     24755 (   17098005).
MG BCs: -ve charge blocks (gridpoints):      8582 (    1101868).
MG BCs:     Elided blocks (gridpoints):    175885 (  178096592).
MG BCs: Computational effort saved:  99.9830%.
MG BCs: Charge after coarse-graining:           -9.0006563.
MG DL_MG: Calling solver with defect correction order = 8
MG DL_MG: Solver finished
MG Hartree energy from (\int phi*rho dr):              1257.632867
MG Hartree energy from (\int eps (grad phi)^2 dr):     1256.986268
MG Discrepancy due to finite box and discretization:     -0.646598 (  -0.05141%)
MG Correction to account for finite box:                  0.468590
MG Remaining discrepancy, due to discretization:         -0.178009 (  -0.01415%)
     Trial step:       0.552111682909
             Q1:  -11706.551464016782
 Quadratic coef:       0.000778100686
 Linear coef   :      -0.002140655532
           Qmin:  -11706.551573766932
Quadratic minimum step length (  0.759465291106) accepted
    Initial Ne1:    7234.00005898
      Final Ne1:    7234.00000000

=================== Penalty functional idempotency correction ==================
 RMS occupancy error at iteration   1:  0.000008 (step -0.4998 Ne1=   7234.0000)
            Final RMS occupancy error   :  0.000000 (Ne1=   7234.0000)
               Final occupancy bounds   : [ -0.0000,  1.0000]
================================================================================

    6        -1.170655010146E+04     9.5122E-06     8.6062E-06    -3.3255E-03
MG BCs: +ve charge blocks (gridpoints):     24755 (   17098010).
MG BCs: -ve charge blocks (gridpoints):      8582 (    1101879).
MG BCs:     Elided blocks (gridpoints):    175885 (  178096576).
MG BCs: Computational effort saved:  99.9830%.
MG BCs: Charge after coarse-graining:           -9.0006562.
MG DL_MG: Calling solver with defect correction order = 8
MG DL_MG: Solver finished
MG Hartree energy from (\int phi*rho dr):              1257.616124
MG Hartree energy from (\int eps (grad phi)^2 dr):     1256.969528
MG Discrepancy due to finite box and discretization:     -0.646596 (  -0.05141%)
MG Correction to account for finite box:                  0.468589
MG Remaining discrepancy, due to discretization:         -0.178007 (  -0.01415%)
      ideal mu1:      -0.722510641479
             Q0:  -11706.551573583507
             G0:      -0.002419455920
   RMS gradient:       0.000007515350
MG BCs: +ve charge blocks (gridpoints):     24756 (   17097766).
MG BCs: -ve charge blocks (gridpoints):      8582 (    1101967).
MG BCs:     Elided blocks (gridpoints):    175884 (  178096732).
MG BCs: Computational effort saved:  99.9830%.
MG BCs: Charge after coarse-graining:           -9.0006563.
MG DL_MG: Calling solver with defect correction order = 8
MG DL_MG: Solver finished
MG Hartree energy from (\int phi*rho dr):              1257.514750
MG Hartree energy from (\int eps (grad phi)^2 dr):     1256.868137
MG Discrepancy due to finite box and discretization:     -0.646614 (  -0.05142%)
MG Correction to account for finite box:                  0.468597
MG Remaining discrepancy, due to discretization:         -0.178017 (  -0.01416%)
     Trial step:       0.647541241917
             Q1:  -11706.552111636149
 Quadratic coef:       0.001028644849
 Linear coef   :      -0.001566697491
           Qmin:  -11706.552170130759
Quadratic minimum step length (  0.493125125035) accepted
    Initial Ne1:    7234.00003090
      Final Ne1:    7234.00000000

=================== Penalty functional idempotency correction ==================
 RMS occupancy error at iteration   1:  0.000001 (step -0.5000 Ne1=   7234.0000)
            Final RMS occupancy error   :  0.000000 (Ne1=   7234.0000)
               Final occupancy bounds   : [  0.0000,  1.0000]
================================================================================

    7        -1.170655157358E+04     7.5153E-06     6.7996E-06    -1.4721E-03
MG BCs: +ve charge blocks (gridpoints):     24756 (   17097829).
MG BCs: -ve charge blocks (gridpoints):      8582 (    1101948).
MG BCs:     Elided blocks (gridpoints):    175884 (  178096688).
MG BCs: Computational effort saved:  99.9830%.
MG BCs: Charge after coarse-graining:           -9.0006563.
MG DL_MG: Calling solver with defect correction order = 8
MG DL_MG: Solver finished
MG Hartree energy from (\int phi*rho dr):              1257.538872
MG Hartree energy from (\int eps (grad phi)^2 dr):     1256.892263
MG Discrepancy due to finite box and discretization:     -0.646609 (  -0.05142%)
MG Correction to account for finite box:                  0.468595
MG Remaining discrepancy, due to discretization:         -0.178015 (  -0.01416%)
      ideal mu1:      -0.722404123556
             Q0:  -11706.552170145675
             G0:      -0.001535482167
   RMS gradient:       0.000005987069
MG BCs: +ve charge blocks (gridpoints):     24756 (   17097755).
MG BCs: -ve charge blocks (gridpoints):      8583 (    1101980).
MG BCs:     Elided blocks (gridpoints):    175884 (  178096730).
MG BCs: Computational effort saved:  99.9830%.
MG BCs: Charge after coarse-graining:           -9.0006563.
MG DL_MG: Calling solver with defect correction order = 8
MG DL_MG: Solver finished
MG Hartree energy from (\int phi*rho dr):              1257.490623
MG Hartree energy from (\int eps (grad phi)^2 dr):     1256.844001
MG Discrepancy due to finite box and discretization:     -0.646622 (  -0.05142%)
MG Correction to account for finite box:                  0.468601
MG Remaining discrepancy, due to discretization:         -0.178021 (  -0.01416%)
     Trial step:       0.565083052202
             Q1:  -11706.552848515566
 Quadratic coef:       0.000189305058
 Linear coef   :      -0.000867674949
           Qmin:  -11706.553164387227
Quadratic minimum step length (  1.295021947577) accepted
    Initial Ne1:    7234.00005139
      Final Ne1:    7234.00000000

=================== Penalty functional idempotency correction ==================
 RMS occupancy error at iteration   1:  0.000014 (step -0.4992 Ne1=   7234.0000)
            Final RMS occupancy error   :  0.000000 (Ne1=   7234.0000)
               Final occupancy bounds   : [ -0.0000,  1.0000]
================================================================================

    8        -1.170655217015E+04     5.9871E-06     5.4168E-06    -5.9656E-04
MG BCs: +ve charge blocks (gridpoints):     24757 (   17097706).
MG BCs: -ve charge blocks (gridpoints):      8584 (    1101999).
MG BCs:     Elided blocks (gridpoints):    175883 (  178096760).
MG BCs: Computational effort saved:  99.9830%.
MG BCs: Charge after coarse-graining:           -9.0006563.
MG DL_MG: Calling solver with defect correction order = 8
MG DL_MG: Solver finished
MG Hartree energy from (\int phi*rho dr):              1257.427778
MG Hartree energy from (\int eps (grad phi)^2 dr):     1256.781139
[...]
MG DL_MG: Calling solver with defect correction order = 8
MG DL_MG: Solver finished
MG Hartree energy from (\int phi*rho dr):              1215.691444
MG Hartree energy from (\int eps (grad phi)^2 dr):     1215.508077
MG Discrepancy due to finite box and discretization:     -0.183367 (  -0.01508%)
MG Correction to account for finite box:                  0.006387
MG Remaining discrepancy, due to discretization:         -0.176980 (  -0.01456%)
             Q2:  -11740.588853147579
  Cubic LS coeff:       0.972531863138
Predicted energy:  -11740.588853147799
Cubic minimum step length accepted
    Initial Ne1:    7234.00000000
      Final Ne1:    7234.00000000

=================== Penalty functional idempotency correction ==================
 RMS occupancy error at iteration   1:  0.000000 (step -0.5000 Ne1=   7234.0000)
            Final RMS occupancy error   :  0.000000 (Ne1=   7234.0000)
               Final occupancy bounds   : [  0.0000,  1.0000]
================================================================================

    7        -1.174058885314E+04     1.0274E-08     9.2950E-09    -3.3760E-09

Reusing previously generated solute cavity.
MG BCs: +ve charge blocks (gridpoints):     28946 (   19289460).
MG BCs: -ve charge blocks (gridpoints):      8568 (    1070260).
MG BCs:     Elided blocks (gridpoints):    171694 (  175936745).
MG BCs: Computational effort saved:  99.9809%.
MG BCs: Charge after coarse-graining:           -9.0009558.
MG DL_MG: Calling solver with defect correction order = 8
MG DL_MG: Solver finished
MG Hartree energy from (\int phi*rho dr):              1215.691438
MG Hartree energy from (\int eps (grad phi)^2 dr):     1215.508070
MG Discrepancy due to finite box and discretization:     -0.183367 (  -0.01508%)
MG Correction to account for finite box:                  0.006387
MG Remaining discrepancy, due to discretization:         -0.176980 (  -0.01456%)
      ideal mu1:      -0.480143259497
             Q0:  -11740.588853147579
             G0:      -0.000000004932
   RMS gradient:       0.000000013538

Reusing previously generated solute cavity.
MG BCs: +ve charge blocks (gridpoints):     28946 (   19289460).
MG BCs: -ve charge blocks (gridpoints):      8568 (    1070260).
MG BCs:     Elided blocks (gridpoints):    171694 (  175936745).
MG BCs: Computational effort saved:  99.9809%.
MG BCs: Charge after coarse-graining:           -9.0009558.
MG DL_MG: Calling solver with defect correction order = 8
MG DL_MG: Solver finished
MG Hartree energy from (\int phi*rho dr):              1215.691419
MG Hartree energy from (\int eps (grad phi)^2 dr):     1215.508051
MG Discrepancy due to finite box and discretization:     -0.183367 (  -0.01508%)
MG Correction to account for finite box:                  0.006387
MG Remaining discrepancy, due to discretization:         -0.176980 (  -0.01456%)
     Trial step:       0.739582079384
             Q1:  -11740.588853149791
 Quadratic coef:       0.000000001435
 Linear coef   :      -0.000000003647
           Qmin:  -11740.588853149897
Quadratic minimum step length (  0.939787621088) accepted
    Initial Ne1:    7234.00000000
      Final Ne1:    7234.00000000

=================== Penalty functional idempotency correction ==================
 RMS occupancy error at iteration   1:  0.000000 (step -0.5000 Ne1=   7234.0000)
            Final RMS occupancy error   :  0.000000 (Ne1=   7234.0000)
               Final occupancy bounds   : [  0.0000,  1.0000]
================================================================================

    8        -1.174058885315E+04     1.3538E-08     1.2248E-08    -3.9581E-09

Reusing previously generated solute cavity.
MG BCs: +ve charge blocks (gridpoints):     28946 (   19289460).
MG BCs: -ve charge blocks (gridpoints):      8568 (    1070260).
MG BCs:     Elided blocks (gridpoints):    171694 (  175936745).
MG BCs: Computational effort saved:  99.9809%.
MG BCs: Charge after coarse-graining:           -9.0009558.
MG DL_MG: Calling solver with defect correction order = 8
MG DL_MG: Solver finished
MG Hartree energy from (\int phi*rho dr):              1215.691413
MG Hartree energy from (\int eps (grad phi)^2 dr):     1215.508046
MG Discrepancy due to finite box and discretization:     -0.183367 (  -0.01508%)
MG Correction to account for finite box:                  0.006387
MG Remaining discrepancy, due to discretization:         -0.176980 (  -0.01456%)
      ideal mu1:      -0.480143217910
             Q0:  -11740.588853149675
             G0:      -0.000000006362
   RMS gradient:       0.000000012485

Reusing previously generated solute cavity.
MG BCs: +ve charge blocks (gridpoints):     28946 (   19289459).
MG BCs: -ve charge blocks (gridpoints):      8568 (    1070261).
MG BCs:     Elided blocks (gridpoints):    171694 (  175936745).
MG BCs: Computational effort saved:  99.9809%.
MG BCs: Charge after coarse-graining:           -9.0009558.
MG DL_MG: Calling solver with defect correction order = 8
MG DL_MG: Solver finished
MG Hartree energy from (\int phi*rho dr):              1215.691336
MG Hartree energy from (\int eps (grad phi)^2 dr):     1215.507969
MG Discrepancy due to finite box and discretization:     -0.183367 (  -0.01508%)
MG Correction to account for finite box:                  0.006387
MG Remaining discrepancy, due to discretization:         -0.176980 (  -0.01456%)
     Trial step:       0.833696637263
             Q1:  -11740.588853148278
 Quadratic coef:       0.000000006701
 Linear coef   :      -0.000000005304
           Qmin:  -11740.588853150724
Quadratic minimum step length (  0.329948319012) accepted
    Initial Ne1:    7234.00000000
      Final Ne1:    7234.00000000

=================== Penalty functional idempotency correction ==================
 RMS occupancy error at iteration   1:  0.000000 (step -0.5000 Ne1=   7234.0000)
            Final RMS occupancy error   :  0.000000 (Ne1=   7234.0000)
               Final occupancy bounds   : [  0.0000,  1.0000]
================================================================================

    9        -1.174058885315E+04     1.2485E-08     1.1296E-08    -2.0955E-09

Reusing previously generated solute cavity.
MG BCs: +ve charge blocks (gridpoints):     28946 (   19289460).
MG BCs: -ve charge blocks (gridpoints):      8568 (    1070262).
MG BCs:     Elided blocks (gridpoints):    171694 (  175936743).
MG BCs: Computational effort saved:  99.9809%.
MG BCs: Charge after coarse-graining:           -9.0009558.
MG DL_MG: Calling solver with defect correction order = 8
MG DL_MG: Solver finished
MG Hartree energy from (\int phi*rho dr):              1215.691383
MG Hartree energy from (\int eps (grad phi)^2 dr):     1215.508016
MG Discrepancy due to finite box and discretization:     -0.183367 (  -0.01508%)
MG Correction to account for finite box:                  0.006387
MG Remaining discrepancy, due to discretization:         -0.176980 (  -0.01456%)
      ideal mu1:      -0.480143188426
   10        -1.174058885315E+04     7.5668E-09     6.8461E-09    -6.9849E-10
Finished density kernel iterations (  10)

Writing density kernel to file "complex_6561.dkn" ... done


>>> Density kernel optimised for the current NGWF basis:
     ~~~~~~~~~~~~~~~~~~~~~~~~~~~~~~~~~~~~~~~~~~~~~~~~~~~~~~~~~~~
     Total energy                =  -1.17405888531504E+04  Eh
     Estimated bandgap           =   8.8889E-02  Eh
     RMS occupancy error         =   1.1360E-15
     [H,K] commutator            =   6.8461E-09
     Occupancy bounds            = [  0.000:  1.000]
     ~~~~~~~~~~~~~~~~~~~~~~~~~~~~~~~~~~~~~~~~~~~~~~~~~~~~~~~~~~~




################################################################################
########################### NGWF CG iteration  004 #############################
################################################################################
****** Reciprocal space K.E. preconditioning with k_zero =  3.5000 a0^-1 *******

>>> Checking for convergence of NGWFs: 
           ........................................................
           |         *** NGWF optimisation converged ***          |
           | RMS NGWF gradient =    0.00000194057648              |
           | Criteria satisfied:                                  |
           | -> RMS NGWF gradient lower than set threshold.       |
           ========================================================

Reusing previously generated solute cavity.
MG BCs: +ve charge blocks (gridpoints):     28946 (   19289460).
MG BCs: -ve charge blocks (gridpoints):      8568 (    1070262).
MG BCs:     Elided blocks (gridpoints):    171694 (  175936743).
MG BCs: Computational effort saved:  99.9809%.
MG BCs: Charge after coarse-graining:           -9.0009558.
MG DL_MG: Calling solver with defect correction order = 8
MG DL_MG: Solver finished
MG Hartree energy from (\int phi*rho dr):              1215.691383
MG Hartree energy from (\int eps (grad phi)^2 dr):     1215.508016
MG Discrepancy due to finite box and discretization:     -0.183367 (  -0.01508%)
MG Correction to account for finite box:                  0.006387
MG Remaining discrepancy, due to discretization:         -0.176980 (  -0.01456%)

================================================================================
           ---------------- ENERGY COMPONENTS (Eh) ----------------
           | Kinetic                    :     8578.34803668989116 |
           | Pseudo. (local,OBC,corr'd) :    -5078.79326550971018 |
           | Pseudopotential (non-local):     1410.10920488965075 |
           | Hartree (molecular)        :     1215.69138294143454 |
           | Exchange-correlation       :    -3376.68847849325584 |
           | Ion-ion (open BC)          :   841655.49710054812022 |
           | Dispersion Correction      :       -3.28614879774676 |
           | Smeared ion non-self corr. :  -841607.15022079669870 |
           | Smeared ion self corr.     :   -14534.96330857569956 |
           | Solvent cavitation energy  :        2.30132154637166 |
           | Solute-solvent dis-rep en. :       -1.65447759272524 |
           | Total                      :   -11740.58885315039151 |
           --------------------------------------------------------
           ------ LOCAL ENERGY COMPONENTS FROM MATRIX TRACES ------
           | Pseudopotential (local)    :    -5078.79326550971200 |
           | Hartree                    :    -1998.46909054756679 |
           --------------------------------------------------------
           Integrated density           :     7233.99999999725151
           Integrated density tr(KS)    :     7234.00000000000000
================================================================================


                        <<<<< CALCULATION SUMMARY >>>>>                         
|ITER|    RMS GRADIENT   |     TOTAL ENERGY    |   step   |     Epredicted              
   0     0.00003797153369 -11740.53172327100765   0.614910 -11740.58095986834269        
   1     0.00001015968922 -11740.58818445121869   0.097289 -11740.58874213237505        
   2     0.00000440738730 -11740.58883199456614   0.017145 -11740.58885048991397        
   3     0.00000194057648 -11740.58885315037332  <-- CG                                 

=================== Finished the calculation in solvent ========================
= Adjusting the following parameters: 
= read_denskern: F
= read_tightbox_ngwfs: F
= maxit_pen: 0 (restored to user-specified value)
= restart read filename prefix: ""
= restart write filename prefix: ""
================================================================================

================================================================================
IS: Calculation in solvent completed (NGWFs converged).      

Individual components of total energy in solvent:     hartree           kcal/mol
- Usual non-electrostatic DFT terms:    -12956.92708004545602    -8130594.321079
- Electrostatic fixed charge energy:      1215.69138294143454      762857.843782
- Apolar cavitation energy:                  2.30132154637166        1444.101042
- Apolar dispersion-repulsion energy:       -1.65447759272524       -1038.200342
 -------------------------------------------------------------------------------
- Total energy in solvent:              -11740.58885315037332    -7367330.576597

Components of total energy in solvent:                hartree           kcal/mol
- Usual non-electrostatic DFT terms:    -12956.92708004545602    -8130594.321079
- Electrostatic energy:                   1215.69138294143454      762857.843782
- Apolar energy terms:                       0.64684395364641         405.900700
 -------------------------------------------------------------------------------
- Total energy in solvent:              -11740.58885315037332    -7367330.576597

Calculation of free energy of solvation:              hartree           kcal/mol
- Total energy in solvent:         (+)  -11740.58885315037332    -7367330.576597
- Total energy in vacuum:          (-)  -11736.72130405413918    -7364903.652950
 -------------------------------------------------------------------------------
- Total free energy of solvation:           -3.86754909623414       -2426.923647

Components of polar term in f.e. of solvation:        hartree           kcal/mol
- Electrostatic:                            -4.78429312561980       -3002.189198
- Change in nonelectrostatic DFT terms:      0.26990007573659         169.364851
 -------------------------------------------------------------------------------
- Polar term in f.e. of solvation:          -4.51439304988321       -2832.824347

Components of free energy of solvation:               hartree           kcal/mol
- Polar term in f.e. of solvation: (+)      -4.51439304988321       -2832.824347
- Apolar (cavitation, dis., rep.): (+)       0.64684395364641         405.900700
 -------------------------------------------------------------------------------
- Total free energy of solvation:           -3.86754909623680       -2426.923647
================================================================================


------------------------------ TIMING INFORMATION ------------------------------
AVERAGE TIME:   39017.152s on     30 node(s)                                    
TOTAL TIME:     39017.154s on     30 node(s)                                    
================= AVERAGE TIMINGS FROM ALL NODES (CUMULATIVE) ==================
|| TAG                                    #calls    cpu time   %total  Gflops ||
|| work_imbalance                       :     1        0.00s   0.000%  ------ ||
|| parallel_prepare_fd_halos_request    :  2193        0.05s   0.000%  ------ ||
|| sparse_set_to_garbage                :   206        0.06s   0.000%  ------ ||
|| parallel_prepare_fd_halos_alloc      :  2193        0.07s   0.000%  ------ ||
|| ngwfs_initialise_from_radial         :     1        0.23s   0.001%  ------ ||
|| basis_extract_function_from_box      :  8072        0.29s   0.001%  ------ ||
|| parallel_prepare_fd_halos_satisfy    :  2193        0.84s   0.002%  ------ ||
|| pseudopotentials_nonlocal_mat        :    35        0.99s   0.003%  ------ ||
|| restart_ngwfs_tightbox_input         :     1        1.36s   0.003%  ------ ||
|| restart_kernel_read                  :     1        4.29s   0.011%  ------ ||
|| openbc_locps_radial                  :     1        6.93s   0.018%  ------ ||
|| parallel_prepare_fd_halos_comms_imbal:  2193        7.06s   0.018%  ------ ||
|| density_init_guess_real              :     1        7.19s   0.018%  ------ ||
|| parallel_prepare_fd_halos_clear      :  2193       15.39s   0.039%  ------ ||
|| sparse_init                          :     2       23.83s   0.061%  ------ ||
|| parallel_prepare_fd_halos_comms_wait :  2193       32.86s   0.084%  ------ ||
|| function_ops_brappd_ketppd           :    35       33.20s   0.085%  ------ ||
|| projectors_func_ovlp_box             :    35       33.36s   0.085%  ------ ||
|| palser_mano_kernel_optimise          :     1       38.50s   0.099%  ------ ||
|| projectors_init_fftbox_recip         :   287       38.57s   0.099%  ------ ||
|| restart_kernel_write                 :    19       40.30s   0.103%  ------ ||
|| parallel_prepare_fd_halos            :  2193       56.29s   0.144%  ------ ||
|| basis_copy_function_to_box           : 131.8k      60.27s   0.154%  ------ ||
|| fourier_apply_box_pair               : 11674       73.08s   0.187% 492.522 ||
|| ngwf_gradient_coeffs                 :    18       80.45s   0.206%  ------ ||
|| sparse_embed_hotelling_invert_embed  :    35      108.71s   0.279%  ------ ||
|| pseudo_make_structure_factor         :     2      113.58s   0.291%  ------ ||
|| sparse_trace                         :  5637      146.18s   0.375%  ------ ||
|| finite_difference_derivative         :  2193      154.94s   0.397%  ------ ||
|| integrals_kinetic                    :    35      227.88s   0.584%  ------ ||
|| projectors_gradient_batch            :   252      303.72s   0.778%  ------ ||
|| openbc_locps_on_grid                 :     2      314.39s   0.806%  ------ ||
|| fourier_apply_cell_forward           :  1461      316.53s   0.811%  63.755 ||
|| fourier_apply_cell_backward          :  1463      322.87s   0.828%  62.588 ||
|| basis_dot_function_with_box          : 20.32M     345.81s   0.886%  ------ ||
|| restart_ngwfs_tightbox_output        :    16      370.07s   0.948%  ------ ||
|| kernel_purify                        :   558      430.29s   1.103%  ------ ||
|| hamiltonian_energy_components        :     4      563.34s   1.444%  ------ ||
|| lnv_gradient_norm                    :   180      632.90s   1.622%  ------ ||
|| kernel_fix                           :   180      674.39s   1.728%  ------ ||
|| basis_add_function_to_box            : 42.51M     735.27s   1.884%  ------ ||
|| xc_energy_potential                  :   365      760.77s   1.950%  ------ ||
|| ngwf_gradient_build_batch            :   252     1213.01s   3.109%  ------ ||
|| cell_grid_extract_box_real           : 68882     1334.08s   3.419%  ------ ||
|| integrals_locpot_mat_els_batch       :  2646     1411.93s   3.619%  ------ ||
|| cell_grid_deposit_box_real           : 81996     1434.25s   3.676%  ------ ||
|| ngwf_gradient_batch                  :   252     1632.56s   4.184%  ------ ||
|| density_batch_row_sums               :  5096     1657.10s   4.247%  ------ ||
|| ngwf_gradient_lnv                    :    18     1931.76s   4.951%  ------ ||
|| sparse_product                       :  7281     2639.32s   6.765%  ------ ||
|| density_fftbox_deposit_to_cell       : 79716     2717.00s   6.964%  ------ ||
|| multigrid_prepare_bound_cond         :   365     3790.12s   9.714%  ------ ||
|| potential_apply_to_ngwf_batch        :  2646     5129.67s  13.147%  ------ ||
|| density_fftbox_interpolate_multiply  : 79716     5885.15s  15.083%  ------ ||
|| integrals_locpot_dbl_grid            :   189     6550.52s  16.789%  ------ ||
|| fourier_apply_box                    : 274.2k    7052.08s  18.074% 580.765 ||
|| dl_mg_solver_calls                   :   365     8856.57s  22.699%  ------ ||
|| density_batch_interp_deposit         :  5096     9388.43s  24.062%  ------ ||
|| density_on_dbl_grid                  :   364    12029.68s  30.832%  ------ ||
|| multigrid_calculate_hartree          :   365    12858.12s  32.955%  ------ ||
|| hamiltonian_lhxc_calculate           :   360    25517.75s  65.401%  ------ ||
|| lnv_denskernel_optimise_cg           :    18    33165.76s  85.003%  ------ ||
|| ngwf_cg_optimise                     :     2    37844.53s  96.995%  ------ ||
|| total_time                           :     1    39017.15s 100.000%  ------ ||
================================================================================
Overhead of generating timer report: 
- 0 ms averaging over threads,
- 4 ms ensuring consistency across MPI ranks,
- 0 ms printing in order.

Job completed: 27-01-2020 12:19 (-0000)

