 +---------------------------------------------------------------+
 |                                                               |
 |        ####### #     # ####### ####### ####### ######         |
 |        #     # ##    # #          #    #       #     #        |
 |        #     # # #   # #          #    #       #     #        |
 |        #     # #  #  # #####      #    #####   ######         |
 |        #     # #   # # #          #    #       #              |
 |        #     # #    ## #          #    #       #              |
 |        ####### #     # #######    #    ####### #              |
 |                                                               |
 |        Linear-Scaling Ab Initio Total Energy Program          |
 |                                                               |
 |          Release for academic collaborators of ODG            |
 |                                             Version 5.3.2.6.  |
 |                                                               |
 +---------------------------------------------------------------+
 |                                                               |
 |  Authors:                                                     |
 |  Jacek Dziedzic, Peter D. Haynes, Nicholas D. M. Hine,        |
 |  Arash. A. Mostofi, Mike C. Payne and Chris-Kriton Skylaris   |
 |                                                               |
 |  Contributors:                                                |
 |  J. Aarons, L. Andrinopoulos, P. W. Avraam, R. A. Bell,       |
 |  A. Bhandari, G. A. Bramley, R. J. Charlton, S. J. Clark,     |
 |  R. J. Clements, G. C. Constantinescu, F. Corsetti,           |
 |  N. Corsini, O. Dieguez, S. M. M. Dubois, K. K. B. Duff,      |
 |  J. M. Escartin, A. Greco, H. Helal, Q. O. Hill, L. P. Lee,   |
 |  J.-H. Li, E. B. Linscott, G. Moynihan, D. D. O`Regan,        |
 |  O. K. Okan, M. J. S. Phipps, C. J. Pickard,                  |
 |  J. C. A. Prentice, M. I. J. Probert, L. E. Ratcliff,         |
 |  M. Robinson, A. Ruiz Serrano, J. S. Spencer, E. W. Tait,     |
 |  G. Teobaldi, D. Turban, V. Vitale, K. A. Wilkinson,          |
 |  C. Weber, J. C. Womack, N. Yeung and T. J. Zuehlsdorff       |
 |                                                               |
 |                                   Copyright (c) 2004-2019     |
 |                                                               |
 |  Please cite:                                                 |
 |  "Introducing ONETEP: Linear-scaling density functional       |
 |   simulations on parallel computers".                         |
 |   C.-K. Skylaris, P. D. Haynes, A. A. Mostofi, M. C. Payne.   |
 |   J. Chem. Phys. 122 084119 (2005).                           |
 |                                                               |
 |          in all publications arising from your use of ONETEP. |
 |                                                               |
 +---------------------------------------------------------------+
 |                                                               |
 |   ONETEP is based on developments described in the following  |
 |   publications:                                               |
 |                                                               |
 |  "Nonorthogonal generalized Wannier function pseudopotential  |
 |   plane-wave method".                                         |
 |   C.-K. Skylaris, A. A. Mostofi, P. D. Haynes, O. Dieguez,    |
 |   M. C. Payne.                                                |
 |   Phys. Rev. B 66 035119 (2002).                              |
 |                                                               |
 |  "Preconditioned iterative minimization for linear-scaling    |
 |   electronic structure calculations".                         |
 |   A. A. Mostofi, P. D. Haynes, C.-K. Skylaris, M. C. Payne.   |
 |   J. Chem. Phys. 119(17), pp.8842-8848 (2003).                |
 |                                                               |
 |  "Total-energy calculations on a real space grid with         |
 |   localized functions and a plane-wave basis".                |
 |   A. A. Mostofi, C.-K. Skylaris, P. D. Haynes, M. C. Payne.   |
 |   Comput. Phys. Commun. 147, pp.788-802 (2002).               |
 |                                                               |
 |  "Accurate kinetic energy evaluation in electronic structure  |
 |   calculations with localized functions on real space grids"  |
 |   C.-K. Skylaris, A. A. Mostofi, P. D. Haynes, C. J. Pickard, |
 |   M. C. Payne.                                                |
 |   Comput. Phys. Commun. 140, pp.315-322 (2001).               |
 |                                                               |
 |  "Accurate ionic forces and geometry optimization in linear-  |
 |   scaling density-functional theory with local orbitals"      |
 |   N. D. M. Hine, M. Robinson, P. D. Haynes, C.-K. Skylaris,   |
 |   M. C. Payne, and A. A. Mostofi.                             |
 |   Phys. Rev. B 83 195102 (2011).                              |
 |                                                               |
 +---------------------------------------------------------------+

Job started: 17-02-2020 08:08 (-0000)
 
Reading parameters from file "complex_26321.dat" ...... done

If your calculation crashes here, before "Checking processes and threads..."
is displayed, then your stack size is insufficient.
If so, use "ulimit -s unlimited" at runtime.
You can disable this check with "check_stack_size F".

Checking processes and threads...
   Determining the default number of threads...
      No default threads set at compilation time: defaulting to 1.
      OpenMP library call suggests 4 threads.
      Hybrid MPI-OpenMP compilation detected.
      Number of MPI processes > 1.
      OMP_NUM_THREADS environment variable present and
      its value matches the one obtained from the OpenMP library call.
      Using this value as default.
      Default threads: 4
      Default applies to threads_max and threads_num_fftboxes.
      Settings in the input file override this default.
   ... done

   Running with 30 MPI processes.
   There are 4 MPI processes running on the same node as the root process.
   Each MPI process is using: 
               1 threads for simulation cell FFTs.
               1 threads for parallel FFT box operations.
               4 threads for loops over batched FFT box operations.
               4 threads in other parallel regions.
... done

Basic input checks...... done

Reading geometry and species blocks from file "complex_26321.dat" ...
  <species_atomic_set> block not found: NGWF initialisation set to SOLVE
IS: Dielectric excluded regions:
    - NONE.
    
  Number of PPD points along a3 set to 1.  This is 
  the default value, it may have been provided also in the input file.
... done
 Writing xyz coordinates to file "complex_26321.xyz" ... done


--------------------------------------------------------------------------------
---------------------------------- INPUT FILE ----------------------------------
--------------------------------------------------------------------------------

cutoff_energy       : 800 eV                                                    
xc_functional PBE                                                               
task SINGLEPOINT                                                                
write_xyz true                                                                  
output_detail VERBOSE                                                           
ngwf_threshold_orig : 0.000002                                                  
kernel_cutoff       : 1000                                                      
k_zero              : 3.5                                                       
elec_cg_max 0                                                                   
occ_mix 1.0                                                                     
dispersion 1                                                                    
maxit_ngwf_cg 40                                                                
minit_lnv 10                                                                    
maxit_lnv 10                                                                    
write_denskern T                                                                
write_tightbox_ngwfs T                                                          
charge 9                                                                        
is_implicit_solvent T                                                           
is_auto_solvation T                                                             
is_include_apolar T                                                             
is_smeared_ion_rep T                                                            
is_solvent_surf_tension 4.7624E-5 Ha/bohr**2                                    
is_apolar_scaling_factor 0.281075                                               
is_solvation_beta 1.3                                                           
is_density_threshold 0.00035                                                    
is_bulk_permittivity 78.54                                                      
is_dielectric_model fix_initial                                                 
is_smeared_ion_width 0.8                                                        
mg_defco_fd_order 8                                                             
is_bc_coarseness 10                                                             
is_bc_surface_coarseness 1                                                      
fine_grid_scale 2.0                                                             
%block species                                                                  
N   N   7 4 8.0                                                                 
H   H   1 1 8.0                                                                 
C   C   6 4 8.0                                                                 
S   S  16 9 8.0                                                                 
O   O   8 4 8.0                                                                 
%endblock species                                                               
%block species_pot                                                              
N   N_00.recpot                                                                 
H   H_04.recpot                                                                 
C   C_01.recpot                                                                 
S   S_00.recpot                                                                 
O   O_02.recpot                                                                 
%endblock species_pot                                                           
%block lattice_cart                                                             
137.614   0.000   0.000                                                         
0.000 142.646   0.000                                                           
0.000   0.000   160.855                                                         
%endblock lattice_cart                                                          
%block positions_abs                                                            
     Hash =  -000000858661754769293198
%endblock positions_abs                                                         

--------------------------------------------------------------------------------
-------------------------------- END INPUT FILE --------------------------------
--------------------------------------------------------------------------------


 
 ESDF WARNING(1): "kernelcutoff" (esdf_physical) has no units. Assume "bohr".
 ESDF WARNING(2): "kzero" (esdf_physical) has no units. Assume "1/bohr".
 ESDF WARNING(3
 ): "issmearedionwidth" (esdf_physical) has no units. Assume "bohr".
<<<<<<<<<<<<<<<<<<<<<<<<<<<<<<<<< Full system >>>>>>>>>>>>>>>>>>>>>>>>>>>>>>>>>>
<<<<<<<<<<<<<<<<<<<<<<<<< Pseudopotential information >>>>>>>>>>>>>>>>>>>>>>>>>>
File: N_00.recpot [ 2001 points up to Gmax=  52.9 (1/bohr)]
  Atomic number:  7;  ionic charge:  5.000000
    Shell 1: l = 0; rc = 1.48 bohr
File: H_04.recpot [ 2001 points up to Gmax=  52.9 (1/bohr)]
  Atomic number:  1;  ionic charge:  1.000000
    Local potential
File: C_01.recpot [ 2001 points up to Gmax=  52.9 (1/bohr)]
  Atomic number:  6;  ionic charge:  4.000000
    Shell 1: l = 0; rc = 1.48 bohr
File: S_00.recpot [ 2001 points up to Gmax=  52.9 (1/bohr)]
  Atomic number: 16;  ionic charge:  6.000000
    Shell 1: l = 0; rc = 1.90 bohr
    Shell 2: l = 2; rc = 1.84 bohr
File: O_02.recpot [ 2001 points up to Gmax=  52.9 (1/bohr)]
  Atomic number:  8;  ionic charge:  6.000000
    Shell 1: l = 0; rc = 1.31 bohr
<<<<<<<<<<<<<<<<<<<<<<<<<<<<<<<<<<<<<<<<>>>>>>>>>>>>>>>>>>>>>>>>>>>>>>>>>>>>>>>>

-------------------------- Atom counting information ---------------------------
Symbol    Natoms    Nngwfs    Nprojs
  N        236       944       236
  H       1319      1319         0
  C        817      3268       817
  S          6        54        36
  O        240       960       240
.......   ......    ......    ......
Totals:   2618      6545      1329
--------------------------------------------------------------------------------

=============================== PSINC grid sizes ===============================
                      Simulation cell:  273 x 286 x 320
                              FFT-box:   99 x 105 x  99
                                  PPD:    7 x  11 x   1
Grid space d1=  0.504080586081a0 (KE cutoff=  29.89538Eh = 813.49465eV)
Grid space d2=  0.498762237762a0 (KE cutoff=  30.53633Eh = 830.93588eV)
Grid space d3=  0.502671875000a0 (KE cutoff=  30.06317Eh = 818.06059eV)
================================================================================

********************* Fourier parallelisation information **********************
       Coarse grid (whole simulation cell) dimensions:    273   286   320
          Real-space ('12') slabs/node (min max mean):     10    11    10
         Recip-space ('23') slabs/node (min max mean):      4     5     4
********************************************************************************

********************* Fourier parallelisation information **********************
       Double grid (whole simulation cell) dimensions:    546   572   640
          Real-space ('12') slabs/node (min max mean):     21    22    21
         Recip-space ('23') slabs/node (min max mean):      9    10     9
********************************************************************************
ONETEP fine grid is 546 x 572 x 640 gridpoints, 137.6140 x 142.6460 x 160.8550 bohr.
FD multigrid is     545 x 569 x 633 gridpoints, 137.3620 x 141.8979 x 159.0956 bohr.


Calculating local pseudopotential in open BC on a radial grid ...
Discrepancy between calculated realspace psloc and -Z/x on [5a0,255.264a0]:
max |rel. diff| # avg |rel. diff| #  avg rel. diff #  f # pseudopotential file
 0.000296759711    0.000009439468   0.000000085927   54  'N_00.recpot'
 0.000490027943    0.000021572324  -0.000000031900   54  'H_04.recpot'
 0.000320795249    0.000014598087   0.000000111901   54  'C_01.recpot'
 0.000388730920    0.000016096375   0.000000514750   54  'S_00.recpot'
 0.000828383344    0.000035421288   0.000000087443   54  'O_02.recpot'
... done

Atom SCF Calculation for N  : Z (AE atom) =   7 : Z (PS atom) =   5
Config String:
Orbitals (num,occ):  2     2.00 3.00
Orbitals   (num,l):  2        0    1
Real-space Grid (nr,dr,rmax): 1203    0.0066555740    8.0000000000
Spherical Bessel Basis (nsws,lmax,cutoff):   47    1  176.3951722778
Confining potential (l,width,scale):  0    3.0000000000  100.0000000000
Confining potential (l,width,scale):  1    3.0000000000  100.0000000000
  1         -4.7312375307   -3.4155304497    7.0523828109   -1.9351020946
  2         -9.7309464766   -2.0532547791    8.2966052865   -2.2494486027
  3         -9.6627394379   -2.1124926340    8.2327997121   -2.2369778124
  4         -9.6814993499   -2.1215521045    8.2229805960   -2.2365178421
  5         -9.6843326483   -2.1250939529    8.2191374534   -2.2362718126
  6         -9.6859628709   -2.1267894855    8.2172963573   -2.2362066344
  7         -9.6867347035   -2.1276425665    8.2163697352   -2.2361903369
  8         -9.6870802100   -2.1280764625    8.2158983890   -2.2361891460
  9         -9.6872290423   -2.1282977424    8.2156580222   -2.2361920435
 10         -9.6872901988   -2.1284107021    8.2155353368   -2.2361953393
 11         -9.6873135296   -2.1284684031    8.2154726809   -2.2361979819
 12         -9.6873212476   -2.1284978948    8.2154406648   -2.2361998431
 13         -9.6873229586   -2.1285129774    8.2154242957   -2.2362010676
 14         -9.6873226456   -2.1285206957    8.2154159216   -2.2362018403
 15         -9.6873218534   -2.1285246479    8.2154116349   -2.2362023142
 16         -9.6873212599   -2.1285262679    8.2154098784   -2.2362025420
 17         -9.6873207834   -2.1285272564    8.2154088068   -2.2362026955
 18         -9.6873204210   -2.1285278597    8.2154081529   -2.2362027982
 19         -9.6873201550   -2.1285282280    8.2154077538   -2.2362028667
 20         -9.6873199645   -2.1285284529    8.2154075102   -2.2362029121
 21         -9.6873198305   -2.1285285903    8.2154073614   -2.2362029421
 22         -9.6873197377   -2.1285286742    8.2154072705   -2.2362029618
Atom SCF converged after  22 iterations to a total energy of     -9.68731974

Atom SCF Calculation for H  : Z (AE atom) =   1 : Z (PS atom) =   1
Config String:
Orbitals (num,occ):  1     1.00
Orbitals   (num,l):  1        0
Real-space Grid (nr,dr,rmax): 1203    0.0066555740    8.0000000000
Spherical Bessel Basis (nsws,lmax,cutoff):   47    0  176.3951722778
Confining potential (l,width,scale):  0    3.0000000000  100.0000000000
  1         -0.3194257691   -0.2393854593    0.2820953124   -0.2424203209
  2         -0.3951823392   -0.2377116493    0.2886404059   -0.2475147891
  3         -0.4317044583   -0.2352244387    0.2921333887   -0.2514046172
  4         -0.4470703708   -0.2341892222    0.2934391879   -0.2531009782
  5         -0.4532132900   -0.2338556667    0.2938388426   -0.2537313520
  6         -0.4556579251   -0.2337612552    0.2939448584   -0.2539550462
  7         -0.4566418315   -0.2337377355    0.2939680120   -0.2540342273
  8         -0.4570437922   -0.2337331116    0.2939708287   -0.2540627372
  9         -0.4572102946   -0.2337328328    0.2939698291   -0.2540732650
 10         -0.4572800424   -0.2337332404    0.2939687193   -0.2540772588
 11         -0.4573095100   -0.2337335791    0.2939680317   -0.2540788122
 12         -0.4573220379   -0.2337337762    0.2939676699   -0.2540794294
 13         -0.4573273880   -0.2337338775    0.2939674931   -0.2540796787
 14         -0.4573296803   -0.2337339266    0.2939674099   -0.2540797808
 15         -0.4573306647   -0.2337339495    0.2939673718   -0.2540798230
 16         -0.4573310882   -0.2337339601    0.2939673545   -0.2540798406
 17         -0.4573312706   -0.2337339649    0.2939673467   -0.2540798479
 18         -0.4573313493   -0.2337339670    0.2939673433   -0.2540798510
Atom SCF converged after  18 iterations to a total energy of     -0.45733135

Atom SCF Calculation for C  : Z (AE atom) =   6 : Z (PS atom) =   4
Config String:
Orbitals (num,occ):  2     2.00 2.00
Orbitals   (num,l):  2        0    1
Real-space Grid (nr,dr,rmax): 1203    0.0066555740    8.0000000000
Spherical Bessel Basis (nsws,lmax,cutoff):   47    1  176.3951722778
Confining potential (l,width,scale):  0    3.0000000000  100.0000000000
Confining potential (l,width,scale):  1    3.0000000000  100.0000000000
  1         -5.2976922011   -1.3069684169    4.5135249990   -1.4493313817
  2         -5.3721716256   -1.3429755895    4.4750154450   -1.4361613026
  3         -5.3809959565   -1.3617365618    4.4541655428   -1.4305930207
  4         -5.3918938866   -1.3667928461    4.4484735100   -1.4294652294
  5         -5.3956096428   -1.3688539142    4.4461376126   -1.4290734646
  6         -5.3968271862   -1.3696852393    4.4451910874   -1.4289366866
  7         -5.3972028401   -1.3700178062    4.4448112275   -1.4288900460
  8         -5.3973067903   -1.3701500158    4.4446598370   -1.4288749220
  9         -5.3973286940   -1.3702023868    4.4445997329   -1.4288704293
 10         -5.3973289850   -1.3702230869    4.4445759233   -1.4288693188
 11         -5.3973254264   -1.3702312560    4.4445665049   -1.4288691775
 12         -5.3973224003   -1.3702344755    4.4445627836   -1.4288692549
 13         -5.3973208708   -1.3702354890    4.4445616088   -1.4288693270
 14         -5.3973198783   -1.3702360102    4.4445610034   -1.4288693814
 15         -5.3973192535   -1.3702362780    4.4445606917   -1.4288694190
 16         -5.3973188684   -1.3702364155    4.4445605313   -1.4288694437
 17         -5.3973186349   -1.3702364860    4.4445604489   -1.4288694595
 18         -5.3973184951   -1.3702365221    4.4445604065   -1.4288694693
 19         -5.3973184122   -1.3702365405    4.4445603848   -1.4288694753
Atom SCF converged after  19 iterations to a total energy of     -5.39731841

Atom SCF Calculation for S  : Z (AE atom) =  16 : Z (PS atom) =   6
Config String:
Orbitals (num,occ):  3     2.00 4.00 0.00
Orbitals   (num,l):  3        0    1    2
Real-space Grid (nr,dr,rmax): 1203    0.0066555740    8.0000000000
Spherical Bessel Basis (nsws,lmax,cutoff):   47    2  176.3951722778
Confining potential (l,width,scale):  0    3.0000000000  100.0000000000
Confining potential (l,width,scale):  1    3.0000000000  100.0000000000
Confining potential (l,width,scale):  2    3.0000000000  100.0000000000
  1        -12.4735062396   -1.0328741412   10.1554312477   -2.4512393157
  2         -9.9458301913   -2.4607392455    8.3041325857   -2.0306994528
  3        -10.1450417646   -2.2931184565    8.4831893826   -2.0812538287
  4        -10.1528335592   -2.2733105793    8.5050388867   -2.0896035179
  5        -10.1571940363   -2.2633716629    8.5160794258   -2.0939370707
  6        -10.1594380571   -2.2584938667    8.5215163935   -2.0961289008
  7        -10.1605856507   -2.2561081821    8.5241804044   -2.0972291378
  8        -10.1611799191   -2.2549395235    8.5254868240   -2.0977806248
  9        -10.1614918752   -2.2543658586    8.5261285885   -2.0980571586
 10        -10.1616572884   -2.2540839121    8.5264441898   -2.0981959233
 11        -10.1617455602   -2.2539453058    8.5265994231   -2.0982656006
 12        -10.1617928447   -2.2538772062    8.5266757320   -2.0983006047
 13        -10.1618182292   -2.2538437891    8.5267131983   -2.0983181961
 14        -10.1618318741   -2.2538274201    8.5267315620   -2.0983270391
 15        -10.1618392144   -2.2538194197    8.5267405433   -2.0983314852
 16        -10.1618431651   -2.2538155200    8.5267449245   -2.0983337210
 17        -10.1618452923   -2.2538136252    8.5267470551   -2.0983348455
 18        -10.1618464380   -2.2538127080    8.5267480875   -2.0983354110
 19        -10.1618470552   -2.2538122659    8.5267485856   -2.0983356955
 20        -10.1618473878   -2.2538120540    8.5267488248   -2.0983358386
 21        -10.1618475670   -2.2538119530    8.5267489389   -2.0983359106
 22        -10.1618476637   -2.2538119053    8.5267489929   -2.0983359468
Atom SCF converged after  22 iterations to a total energy of    -10.16184766

Atom SCF Calculation for O  : Z (AE atom) =   8 : Z (PS atom) =   6
Config String:
Orbitals (num,occ):  2     2.00 4.00
Orbitals   (num,l):  2        0    1
Real-space Grid (nr,dr,rmax): 1203    0.0066555740    8.0000000000
Spherical Bessel Basis (nsws,lmax,cutoff):   47    1  176.3951722778
Confining potential (l,width,scale):  0    3.0000000000  100.0000000000
Confining potential (l,width,scale):  1    3.0000000000  100.0000000000
  1         -1.8735052164   -7.5539365035   10.1554312477   -2.4512393157
  2        -16.0318313751   -3.1285771268   13.6395848164   -3.2358799643
  3        -15.9524020423   -3.0762819706   13.6967272503   -3.2536856837
  4        -15.8521515939   -3.0781493909   13.6951909330   -3.2561700440
  5        -15.8357139793   -3.0748501933   13.6988803334   -3.2580493133
  6        -15.8246052853   -3.0740779781   13.6997881576   -3.2588327446
  7        -15.8189019501   -3.0737449687   13.7001869911   -3.2592378801
  8        -15.8159785510   -3.0736026016   13.7003615168   -3.2594475790
  9        -15.8144776168   -3.0735437994   13.7004360379   -3.2595560735
 10        -15.8137058024   -3.0735207882   13.7004667348   -3.2596122456
 11        -15.8133083127   -3.0735125946   13.7004786868   -3.2596413656
 12        -15.8131032938   -3.0735102195   13.7004828997   -3.2596564858
 13        -15.8129973902   -3.0735099286   13.7004840891   -3.2596643505
 14        -15.8129426040   -3.0735102506   13.7004842061   -3.2596684489
 15        -15.8129142203   -3.0735106556   13.7004840157   -3.2596705887
 16        -15.8128994940   -3.0735109855   13.7004837906   -3.2596717080
 17        -15.8128918425   -3.0735112169   13.7004836103   -3.2596722946
 18        -15.8128878614   -3.0735113674   13.7004834848   -3.2596726026
 19        -15.8128857871   -3.0735114608   13.7004834035   -3.2596727646
 20        -15.8128847048   -3.0735115170   13.7004833533   -3.2596728500
 21        -15.8128841394   -3.0735115501   13.7004833231   -3.2596728951
 22        -15.8128838436   -3.0735115693   13.7004833054   -3.2596729190
 23        -15.8128836887   -3.0735115802   13.7004832951   -3.2596729316
 24        -15.8128836074   -3.0735115864   13.7004832893   -3.2596729383
Atom SCF converged after  24 iterations to a total energy of    -15.81288361

========================== Calculation in vacuum ==============================
= Adjusting the following parameters: 
= is_implicit_solvent: F
= is_include_apolar: F
= write_denskern: T
= write_tightbox_ngwfs: T
= restart read filename prefix: ""
= restart write filename prefix: "vacuum_"
===============================================================================

Determining parallel strategy ...
... using space-filling curve
... NGWF load balancing: max    219;  min    218;  average    218
... Projector load balancing: max     47;  min     43;  average     44
... done
Calculating direct Ion-Ion energy ...
Ion-Ion Energy        :    838336.43206134019420
======================= Empirical dispersion information =======================
Model : Elstner
Dispersion Correction Energy: -0.33191211E+01 Hartree
================================================================================
Basis initialisation ...... NGWF spheres initialised
... Projector spheres initialised
... NGWF tight boxes initialised
... Tight-boxes gathered
... NGWF basis size (local,global):    1306606  39252763
... Nonlocal pseudopotential projector initialisation
... done

========================== Sparse matrix information ===========================
                        Overlap matrix filling:   6.79%
                        Density kernel filling: 100.00%
              NGWF-Proj overlap matrix filling:   1.77%
                    Hamiltonian matrix filling:   7.68%
                  NGWF diagonal matrix filling:   0.05%
                             KS matrix filling: 100.00% 
                           KSKS matrix filling: 100.00% 
================================================================================

Sparse matrix initialisation ... done

Generating smeared ion density ... done
Smeared ion self correction:     -14534.963309
Smeared ion non-self correction: -838288.360928
NGWF initialisation ...... done
============ Calculation of NGWF S^-1 using Hotelling algorithm ================ 
         Iteration  |  Frobenius norm and Maximum abs value    (of I-S*S_n^-1)   
               1       0.78807318E+02     0.98340434E+00
               2       0.77012285E+02     0.96720371E+00
               3       0.74083747E+02     0.93592113E+00
               4       0.69882427E+02     0.87743217E+00
               5       0.64609231E+02     0.77670120E+00
               6       0.58648832E+02     0.70701095E+00
               7       0.52611289E+02     0.67326641E+00
               8       0.47028254E+02     0.64623101E+00
               9       0.41031241E+02     0.60770709E+00
              10       0.32906661E+02     0.53937888E+00
              11       0.22407837E+02     0.42795004E+00
              12       0.11684647E+02     0.28918104E+00
              13       0.39854386E+01     0.14237619E+00
              14       0.67590985E+00     0.38616082E-01
              15       0.38257578E-01     0.42531468E-02
              16       0.30793172E-03     0.56876053E-04
              17       0.39068421E-07     0.10469014E-07
              18       0.10547070E-12     0.62172489E-14
================================================================================
Calculating local pseudopotential in open BC on the fine real space grid ...
... done

MG BCs: +ve charge blocks (gridpoints):     20664 (   16221540).
MG BCs: -ve charge blocks (gridpoints):      8152 (    1102276).
MG BCs:     Elided blocks (gridpoints):    179976 (  178972649).
MG BCs: Computational effort saved:  99.9853%.
MG BCs: Charge after coarse-graining:           -9.0002317.
MG DL_MG: Calling solver with defect correction order = 8
MG DL_MG: Solver finished
MG Hartree energy from (\int phi*rho dr):              1471.817228
MG Hartree energy from (\int eps (grad phi)^2 dr):     1471.205309
MG Discrepancy due to finite box and discretization:     -0.611919 (  -0.04158%)
MG Correction to account for finite box:                  0.464405
MG Remaining discrepancy, due to discretization:         -0.147514 (  -0.01002%)
Up spin density kernel initialisation ... 
======= Optimisation of K by Palser-Manolopoulos canonical purification ======== 
         Iteration  |  Band structure energy |    c_n   
               1       -2603.29065359054903    0.5262399
               2       -2780.18193994001740    0.5165845
               3       -2960.84071722547560    0.5153992
               4       -3110.75251844187005    0.5297465
               5       -3201.97792951916381    0.5666777
               6       -3239.71257353952751    0.6110968
               7       -3252.58204151845894    0.6217546
               8       -3258.23909327435467    0.6211081
               9       -3260.97544259948745    0.6363009
              10       -3262.10810545503864    0.6593828
              11       -3262.55747374421435    0.6739637
              12       -3262.75657845113801    0.6711114
              13       -3262.85702775344498    0.6305355
              14       -3262.91746882770713    0.5650687
              15       -3262.95145444883974    0.5095995
              16       -3262.96250628861662    0.4956975
              17       -3262.96376689746739    0.5011856
              18       -3262.96398902217697    0.5002749
              19       -3262.96405887277206    0.5000019
              20       -3262.96414476492282    0.5000000
              21       -3262.96425137950064    0.5000000
              22       -3262.96435692554405    0.5000000
              23       -3262.96442201136142    0.5000000
              24       -3262.96443792712898    0.5000000
              25       -3262.96443864212597    0.4999997
              26       -3262.96443864346656    0.4999997
Termination criterion satisfied: band energy change below threshold.
Final occupancy bounds: [    0.00000000000000:    1.00000000000000]
Closest occupancy to 0.5:     1.00000000000000
================================================================================
... done

Writing density kernel to file "complex_26321.vacuum_dkn" ... done

>>> Optimising kernel for current NGWFs:
   Initial electron number for spin 1:    7234.00000000
     Final electron number for spin 1:    7234.00000000

=================== Penalty functional idempotency correction ==================
 RMS occupancy error at iteration   1:  0.000000 (step -0.5000 Ne1=   7234.0000)
            Final RMS occupancy error   :  0.000000 (Ne1=   7234.0000)
               Final occupancy bounds   : [ -0.0000,  1.0000]
================================================================================

................................................................................
<<<<<<<<<<<<<< LNV (Original version) density kernel optimisation >>>>>>>>>>>>>>
~~~~~~~~~~~~~~~~~~~~~~~~~~~~~~~~~~~~~~~~~~~~~~~~~~~~~~~~~~~~~~~~~~~~~~~~~~~~~~~~
   iter  |      energy (Eh)       | rms gradient |  commutator  |   dE (Eh)
MG BCs: +ve charge blocks (gridpoints):     31189 (   17336883).
MG BCs: -ve charge blocks (gridpoints):      8464 (    1135369).
MG BCs:     Elided blocks (gridpoints):    169446 (  177824213).
MG BCs: Computational effort saved:  99.9798%.
MG BCs: Charge after coarse-graining:           -9.0009790.
MG DL_MG: Calling solver with defect correction order = 8
MG DL_MG: Solver finished
MG Hartree energy from (\int phi*rho dr):              1425.497845
MG Hartree energy from (\int eps (grad phi)^2 dr):     1424.838728
MG Discrepancy due to finite box and discretization:     -0.659117 (  -0.04624%)
MG Correction to account for finite box:                  0.469793
MG Remaining discrepancy, due to discretization:         -0.189324 (  -0.01328%)
      ideal mu1:      -0.713194207959
             Q0:  -11569.883708921843
             G0:    -143.845673413156
   RMS gradient:       0.001832477922
MG BCs: +ve charge blocks (gridpoints):     31191 (   17420602).
MG BCs: -ve charge blocks (gridpoints):      8358 (    1114917).
MG BCs:     Elided blocks (gridpoints):    169445 (  177760946).
MG BCs: Computational effort saved:  99.9799%.
MG BCs: Charge after coarse-graining:           -9.0010004.
MG DL_MG: Calling solver with defect correction order = 8
MG DL_MG: Solver finished
MG Hartree energy from (\int phi*rho dr):              1451.402058
MG Hartree energy from (\int eps (grad phi)^2 dr):     1450.759458
MG Discrepancy due to finite box and discretization:     -0.642600 (  -0.04427%)
MG Correction to account for finite box:                  0.468774
MG Remaining discrepancy, due to discretization:         -0.173826 (  -0.01198%)
     Trial step:       0.500000000000
             Q1:  -11581.016658799024
 Quadratic coef:      60.789886829398
 Linear coef   :     -71.922836706578
           Qmin:  -11591.157372641757
Quadratic minimum step length (  0.295784547635) accepted
    Initial Ne1:    7234.00000000
      Final Ne1:    7234.00000000

=================== Penalty functional idempotency correction ==================
 RMS occupancy error at iteration   1:  0.003363 (step -0.4886 Ne1=   7234.0000)
 RMS occupancy error at iteration   2:  0.000025 (step -0.5000 Ne1=   7234.0000)
            Final RMS occupancy error   :  0.000000 (Ne1=   7234.0000)
               Final occupancy bounds   : [  0.0000,  1.0000]
================================================================================

    1        -1.156988370892E+04     1.8325E-03     1.6579E-03
MG BCs: +ve charge blocks (gridpoints):     31185 (   17387704).
MG BCs: -ve charge blocks (gridpoints):      8405 (    1123657).
MG BCs:     Elided blocks (gridpoints):    169451 (  177785104).
MG BCs: Computational effort saved:  99.9798%.
MG BCs: Charge after coarse-graining:           -9.0009918.
MG DL_MG: Calling solver with defect correction order = 8
MG DL_MG: Solver finished
MG Hartree energy from (\int phi*rho dr):              1432.865482
MG Hartree energy from (\int eps (grad phi)^2 dr):     1432.217054
MG Discrepancy due to finite box and discretization:     -0.648427 (  -0.04525%)
MG Correction to account for finite box:                  0.469088
MG Remaining discrepancy, due to discretization:         -0.179340 (  -0.01252%)
      ideal mu1:      -0.754477896196
             Q0:  -11591.555381471291
             G0:     -11.661148177553
   RMS gradient:       0.000518250532
MG BCs: +ve charge blocks (gridpoints):     31190 (   17405710).
MG BCs: -ve charge blocks (gridpoints):      8373 (    1118205).
MG BCs:     Elided blocks (gridpoints):    169446 (  177772550).
MG BCs: Computational effort saved:  99.9798%.
MG BCs: Charge after coarse-graining:           -9.0009953.
MG DL_MG: Calling solver with defect correction order = 8
MG DL_MG: Solver finished
MG Hartree energy from (\int phi*rho dr):              1438.305698
MG Hartree energy from (\int eps (grad phi)^2 dr):     1437.660969
MG Discrepancy due to finite box and discretization:     -0.644729 (  -0.04483%)
MG Correction to account for finite box:                  0.468533
MG Remaining discrepancy, due to discretization:         -0.176196 (  -0.01225%)
     Trial step:       0.384567645308
             Q1:  -11594.298708431423
 Quadratic coef:       1.741173336097
 Linear coef   :      -4.484500296229
           Qmin:  -11594.442908877374
Quadratic minimum step length (  0.495238952823) accepted
    Initial Ne1:    7233.99991176
      Final Ne1:    7234.00000000

=================== Penalty functional idempotency correction ==================
 RMS occupancy error at iteration   1:  0.001756 (step -0.4933 Ne1=   7234.0000)
 RMS occupancy error at iteration   2:  0.000009 (step -0.5001 Ne1=   7234.0000)
            Final RMS occupancy error   :  0.000000 (Ne1=   7234.0000)
               Final occupancy bounds   : [  0.0000,  1.0000]
================================================================================

    2        -1.159155538147E+04     5.1825E-04     4.6889E-04    -2.1672E+01
MG BCs: +ve charge blocks (gridpoints):     31193 (   17410777).
MG BCs: -ve charge blocks (gridpoints):      8366 (    1116729).
MG BCs:     Elided blocks (gridpoints):    169443 (  177768959).
MG BCs: Computational effort saved:  99.9798%.
MG BCs: Charge after coarse-graining:           -9.0009964.
MG DL_MG: Calling solver with defect correction order = 8
MG DL_MG: Solver finished
MG Hartree energy from (\int phi*rho dr):              1439.913086
MG Hartree energy from (\int eps (grad phi)^2 dr):     1439.269346
MG Discrepancy due to finite box and discretization:     -0.643740 (  -0.04471%)
MG Correction to account for finite box:                  0.468386
MG Remaining discrepancy, due to discretization:         -0.175354 (  -0.01218%)
      ideal mu1:      -0.777042853941
             Q0:  -11594.477277081111
             G0:      -1.828629448477
   RMS gradient:       0.000205379177
MG BCs: +ve charge blocks (gridpoints):     31186 (   17410273).
MG BCs: -ve charge blocks (gridpoints):      8371 (    1117763).
MG BCs:     Elided blocks (gridpoints):    169450 (  177768429).
MG BCs: Computational effort saved:  99.9798%.
MG BCs: Charge after coarse-graining:           -9.0009960.
MG DL_MG: Calling solver with defect correction order = 8
MG DL_MG: Solver finished
MG Hartree energy from (\int phi*rho dr):              1437.753203
MG Hartree energy from (\int eps (grad phi)^2 dr):     1437.109850
MG Discrepancy due to finite box and discretization:     -0.643352 (  -0.04475%)
MG Correction to account for finite box:                  0.468157
MG Remaining discrepancy, due to discretization:         -0.175195 (  -0.01219%)
     Trial step:       0.436409071803
             Q1:  -11594.937448345241
 Quadratic coef:       0.337859216152
 Linear coef   :      -0.798030480281
           Qmin:  -11594.948518220181
Quadratic minimum step length (  0.515403642288) accepted
    Initial Ne1:    7233.99996283
      Final Ne1:    7234.00000000

=================== Penalty functional idempotency correction ==================
 RMS occupancy error at iteration   1:  0.000581 (step -0.4976 Ne1=   7234.0000)
 RMS occupancy error at iteration   2:  0.000001 (step -0.5000 Ne1=   7234.0000)
            Final RMS occupancy error   :  0.000000 (Ne1=   7234.0000)
               Final occupancy bounds   : [  0.0000,  1.0000]
================================================================================

    3        -1.159447727708E+04     2.0538E-04     1.8582E-04    -2.9219E+00
MG BCs: +ve charge blocks (gridpoints):     31188 (   17410197).
MG BCs: -ve charge blocks (gridpoints):      8375 (    1117945).
MG BCs:     Elided blocks (gridpoints):    169448 (  177768323).
MG BCs: Computational effort saved:  99.9798%.
MG BCs: Charge after coarse-graining:           -9.0009959.
MG DL_MG: Calling solver with defect correction order = 8
MG DL_MG: Solver finished
MG Hartree energy from (\int phi*rho dr):              1437.369961
MG Hartree energy from (\int eps (grad phi)^2 dr):     1436.726670
MG Discrepancy due to finite box and discretization:     -0.643291 (  -0.04475%)
MG Correction to account for finite box:                  0.468116
MG Remaining discrepancy, due to discretization:         -0.175175 (  -0.01219%)
      ideal mu1:      -0.778107010746
             Q0:  -11594.952783516725
             G0:      -0.429783911058
   RMS gradient:       0.000099660102
MG BCs: +ve charge blocks (gridpoints):     31194 (   17411117).
MG BCs: -ve charge blocks (gridpoints):      8370 (    1117809).
MG BCs:     Elided blocks (gridpoints):    169442 (  177767539).
MG BCs: Computational effort saved:  99.9798%.
MG BCs: Charge after coarse-graining:           -9.0009960.
MG DL_MG: Calling solver with defect correction order = 8
MG DL_MG: Solver finished
MG Hartree energy from (\int phi*rho dr):              1438.502785
MG Hartree energy from (\int eps (grad phi)^2 dr):     1437.859466
MG Discrepancy due to finite box and discretization:     -0.643319 (  -0.04472%)
MG Correction to account for finite box:                  0.468035
MG Remaining discrepancy, due to discretization:         -0.175285 (  -0.01219%)
     Trial step:       0.474264509672
             Q1:  -11595.050842454308
 Quadratic coef:       0.105772318260
 Linear coef   :      -0.203831255843
           Qmin:  -11595.050983077683
Quadratic minimum step length (  0.456971787128) accepted
    Initial Ne1:    7233.99999210
      Final Ne1:    7234.00000000

=================== Penalty functional idempotency correction ==================
 RMS occupancy error at iteration   1:  0.000186 (step -0.4992 Ne1=   7234.0000)
            Final RMS occupancy error   :  0.000000 (Ne1=   7234.0000)
               Final occupancy bounds   : [ -0.0000,  1.0000]
================================================================================

    4        -1.159495278352E+04     9.9660E-05     9.0168E-05    -4.7551E-01
MG BCs: +ve charge blocks (gridpoints):     31194 (   17411099).
MG BCs: -ve charge blocks (gridpoints):      8370 (    1117811).
MG BCs:     Elided blocks (gridpoints):    169442 (  177767555).
MG BCs: Computational effort saved:  99.9798%.
MG BCs: Charge after coarse-graining:           -9.0009960.
MG DL_MG: Calling solver with defect correction order = 8
MG DL_MG: Solver finished
MG Hartree energy from (\int phi*rho dr):              1438.461461
MG Hartree energy from (\int eps (grad phi)^2 dr):     1437.818143
MG Discrepancy due to finite box and discretization:     -0.643318 (  -0.04472%)
MG Correction to account for finite box:                  0.468038
MG Remaining discrepancy, due to discretization:         -0.175281 (  -0.01219%)
      ideal mu1:      -0.778230796662
             Q0:  -11595.051409089705
             G0:      -0.103128461715
   RMS gradient:       0.000048963009
MG BCs: +ve charge blocks (gridpoints):     31195 (   17411244).
MG BCs: -ve charge blocks (gridpoints):      8367 (    1117657).
MG BCs:     Elided blocks (gridpoints):    169441 (  177767564).
MG BCs: Computational effort saved:  99.9798%.
MG BCs: Charge after coarse-graining:           -9.0009960.
MG DL_MG: Calling solver with defect correction order = 8
MG DL_MG: Solver finished
MG Hartree energy from (\int phi*rho dr):              1438.861471
MG Hartree energy from (\int eps (grad phi)^2 dr):     1438.218025
MG Discrepancy due to finite box and discretization:     -0.643446 (  -0.04472%)
MG Correction to account for finite box:                  0.468026
MG Remaining discrepancy, due to discretization:         -0.175420 (  -0.01219%)
     Trial step:       0.465537861571
             Q1:  -11595.076392318122
 Quadratic coef:       0.023026975117
 Linear coef   :      -0.048010203534
           Qmin:  -11595.076433866425
Quadratic minimum step length (  0.485312712003) accepted
    Initial Ne1:    7234.00168419
      Final Ne1:    7234.00000000

=================== Penalty functional idempotency correction ==================
 RMS occupancy error at iteration   1:  0.000064 (step -0.4997 Ne1=   7234.0000)
            Final RMS occupancy error   :  0.000000 (Ne1=   7234.0000)
               Final occupancy bounds   : [ -0.0000,  1.0000]
================================================================================

    5        -1.159505140909E+04     4.8963E-05     4.4300E-05    -9.8626E-02
MG BCs: +ve charge blocks (gridpoints):     31195 (   17411265).
MG BCs: -ve charge blocks (gridpoints):      8367 (    1117646).
MG BCs:     Elided blocks (gridpoints):    169441 (  177767554).
MG BCs: Computational effort saved:  99.9798%.
MG BCs: Charge after coarse-graining:           -9.0009959.
MG DL_MG: Calling solver with defect correction order = 8
MG DL_MG: Solver finished
MG Hartree energy from (\int phi*rho dr):              1438.878502
MG Hartree energy from (\int eps (grad phi)^2 dr):     1438.235050
MG Discrepancy due to finite box and discretization:     -0.643452 (  -0.04472%)
MG Correction to account for finite box:                  0.468026
MG Remaining discrepancy, due to discretization:         -0.175426 (  -0.01219%)
      ideal mu1:      -0.778134626598
             Q0:  -11595.076481457218
             G0:      -0.029885489771
   RMS gradient:       0.000026380474
MG BCs: +ve charge blocks (gridpoints):     31195 (   17410835).
MG BCs: -ve charge blocks (gridpoints):      8371 (    1117877).
MG BCs:     Elided blocks (gridpoints):    169441 (  177767753).
MG BCs: Computational effort saved:  99.9798%.
MG BCs: Charge after coarse-graining:           -9.0009959.
MG DL_MG: Calling solver with defect correction order = 8
MG DL_MG: Solver finished
MG Hartree energy from (\int phi*rho dr):              1438.270729
MG Hartree energy from (\int eps (grad phi)^2 dr):     1437.627284
MG Discrepancy due to finite box and discretization:     -0.643444 (  -0.04474%)
MG Correction to account for finite box:                  0.468025
MG Remaining discrepancy, due to discretization:         -0.175419 (  -0.01220%)
     Trial step:       0.475322461219
             Q1:  -11595.085655295756
 Quadratic coef:       0.005031406014
 Linear coef   :      -0.014205244552
           Qmin:  -11595.086507927565
Quadratic minimum step length (  0.670992540124) accepted
    Initial Ne1:    7234.00097490
      Final Ne1:    7234.00000000

=================== Penalty functional idempotency correction ==================
 RMS occupancy error at iteration   1:  0.000035 (step -0.4998 Ne1=   7234.0000)
            Final RMS occupancy error   :  0.000000 (Ne1=   7234.0000)
               Final occupancy bounds   : [ -0.0000,  1.0000]
================================================================================

    6        -1.159507648146E+04     2.6380E-05     2.3868E-05    -2.5072E-02
MG BCs: +ve charge blocks (gridpoints):     31195 (   17410692).
MG BCs: -ve charge blocks (gridpoints):      8371 (    1117989).
MG BCs:     Elided blocks (gridpoints):    169441 (  177767784).
MG BCs: Computational effort saved:  99.9798%.
MG BCs: Charge after coarse-graining:           -9.0009958.
MG DL_MG: Calling solver with defect correction order = 8
MG DL_MG: Solver finished
MG Hartree energy from (\int phi*rho dr):              1438.020008
MG Hartree energy from (\int eps (grad phi)^2 dr):     1437.376567
MG Discrepancy due to finite box and discretization:     -0.643441 (  -0.04474%)
MG Correction to account for finite box:                  0.468025
MG Remaining discrepancy, due to discretization:         -0.175416 (  -0.01220%)
      ideal mu1:      -0.777966110226
             Q0:  -11595.086517238407
             G0:      -0.014818564554
   RMS gradient:       0.000018599164
MG BCs: +ve charge blocks (gridpoints):     31193 (   17411168).
MG BCs: -ve charge blocks (gridpoints):      8370 (    1117684).
MG BCs:     Elided blocks (gridpoints):    169443 (  177767613).
MG BCs: Computational effort saved:  99.9798%.
MG BCs: Charge after coarse-graining:           -9.0009960.
MG DL_MG: Calling solver with defect correction order = 8
MG DL_MG: Solver finished
MG Hartree energy from (\int phi*rho dr):              1438.556012
MG Hartree energy from (\int eps (grad phi)^2 dr):     1437.912607
MG Discrepancy due to finite box and discretization:     -0.643405 (  -0.04473%)
MG Correction to account for finite box:                  0.468009
MG Remaining discrepancy, due to discretization:         -0.175396 (  -0.01219%)
     Trial step:       0.564745806209
             Q1:  -11595.090049505234
 Quadratic coef:       0.004836455359
 Linear coef   :      -0.008368722186
           Qmin:  -11595.090137426429
Quadratic minimum step length (  0.488601714208) accepted
    Initial Ne1:    7234.00009973
      Final Ne1:    7234.00000000

=================== Penalty functional idempotency correction ==================
 RMS occupancy error at iteration   1:  0.000002 (step -0.5000 Ne1=   7234.0000)
            Final RMS occupancy error   :  0.000000 (Ne1=   7234.0000)
               Final occupancy bounds   : [  0.0000,  1.0000]
================================================================================

    7        -1.159508651724E+04     1.8599E-05     1.6828E-05    -1.0036E-02
MG BCs: +ve charge blocks (gridpoints):     31194 (   17411079).
MG BCs: -ve charge blocks (gridpoints):      8370 (    1117740).
MG BCs:     Elided blocks (gridpoints):    169442 (  177767646).
MG BCs: Computational effort saved:  99.9798%.
MG BCs: Charge after coarse-graining:           -9.0009960.
MG DL_MG: Calling solver with defect correction order = 8
MG DL_MG: Solver finished
MG Hartree energy from (\int phi*rho dr):              1438.483621
MG Hartree energy from (\int eps (grad phi)^2 dr):     1437.840211
MG Discrepancy due to finite box and discretization:     -0.643410 (  -0.04473%)
MG Correction to account for finite box:                  0.468011
MG Remaining discrepancy, due to discretization:         -0.175399 (  -0.01219%)
      ideal mu1:      -0.778202501473
             Q0:  -11595.090137670399
             G0:      -0.008245216231
   RMS gradient:       0.000013874242
MG BCs: +ve charge blocks (gridpoints):     31194 (   17411177).
MG BCs: -ve charge blocks (gridpoints):      8370 (    1117695).
MG BCs:     Elided blocks (gridpoints):    169442 (  177767593).
MG BCs: Computational effort saved:  99.9798%.
MG BCs: Charge after coarse-graining:           -9.0009960.
MG DL_MG: Calling solver with defect correction order = 8
MG DL_MG: Solver finished
MG Hartree energy from (\int phi*rho dr):              1438.562298
MG Hartree energy from (\int eps (grad phi)^2 dr):     1437.918922
MG Discrepancy due to finite box and discretization:     -0.643376 (  -0.04472%)
MG Correction to account for finite box:                  0.468002
MG Remaining discrepancy, due to discretization:         -0.175375 (  -0.01219%)
     Trial step:       0.525295887102
             Q1:  -11595.093247344135
 Quadratic coef:       0.001221504437
 Linear coef   :      -0.004331178174
           Qmin:  -11595.093977014696
Quadratic minimum step length (  0.931290141942) accepted
    Initial Ne1:    7234.00010513
      Final Ne1:    7234.00000000

=================== Penalty functional idempotency correction ==================
 RMS occupancy error at iteration   1:  0.000015 (step -0.4997 Ne1=   7234.0000)
            Final RMS occupancy error   :  0.000000 (Ne1=   7234.0000)
               Final occupancy bounds   : [ -0.0000,  1.0000]
================================================================================

    8        -1.159509013767E+04     1.3874E-05     1.2553E-05    -3.6204E-03
MG BCs: +ve charge blocks (gridpoints):     31194 (   17411207).
MG BCs: -ve charge blocks (gridpoints):      8371 (    1117698).
MG BCs:     Elided blocks (gridpoints):    169442 (  177767560).
MG BCs: Computational effort saved:  99.9798%.
MG BCs: Charge after coarse-graining:           -9.0009960.
MG DL_MG: Calling solver with defect correction order = 8
MG DL_MG: Solver finished
MG Hartree energy from (\int phi*rho dr):              1438.622162
MG Hartree energy from (\int eps (grad phi)^2 dr):     1437.978812
MG Discrepancy due to finite box and discretization:     -0.643350 (  -0.04472%)
MG Correction to account for finite box:                  0.467994
MG Remaining discrepancy, due to discretization:         -0.175355 (  -0.01219%)
      ideal mu1:      -0.778337202825
             Q0:  -11595.093974172021
             G0:      -0.010361778733
   RMS gradient:       0.000015565814
MG BCs: +ve charge blocks (gridpoints):     31194 (   17411098).
MG BCs: -ve charge blocks (gridpoints):      8371 (    1117820).
MG BCs:     Elided blocks (gridpoints):    169442 (  177767547).
MG BCs: Computational effort saved:  99.9798%.
MG BCs: Charge after coarse-graining:           -9.0009959.
MG DL_MG: Calling solver with defect correction order = 8
MG DL_MG: Solver finished
MG Hartree energy from (\int phi*rho dr):              1438.337741
MG Hartree energy from (\int eps (grad phi)^2 dr):     1437.694445
MG Discrepancy due to finite box and discretization:     -0.643296 (  -0.04472%)
MG Correction to account for finite box:                  0.467978
MG Remaining discrepancy, due to discretization:         -0.175318 (  -0.01219%)
     Trial step:       0.699430397724
             Q1:  -11595.098398785340
 Quadratic coef:       0.002822729703
 Linear coef   :      -0.007247343021
           Qmin:  -11595.098626050380
Quadratic minimum step length (  0.897891853901) accepted
    Initial Ne1:    7234.00019364
      Final Ne1:    7234.00000000

=================== Penalty functional idempotency correction ==================
 RMS occupancy error at iteration   1:  0.000064 (step -0.4984 Ne1=   7234.0000)
            Final RMS occupancy error   :  0.000000 (Ne1=   7234.0000)
               Final occupancy bounds   : [ -0.0000,  1.0000]
================================================================================

    9        -1.159509397417E+04     1.5566E-05     1.4083E-05    -3.8365E-03
MG BCs: +ve charge blocks (gridpoints):     31194 (   17411024).
MG BCs: -ve charge blocks (gridpoints):      8371 (    1117861).
MG BCs:     Elided blocks (gridpoints):    169442 (  177767580).
MG BCs: Computational effort saved:  99.9798%.
MG BCs: Charge after coarse-graining:           -9.0009959.
MG DL_MG: Calling solver with defect correction order = 8
MG DL_MG: Solver finished
MG Hartree energy from (\int phi*rho dr):              1438.255643
MG Hartree energy from (\int eps (grad phi)^2 dr):     1437.612363
MG Discrepancy due to finite box and discretization:     -0.643280 (  -0.04473%)
MG Correction to account for finite box:                  0.467973
MG Remaining discrepancy, due to discretization:         -0.175308 (  -0.01219%)
      ideal mu1:      -0.778079829838
   10        -1.159509861924E+04     1.6114E-05     1.4579E-05    -4.6451E-03
Finished density kernel iterations (  10)

Writing density kernel to file "complex_26321.vacuum_dkn" ... done


>>> Density kernel optimised for the current NGWF basis:
     ~~~~~~~~~~~~~~~~~~~~~~~~~~~~~~~~~~~~~~~~~~~~~~~~~~~~~~~~~~~
     Total energy                =  -1.15950986192420E+04  Eh
     Estimated bandgap           =  -2.4273E-01  Eh
     RMS occupancy error         =   9.2627E-08
     [H,K] commutator            =   1.4579E-05
     Occupancy bounds            = [ -0.000:  1.000]
     ~~~~~~~~~~~~~~~~~~~~~~~~~~~~~~~~~~~~~~~~~~~~~~~~~~~~~~~~~~~




################################################################################
########################### NGWF CG iteration  001 #############################
################################################################################
****** Reciprocal space K.E. preconditioning with k_zero =  3.5000 a0^-1 *******

>>> Checking for convergence of NGWFs:   NOT CONVERGED
  ========================================================================
         NGWF RMS gradient =  1.5603E-03 >  2.0000E-06  | above tolerance
  ========================================================================

>>> Improving NGWFs using line search:
============ Calculation of NGWF S^-1 using Hotelling algorithm ================ 
         Iteration  |  Frobenius norm and Maximum abs value    (of I-S*S_n^-1)   
               1       0.19150700E+00     0.51952411E-02
               2       0.84083173E-03     0.37841818E-04
               3       0.27273683E-07     0.20121822E-08
               4       0.13862560E-12     0.75495166E-14
================================================================================
MG BCs: +ve charge blocks (gridpoints):     30667 (   17358223).
MG BCs: -ve charge blocks (gridpoints):      8385 (    1117757).
MG BCs:     Elided blocks (gridpoints):    169972 (  177820485).
MG BCs: Computational effort saved:  99.9801%.
MG BCs: Charge after coarse-graining:           -9.0009970.
MG DL_MG: Calling solver with defect correction order = 8
MG DL_MG: Solver finished
MG Hartree energy from (\int phi*rho dr):              1406.899435
MG Hartree energy from (\int eps (grad phi)^2 dr):     1406.256896
MG Discrepancy due to finite box and discretization:     -0.642539 (  -0.04567%)
MG Correction to account for finite box:                  0.467926
MG Remaining discrepancy, due to discretization:         -0.174614 (  -0.01241%)
============ Calculation of NGWF S^-1 using Hotelling algorithm ================ 
         Iteration  |  Frobenius norm and Maximum abs value    (of I-S*S_n^-1)   
               1       0.18492409E+01     0.42948953E-01
               2       0.70575909E-01     0.24375200E-02
               3       0.13678414E-03     0.82812151E-05
               4       0.89648723E-09     0.97025721E-10
               5       0.11725359E-12     0.62172489E-14
================================================================================
------------------------------- NGWF line search -------------------------------
RMS gradient                =       0.00156028110122
Trial step length           =               0.122474
Gradient along search dir.  =       -270.39321749113
Functional at step 0        =  -11595.09861924196593
Functional at step 1        =  -11625.73475981096271
Functional predicted        =  -11705.64598474363083
Selected quadratic step     =               0.817679
--------------------------- NGWF line search finished --------------------------
                                               
Writing NGWFs to file "complex_26321.vacuum_tightbox_ngwfs"....  done

>>> Optimising kernel for current NGWFs:
   Initial electron number for spin 1:    7268.36412270
     Final electron number for spin 1:    7234.00000000

=================== Penalty functional idempotency correction ==================
 RMS occupancy error at iteration   1:  0.004218 (step -0.4863 Ne1=   7234.0000)
 RMS occupancy error at iteration   2:  0.000069 (step -0.5003 Ne1=   7234.0000)
            Final RMS occupancy error   :  0.000000 (Ne1=   7234.0000)
               Final occupancy bounds   : [  0.0000,  1.0000]
================================================================================

................................................................................
<<<<<<<<<<<<<< LNV (Original version) density kernel optimisation >>>>>>>>>>>>>>
~~~~~~~~~~~~~~~~~~~~~~~~~~~~~~~~~~~~~~~~~~~~~~~~~~~~~~~~~~~~~~~~~~~~~~~~~~~~~~~~
   iter  |      energy (Eh)       | rms gradient |  commutator  |   dE (Eh)
MG BCs: +ve charge blocks (gridpoints):     24859 (   17112255).
MG BCs: -ve charge blocks (gridpoints):      8582 (    1101742).
MG BCs:     Elided blocks (gridpoints):    175781 (  178082468).
MG BCs: Computational effort saved:  99.9830%.
MG BCs: Charge after coarse-graining:           -9.0006670.
MG DL_MG: Calling solver with defect correction order = 8
MG DL_MG: Solver finished
MG Hartree energy from (\int phi*rho dr):              1251.286584
MG Hartree energy from (\int eps (grad phi)^2 dr):     1250.643792
MG Discrepancy due to finite box and discretization:     -0.642791 (  -0.05137%)
MG Correction to account for finite box:                  0.467700
MG Remaining discrepancy, due to discretization:         -0.175092 (  -0.01399%)
      ideal mu1:      -0.717237456689
             Q0:  -11704.832213108893
             G0:      -9.762418565313
   RMS gradient:       0.000477385321
MG BCs: +ve charge blocks (gridpoints):     24925 (   17128074).
MG BCs: -ve charge blocks (gridpoints):      8569 (    1097869).
MG BCs:     Elided blocks (gridpoints):    175715 (  178070522).
MG BCs: Computational effort saved:  99.9829%.
MG BCs: Charge after coarse-graining:           -9.0006627.
MG DL_MG: Calling solver with defect correction order = 8
MG DL_MG: Solver finished
MG Hartree energy from (\int phi*rho dr):              1268.732296
MG Hartree energy from (\int eps (grad phi)^2 dr):     1268.083435
MG Discrepancy due to finite box and discretization:     -0.648861 (  -0.05114%)
MG Correction to account for finite box:                  0.467479
MG Remaining discrepancy, due to discretization:         -0.181382 (  -0.01430%)
     Trial step:       0.792472621917
             Q1:  -11703.224913640530
 Quadratic coef:       9.343748905065
 Linear coef   :      -7.736449436701
           Qmin:  -11706.433621989172
Quadratic minimum step length (  0.328076258883) accepted
    Initial Ne1:    7233.99960135
      Final Ne1:    7234.00000000

=================== Penalty functional idempotency correction ==================
 RMS occupancy error at iteration   1:  0.000348 (step -0.4986 Ne1=   7234.0000)
 RMS occupancy error at iteration   2:  0.000000 (step -0.5000 Ne1=   7234.0000)
            Final RMS occupancy error   :  0.000000 (Ne1=   7234.0000)
               Final occupancy bounds   : [  0.0000,  1.0000]
================================================================================

    1        -1.170483221311E+04     4.7739E-04     4.3192E-04
MG BCs: +ve charge blocks (gridpoints):     24887 (   17119032).
MG BCs: -ve charge blocks (gridpoints):      8577 (    1100189).
MG BCs:     Elided blocks (gridpoints):    175753 (  178077244).
MG BCs: Computational effort saved:  99.9830%.
MG BCs: Charge after coarse-graining:           -9.0006650.
MG DL_MG: Calling solver with defect correction order = 8
MG DL_MG: Solver finished
MG Hartree energy from (\int phi*rho dr):              1257.368545
MG Hartree energy from (\int eps (grad phi)^2 dr):     1256.723353
MG Discrepancy due to finite box and discretization:     -0.645192 (  -0.05131%)
MG Correction to account for finite box:                  0.467587
MG Remaining discrepancy, due to discretization:         -0.177605 (  -0.01413%)
      ideal mu1:      -0.723590409244
             Q0:  -11706.404625708819
             G0:      -0.970853056333
   RMS gradient:       0.000151420706
MG BCs: +ve charge blocks (gridpoints):     24892 (   17118768).
MG BCs: -ve charge blocks (gridpoints):      8574 (    1101006).
MG BCs:     Elided blocks (gridpoints):    175748 (  178076691).
MG BCs: Computational effort saved:  99.9830%.
MG BCs: Charge after coarse-graining:           -9.0006650.
MG DL_MG: Calling solver with defect correction order = 8
MG DL_MG: Solver finished
MG Hartree energy from (\int phi*rho dr):              1258.586697
MG Hartree energy from (\int eps (grad phi)^2 dr):     1257.941139
MG Discrepancy due to finite box and discretization:     -0.645559 (  -0.05129%)
MG Correction to account for finite box:                  0.467583
MG Remaining discrepancy, due to discretization:         -0.177975 (  -0.01414%)
     Trial step:       0.509893570332
             Q1:  -11706.604932373273
 Quadratic coef:       0.294725066708
 Linear coef   :      -0.495031731161
           Qmin:  -11706.612494365525
Quadratic minimum step length (  0.428218576127) accepted
    Initial Ne1:    7233.99994764
      Final Ne1:    7234.00000000

=================== Penalty functional idempotency correction ==================
 RMS occupancy error at iteration   1:  0.000141 (step -0.4994 Ne1=   7234.0000)
            Final RMS occupancy error   :  0.000000 (Ne1=   7234.0000)
               Final occupancy bounds   : [ -0.0000,  1.0000]
================================================================================

    2        -1.170640462571E+04     1.5142E-04     1.3700E-04    -1.5724E+00
MG BCs: +ve charge blocks (gridpoints):     24892 (   17118785).
MG BCs: -ve charge blocks (gridpoints):      8576 (    1100867).
MG BCs:     Elided blocks (gridpoints):    175748 (  178076813).
MG BCs: Computational effort saved:  99.9830%.
MG BCs: Charge after coarse-graining:           -9.0006650.
MG DL_MG: Calling solver with defect correction order = 8
MG DL_MG: Solver finished
MG Hartree energy from (\int phi*rho dr):              1258.391483
MG Hartree energy from (\int eps (grad phi)^2 dr):     1257.745985
MG Discrepancy due to finite box and discretization:     -0.645498 (  -0.05130%)
MG Correction to account for finite box:                  0.467584
MG Remaining discrepancy, due to discretization:         -0.177914 (  -0.01414%)
      ideal mu1:      -0.724602008898
             Q0:  -11706.612934644916
             G0:      -0.145134508077
   RMS gradient:       0.000058144127
MG BCs: +ve charge blocks (gridpoints):     24892 (   17118242).
MG BCs: -ve charge blocks (gridpoints):      8575 (    1101195).
MG BCs:     Elided blocks (gridpoints):    175748 (  178077028).
MG BCs: Computational effort saved:  99.9830%.
MG BCs: Charge after coarse-graining:           -9.0006651.
MG DL_MG: Calling solver with defect correction order = 8
MG DL_MG: Solver finished
MG Hartree energy from (\int phi*rho dr):              1257.938907
MG Hartree energy from (\int eps (grad phi)^2 dr):     1257.293434
MG Discrepancy due to finite box and discretization:     -0.645473 (  -0.05131%)
MG Correction to account for finite box:                  0.467585
MG Remaining discrepancy, due to discretization:         -0.177888 (  -0.01414%)
     Trial step:       0.467274971151
             Q1:  -11706.656623685965
 Quadratic coef:       0.024128682026
 Linear coef   :      -0.067817723074
           Qmin:  -11706.660587926996
Quadratic minimum step length (  0.656677487804) accepted
    Initial Ne1:    7234.00058779
      Final Ne1:    7234.00000000

=================== Penalty functional idempotency correction ==================
 RMS occupancy error at iteration   1:  0.000061 (step -0.4998 Ne1=   7234.0000)
            Final RMS occupancy error   :  0.000000 (Ne1=   7234.0000)
               Final occupancy bounds   : [ -0.0000,  1.0000]
================================================================================

    3        -1.170661293464E+04     5.8144E-05     5.2606E-05    -2.0831E-01
MG BCs: +ve charge blocks (gridpoints):     24893 (   17118047).
MG BCs: -ve charge blocks (gridpoints):      8574 (    1101334).
MG BCs:     Elided blocks (gridpoints):    175747 (  178077084).
MG BCs: Computational effort saved:  99.9830%.
MG BCs: Charge after coarse-graining:           -9.0006651.
MG DL_MG: Calling solver with defect correction order = 8
MG DL_MG: Solver finished
MG Hartree energy from (\int phi*rho dr):              1257.755579
MG Hartree energy from (\int eps (grad phi)^2 dr):     1257.110116
MG Discrepancy due to finite box and discretization:     -0.645464 (  -0.05132%)
MG Correction to account for finite box:                  0.467585
MG Remaining discrepancy, due to discretization:         -0.177879 (  -0.01414%)
      ideal mu1:      -0.723619026781
             Q0:  -11706.660674218670
             G0:      -0.034446486219
   RMS gradient:       0.000028316436
MG BCs: +ve charge blocks (gridpoints):     24893 (   17117870).
MG BCs: -ve charge blocks (gridpoints):      8573 (    1101379).
MG BCs:     Elided blocks (gridpoints):    175747 (  178077216).
MG BCs: Computational effort saved:  99.9830%.
MG BCs: Charge after coarse-graining:           -9.0006651.
MG DL_MG: Calling solver with defect correction order = 8
MG DL_MG: Solver finished
MG Hartree energy from (\int phi*rho dr):              1257.752845
MG Hartree energy from (\int eps (grad phi)^2 dr):     1257.107486
MG Discrepancy due to finite box and discretization:     -0.645359 (  -0.05131%)
MG Correction to account for finite box:                  0.467583
MG Remaining discrepancy, due to discretization:         -0.177776 (  -0.01413%)
     Trial step:       0.553939486017
             Q1:  -11706.669036424137
 Quadratic coef:       0.010719063404
 Linear coef   :      -0.019081268871
           Qmin:  -11706.669165977884
Quadratic minimum step length (  0.493040663741) accepted
    Initial Ne1:    7234.00021251
      Final Ne1:    7234.00000000

=================== Penalty functional idempotency correction ==================
 RMS occupancy error at iteration   1:  0.000017 (step -0.4999 Ne1=   7234.0000)
            Final RMS occupancy error   :  0.000000 (Ne1=   7234.0000)
               Final occupancy bounds   : [ -0.0000,  1.0000]
================================================================================

    4        -1.170666067422E+04     2.8316E-05     2.5619E-05    -4.7740E-02
MG BCs: +ve charge blocks (gridpoints):     24893 (   17117873).
MG BCs: -ve charge blocks (gridpoints):      8574 (    1101396).
MG BCs:     Elided blocks (gridpoints):    175747 (  178077196).
MG BCs: Computational effort saved:  99.9830%.
MG BCs: Charge after coarse-graining:           -9.0006651.
MG DL_MG: Calling solver with defect correction order = 8
MG DL_MG: Solver finished
MG Hartree energy from (\int phi*rho dr):              1257.752962
MG Hartree energy from (\int eps (grad phi)^2 dr):     1257.107592
MG Discrepancy due to finite box and discretization:     -0.645370 (  -0.05131%)
MG Correction to account for finite box:                  0.467583
MG Remaining discrepancy, due to discretization:         -0.177787 (  -0.01414%)
      ideal mu1:      -0.723660593439
             Q0:  -11706.669170562644
             G0:      -0.010726477827
   RMS gradient:       0.000015820982
MG BCs: +ve charge blocks (gridpoints):     24893 (   17118394).
MG BCs: -ve charge blocks (gridpoints):      8573 (    1101166).
MG BCs:     Elided blocks (gridpoints):    175747 (  178076905).
MG BCs: Computational effort saved:  99.9830%.
MG BCs: Charge after coarse-graining:           -9.0006650.
MG DL_MG: Calling solver with defect correction order = 8
MG DL_MG: Solver finished
MG Hartree energy from (\int phi*rho dr):              1258.127937
MG Hartree energy from (\int eps (grad phi)^2 dr):     1257.482599
MG Discrepancy due to finite box and discretization:     -0.645338 (  -0.05129%)
MG Correction to account for finite box:                  0.467583
MG Remaining discrepancy, due to discretization:         -0.177756 (  -0.01413%)
     Trial step:       0.522603761810
             Q1:  -11706.672103830497
 Quadratic coef:       0.002672429810
 Linear coef   :      -0.005605697663
           Qmin:  -11706.672110195163
Quadratic minimum step length (  0.548107695107) accepted
    Initial Ne1:    7234.00008670
      Final Ne1:    7234.00000000

=================== Penalty functional idempotency correction ==================
 RMS occupancy error at iteration   1:  0.000008 (step -0.5000 Ne1=   7234.0000)
            Final RMS occupancy error   :  0.000000 (Ne1=   7234.0000)
               Final occupancy bounds   : [ -0.0000,  1.0000]
================================================================================

    5        -1.170666917056E+04     1.5821E-05     1.4314E-05    -8.4963E-03
MG BCs: +ve charge blocks (gridpoints):     24893 (   17118421).
MG BCs: -ve charge blocks (gridpoints):      8573 (    1101161).
MG BCs:     Elided blocks (gridpoints):    175747 (  178076883).
MG BCs: Computational effort saved:  99.9830%.
MG BCs: Charge after coarse-graining:           -9.0006650.
MG DL_MG: Calling solver with defect correction order = 8
MG DL_MG: Solver finished
MG Hartree energy from (\int phi*rho dr):              1258.146259
MG Hartree energy from (\int eps (grad phi)^2 dr):     1257.500923
MG Discrepancy due to finite box and discretization:     -0.645337 (  -0.05129%)
MG Correction to account for finite box:                  0.467583
MG Remaining discrepancy, due to discretization:         -0.177754 (  -0.01413%)
      ideal mu1:      -0.723989935965
             Q0:  -11706.672111087479
             G0:      -0.003167629481
   RMS gradient:       0.000008597445
MG BCs: +ve charge blocks (gridpoints):     24893 (   17118428).
MG BCs: -ve charge blocks (gridpoints):      8573 (    1101165).
MG BCs:     Elided blocks (gridpoints):    175747 (  178076872).
MG BCs: Computational effort saved:  99.9830%.
MG BCs: Charge after coarse-graining:           -9.0006650.
MG DL_MG: Calling solver with defect correction order = 8
MG DL_MG: Solver finished
MG Hartree energy from (\int phi*rho dr):              1258.125903
MG Hartree energy from (\int eps (grad phi)^2 dr):     1257.480574
MG Discrepancy due to finite box and discretization:     -0.645329 (  -0.05129%)
MG Correction to account for finite box:                  0.467579
MG Remaining discrepancy, due to discretization:         -0.177750 (  -0.01413%)
     Trial step:       0.535203833451
             Q1:  -11706.673146887450
 Quadratic coef:       0.000659527470
 Linear coef   :      -0.001695327441
           Qmin:  -11706.673200555038
Quadratic minimum step length (  0.687875628231) accepted
    Initial Ne1:    7234.00003994
      Final Ne1:    7234.00000000

=================== Penalty functional idempotency correction ==================
 RMS occupancy error at iteration   1:  0.000005 (step -0.5000 Ne1=   7234.0000)
            Final RMS occupancy error   :  0.000000 (Ne1=   7234.0000)
               Final occupancy bounds   : [  0.0000,  1.0000]
================================================================================

    6        -1.170667211109E+04     8.5974E-06     7.7786E-06    -2.9405E-03
MG BCs: +ve charge blocks (gridpoints):     24894 (   17118422).
MG BCs: -ve charge blocks (gridpoints):      8573 (    1101187).
MG BCs:     Elided blocks (gridpoints):    175746 (  178076856).
MG BCs: Computational effort saved:  99.9830%.
MG BCs: Charge after coarse-graining:           -9.0006650.
MG DL_MG: Calling solver with defect correction order = 8
MG DL_MG: Solver finished
MG Hartree energy from (\int phi*rho dr):              1258.120086
MG Hartree energy from (\int eps (grad phi)^2 dr):     1257.474759
MG Discrepancy due to finite box and discretization:     -0.645326 (  -0.05129%)
MG Correction to account for finite box:                  0.467578
MG Remaining discrepancy, due to discretization:         -0.177749 (  -0.01413%)
      ideal mu1:      -0.723954633392
             Q0:  -11706.673200652236
             G0:      -0.001711179775
   RMS gradient:       0.000006320307
MG BCs: +ve charge blocks (gridpoints):     24893 (   17118224).
MG BCs: -ve charge blocks (gridpoints):      8573 (    1101251).
MG BCs:     Elided blocks (gridpoints):    175747 (  178076990).
MG BCs: Computational effort saved:  99.9830%.
MG BCs: Charge after coarse-graining:           -9.0006650.
MG DL_MG: Calling solver with defect correction order = 8
MG DL_MG: Solver finished
MG Hartree energy from (\int phi*rho dr):              1258.016004
MG Hartree energy from (\int eps (grad phi)^2 dr):     1257.370665
MG Discrepancy due to finite box and discretization:     -0.645338 (  -0.05130%)
MG Correction to account for finite box:                  0.467582
MG Remaining discrepancy, due to discretization:         -0.177756 (  -0.01413%)
     Trial step:       0.606756683661
             Q1:  -11706.673549368628
 Quadratic coef:       0.000689553373
 Linear coef   :      -0.001038269765
           Qmin:  -11706.673591486415
Quadratic minimum step length (  0.456800839354) accepted
    Initial Ne1:    7233.99999795
      Final Ne1:    7234.00000000

=================== Penalty functional idempotency correction ==================
 RMS occupancy error at iteration   1:  0.000000 (step -0.5000 Ne1=   7234.0000)
            Final RMS occupancy error   :  0.000000 (Ne1=   7234.0000)
               Final occupancy bounds   : [  0.0000,  1.0000]
================================================================================

    7        -1.170667320065E+04     6.3203E-06     5.7183E-06    -1.0896E-03
MG BCs: +ve charge blocks (gridpoints):     24893 (   17118277).
MG BCs: -ve charge blocks (gridpoints):      8573 (    1101227).
MG BCs:     Elided blocks (gridpoints):    175747 (  178076961).
MG BCs: Computational effort saved:  99.9830%.
MG BCs: Charge after coarse-graining:           -9.0006650.
MG DL_MG: Calling solver with defect correction order = 8
MG DL_MG: Solver finished
MG Hartree energy from (\int phi*rho dr):              1258.041686
MG Hartree energy from (\int eps (grad phi)^2 dr):     1257.396351
MG Discrepancy due to finite box and discretization:     -0.645335 (  -0.05130%)
MG Correction to account for finite box:                  0.467581
MG Remaining discrepancy, due to discretization:         -0.177754 (  -0.01413%)
      ideal mu1:      -0.723870301050
             Q0:  -11706.673591454630
             G0:      -0.001030020247
   RMS gradient:       0.000004903403
MG BCs: +ve charge blocks (gridpoints):     24893 (   17118214).
MG BCs: -ve charge blocks (gridpoints):      8573 (    1101261).
MG BCs:     Elided blocks (gridpoints):    175747 (  178076990).
MG BCs: Computational effort saved:  99.9830%.
MG BCs: Charge after coarse-graining:           -9.0006650.
MG DL_MG: Calling solver with defect correction order = 8
MG DL_MG: Solver finished
MG Hartree energy from (\int phi*rho dr):              1257.997418
MG Hartree energy from (\int eps (grad phi)^2 dr):     1257.352076
MG Discrepancy due to finite box and discretization:     -0.645342 (  -0.05130%)
MG Correction to account for finite box:                  0.467582
MG Remaining discrepancy, due to discretization:         -0.177760 (  -0.01413%)
     Trial step:       0.526466487423
             Q1:  -11706.674023502273
 Quadratic coef:       0.000110223498
 Linear coef   :      -0.000542271141
           Qmin:  -11706.674258413117
Quadratic minimum step length (  1.295039567193) accepted
    Initial Ne1:    7233.99999645
      Final Ne1:    7234.00000000

=================== Penalty functional idempotency correction ==================
 RMS occupancy error at iteration   1:  0.000008 (step -0.4996 Ne1=   7234.0000)
            Final RMS occupancy error   :  0.000000 (Ne1=   7234.0000)
               Final occupancy bounds   : [ -0.0000,  1.0000]
================================================================================

    8        -1.170667359145E+04     4.9034E-06     4.4364E-06    -3.9080E-04
MG BCs: +ve charge blocks (gridpoints):     24893 (   17118118).
MG BCs: -ve charge blocks (gridpoints):      8573 (    1101284).
MG BCs:     Elided blocks (gridpoints):    175747 (  178077063).
MG BCs: Computational effort saved:  99.9830%.
MG BCs: Charge after coarse-graining:           -9.0006650.
MG DL_MG: Calling solver with defect correction order = 8
[...]
MG DL_MG: Calling solver with defect correction order = 8
MG DL_MG: Solver finished
MG Hartree energy from (\int phi*rho dr):              1216.250349
MG Hartree energy from (\int eps (grad phi)^2 dr):     1216.067114
MG Discrepancy due to finite box and discretization:     -0.183235 (  -0.01507%)
MG Correction to account for finite box:                  0.006411
MG Remaining discrepancy, due to discretization:         -0.176824 (  -0.01454%)
             Q2:  -11740.576578179724
  Cubic LS coeff:       0.961984431806
Predicted energy:  -11740.576578179747
Cubic minimum step length accepted
    Initial Ne1:    7234.00000000
      Final Ne1:    7234.00000000

=================== Penalty functional idempotency correction ==================
 RMS occupancy error at iteration   1:  0.000000 (step -0.5000 Ne1=   7234.0000)
            Final RMS occupancy error   :  0.000000 (Ne1=   7234.0000)
               Final occupancy bounds   : [  0.0000,  1.0000]
================================================================================

    7        -1.174057657818E+04     9.8847E-09     8.9433E-09    -2.6776E-09

Reusing previously generated solute cavity.
MG BCs: +ve charge blocks (gridpoints):     29082 (   19347380).
MG BCs: -ve charge blocks (gridpoints):      8570 (    1069352).
MG BCs:     Elided blocks (gridpoints):    171558 (  175879733).
MG BCs: Computational effort saved:  99.9808%.
MG BCs: Charge after coarse-graining:           -9.0009595.
MG DL_MG: Calling solver with defect correction order = 8
MG DL_MG: Solver finished
MG Hartree energy from (\int phi*rho dr):              1216.250349
MG Hartree energy from (\int eps (grad phi)^2 dr):     1216.067114
MG Discrepancy due to finite box and discretization:     -0.183235 (  -0.01507%)
MG Correction to account for finite box:                  0.006411
MG Remaining discrepancy, due to discretization:         -0.176824 (  -0.01454%)
      ideal mu1:      -0.480975738331
             Q0:  -11740.576578179840
             G0:      -0.000000005247
   RMS gradient:       0.000000010275

Reusing previously generated solute cavity.
MG BCs: +ve charge blocks (gridpoints):     29082 (   19347380).
MG BCs: -ve charge blocks (gridpoints):      8570 (    1069351).
MG BCs:     Elided blocks (gridpoints):    171558 (  175879734).
MG BCs: Computational effort saved:  99.9808%.
MG BCs: Charge after coarse-graining:           -9.0009595.
MG DL_MG: Calling solver with defect correction order = 8
MG DL_MG: Solver finished
MG Hartree energy from (\int phi*rho dr):              1216.250314
MG Hartree energy from (\int eps (grad phi)^2 dr):     1216.067079
MG Discrepancy due to finite box and discretization:     -0.183235 (  -0.01507%)
MG Correction to account for finite box:                  0.006411
MG Remaining discrepancy, due to discretization:         -0.176824 (  -0.01454%)
     Trial step:       0.667065932307
             Q1:  -11740.576578181586
 Quadratic coef:       0.000000001754
 Linear coef   :      -0.000000003500
           Qmin:  -11740.576578181586
Quadratic minimum step length (  0.665694587818) accepted
    Initial Ne1:    7234.00000000
      Final Ne1:    7234.00000000

=================== Penalty functional idempotency correction ==================
 RMS occupancy error at iteration   1:  0.000000 (step -0.5000 Ne1=   7234.0000)
            Final RMS occupancy error   :  0.000000 (Ne1=   7234.0000)
               Final occupancy bounds   : [  0.0000,  1.0000]
================================================================================

    8        -1.174057657818E+04     1.0275E-08     9.2965E-09    -4.4238E-09

Reusing previously generated solute cavity.
MG BCs: +ve charge blocks (gridpoints):     29082 (   19347380).
MG BCs: -ve charge blocks (gridpoints):      8570 (    1069351).
MG BCs:     Elided blocks (gridpoints):    171558 (  175879734).
MG BCs: Computational effort saved:  99.9808%.
MG BCs: Charge after coarse-graining:           -9.0009595.
MG DL_MG: Calling solver with defect correction order = 8
MG DL_MG: Solver finished
MG Hartree energy from (\int phi*rho dr):              1216.250314
MG Hartree energy from (\int eps (grad phi)^2 dr):     1216.067079
MG Discrepancy due to finite box and discretization:     -0.183235 (  -0.01507%)
MG Correction to account for finite box:                  0.006411
MG Remaining discrepancy, due to discretization:         -0.176824 (  -0.01454%)
      ideal mu1:      -0.480975697497
             Q0:  -11740.576578181586
             G0:      -0.000000002470
   RMS gradient:       0.000000006190

Reusing previously generated solute cavity.
MG BCs: +ve charge blocks (gridpoints):     29082 (   19347380).
MG BCs: -ve charge blocks (gridpoints):      8570 (    1069351).
MG BCs:     Elided blocks (gridpoints):    171558 (  175879734).
MG BCs: Computational effort saved:  99.9808%.
MG BCs: Charge after coarse-graining:           -9.0009595.
MG DL_MG: Calling solver with defect correction order = 8
MG DL_MG: Solver finished
MG Hartree energy from (\int phi*rho dr):              1216.250326
MG Hartree energy from (\int eps (grad phi)^2 dr):     1216.067091
MG Discrepancy due to finite box and discretization:     -0.183235 (  -0.01507%)
MG Correction to account for finite box:                  0.006411
MG Remaining discrepancy, due to discretization:         -0.176824 (  -0.01454%)
     Trial step:       0.666379907301
             Q1:  -11740.576578182168
 Quadratic coef:       0.000000001064
 Linear coef   :      -0.000000001646
           Qmin:  -11740.576578182223
Quadratic minimum step length (  0.515319449129) accepted
    Initial Ne1:    7234.00000000
      Final Ne1:    7234.00000000

=================== Penalty functional idempotency correction ==================
 RMS occupancy error at iteration   1:  0.000000 (step -0.5000 Ne1=   7234.0000)
            Final RMS occupancy error   :  0.000000 (Ne1=   7234.0000)
               Final occupancy bounds   : [  0.0000,  1.0000]
================================================================================

    9        -1.174057657818E+04     6.1901E-09     5.6005E-09    -1.7462E-09

Reusing previously generated solute cavity.
MG BCs: +ve charge blocks (gridpoints):     29082 (   19347380).
MG BCs: -ve charge blocks (gridpoints):      8570 (    1069351).
MG BCs:     Elided blocks (gridpoints):    171558 (  175879734).
MG BCs: Computational effort saved:  99.9808%.
MG BCs: Charge after coarse-graining:           -9.0009595.
MG DL_MG: Calling solver with defect correction order = 8
MG DL_MG: Solver finished
MG Hartree energy from (\int phi*rho dr):              1216.250323
MG Hartree energy from (\int eps (grad phi)^2 dr):     1216.067088
MG Discrepancy due to finite box and discretization:     -0.183235 (  -0.01507%)
MG Correction to account for finite box:                  0.006411
MG Remaining discrepancy, due to discretization:         -0.176824 (  -0.01454%)
      ideal mu1:      -0.480975706147
   10        -1.174057657818E+04     4.3257E-09     3.9137E-09    -5.8208E-10
Finished density kernel iterations (  10)

Writing density kernel to file "complex_26321.dkn" ... done


>>> Density kernel optimised for the current NGWF basis:
     ~~~~~~~~~~~~~~~~~~~~~~~~~~~~~~~~~~~~~~~~~~~~~~~~~~~~~~~~~~~
     Total energy                =  -1.17405765781822E+04  Eh
     Estimated bandgap           =   8.8181E-02  Eh
     RMS occupancy error         =   4.1499E-16
     [H,K] commutator            =   3.9137E-09
     Occupancy bounds            = [  0.000:  1.000]
     ~~~~~~~~~~~~~~~~~~~~~~~~~~~~~~~~~~~~~~~~~~~~~~~~~~~~~~~~~~~




################################################################################
########################### NGWF CG iteration  004 #############################
################################################################################
****** Reciprocal space K.E. preconditioning with k_zero =  3.5000 a0^-1 *******

>>> Checking for convergence of NGWFs: 
           ........................................................
           |         *** NGWF optimisation converged ***          |
           | RMS NGWF gradient =    0.00000194165347              |
           | Criteria satisfied:                                  |
           | -> RMS NGWF gradient lower than set threshold.       |
           ========================================================

Reusing previously generated solute cavity.
MG BCs: +ve charge blocks (gridpoints):     29082 (   19347380).
MG BCs: -ve charge blocks (gridpoints):      8570 (    1069351).
MG BCs:     Elided blocks (gridpoints):    171558 (  175879734).
MG BCs: Computational effort saved:  99.9808%.
MG BCs: Charge after coarse-graining:           -9.0009595.
MG DL_MG: Calling solver with defect correction order = 8
MG DL_MG: Solver finished
MG Hartree energy from (\int phi*rho dr):              1216.250323
MG Hartree energy from (\int eps (grad phi)^2 dr):     1216.067088
MG Discrepancy due to finite box and discretization:     -0.183235 (  -0.01507%)
MG Correction to account for finite box:                  0.006411
MG Remaining discrepancy, due to discretization:         -0.176824 (  -0.01454%)

================================================================================
           ---------------- ENERGY COMPONENTS (Eh) ----------------
           | Kinetic                    :     8575.12642854154910 |
           | Pseudo. (local,OBC,corr'd) :    -5076.55736209202951 |
           | Pseudopotential (non-local):     1410.23817953656726 |
           | Hartree (molecular)        :     1216.25032327289637 |
           | Exchange-correlation       :    -3376.06695809020221 |
           | Ion-ion (open BC)          :   838336.43206134019420 |
           | Dispersion Correction      :       -3.31912108156024 |
           | Smeared ion non-self corr. :  -838288.36092804488726 |
           | Smeared ion self corr.     :   -14534.96330857570138 |
           | Solvent cavitation energy  :        2.29158413612682 |
           | Solute-solvent dis-rep en. :       -1.64747712506497 |
           | Total                      :   -11740.57657818208281 |
           --------------------------------------------------------
           ------ LOCAL ENERGY COMPONENTS FROM MATRIX TRACES ------
           | Pseudopotential (local)    :    -5076.55736209207862 |
           | Hartree                    :    -2001.44932029819938 |
           --------------------------------------------------------
           Integrated density           :     7233.99999999723968
           Integrated density tr(KS)    :     7234.00000000000000
================================================================================


                        <<<<< CALCULATION SUMMARY >>>>>                         
|ITER|    RMS GRADIENT   |     TOTAL ENERGY    |   step   |     Epredicted              
   0     0.00003911444166 -11740.51466960238758   0.629164 -11740.56812582991915        
   1     0.00000983751252 -11740.57599124300759   0.090936 -11740.57647997082131        
   2     0.00000434650509 -11740.57655819912907   0.016659 -11740.57657567681963        
   3     0.00000194165347 -11740.57657818216830  <-- CG                                 

=================== Finished the calculation in solvent ========================
= Adjusting the following parameters: 
= read_denskern: F
= read_tightbox_ngwfs: F
= maxit_pen: 0 (restored to user-specified value)
= restart read filename prefix: ""
= restart write filename prefix: ""
================================================================================

================================================================================
IS: Calculation in solvent completed (NGWFs converged).      

Individual components of total energy in solvent:     hartree           kcal/mol
- Usual non-electrostatic DFT terms:    -12957.47100846612557    -8130935.641309
- Electrostatic fixed charge energy:      1216.25032327289637      763208.584128
- Apolar cavitation energy:                  2.29158413612682        1437.990725
- Apolar dispersion-repulsion energy:       -1.64747712506497       -1033.807482
 -------------------------------------------------------------------------------
- Total energy in solvent:              -11740.57657818216830    -7367322.873938

Components of total energy in solvent:                hartree           kcal/mol
- Usual non-electrostatic DFT terms:    -12957.47100846612557    -8130935.641309
- Electrostatic energy:                   1216.25032327289637      763208.584128
- Apolar energy terms:                       0.64410701106184         404.183243
 -------------------------------------------------------------------------------
- Total energy in solvent:              -11740.57657818216830    -7367322.873938

Calculation of free energy of solvation:              hartree           kcal/mol
- Total energy in solvent:         (+)  -11740.57657818216830    -7367322.873938
- Total energy in vacuum:          (-)  -11736.74637376191095    -7364919.384429
 -------------------------------------------------------------------------------
- Total free energy of solvation:           -3.83020442025736       -2403.489509

Components of polar term in f.e. of solvation:        hartree           kcal/mol
- Electrostatic:                            -4.69483675419815       -2946.054479
- Change in nonelectrostatic DFT terms:      0.22052532288035         138.381726
 -------------------------------------------------------------------------------
- Polar term in f.e. of solvation:          -4.47431143131780       -2807.672752

Components of free energy of solvation:               hartree           kcal/mol
- Polar term in f.e. of solvation: (+)      -4.47431143131780       -2807.672752
- Apolar (cavitation, dis., rep.): (+)       0.64410701106184         404.183243
 -------------------------------------------------------------------------------
- Total free energy of solvation:           -3.83020442025596       -2403.489509
================================================================================


------------------------------ TIMING INFORMATION ------------------------------
AVERAGE TIME:   37021.279s on     30 node(s)                                    
TOTAL TIME:     37021.281s on     30 node(s)                                    
================= AVERAGE TIMINGS FROM ALL NODES (CUMULATIVE) ==================
|| TAG                                    #calls    cpu time   %total  Gflops ||
|| work_imbalance                       :     1        0.00s   0.000%  ------ ||
|| parallel_prepare_fd_halos_request    :  1953        0.05s   0.000%  ------ ||
|| sparse_set_to_garbage                :   182        0.06s   0.000%  ------ ||
|| parallel_prepare_fd_halos_alloc      :  1953        0.12s   0.000%  ------ ||
|| ngwfs_initialise_from_radial         :     1        0.24s   0.001%  ------ ||
|| parallel_prepare_fd_halos_satisfy    :  1953        0.78s   0.002%  ------ ||
|| basis_extract_function_from_box      :  7199        1.62s   0.004%  ------ ||
|| pseudopotentials_nonlocal_mat        :    31        5.53s   0.015%  ------ ||
|| openbc_locps_radial                  :     1        6.93s   0.019%  ------ ||
|| restart_ngwfs_tightbox_input         :     1        7.97s   0.022%  ------ ||
|| parallel_prepare_fd_halos_comms_imbal:  1953        9.18s   0.025%  ------ ||
|| parallel_prepare_fd_halos_clear      :  1953       13.69s   0.037%  ------ ||
|| restart_kernel_read                  :     1       30.36s   0.082%  ------ ||
|| function_ops_brappd_ketppd           :    31       31.48s   0.085%  ------ ||
|| parallel_prepare_fd_halos_comms_wait :  1953       31.79s   0.086%  ------ ||
|| sparse_init                          :     2       32.38s   0.087%  ------ ||
|| projectors_func_ovlp_box             :    31       34.04s   0.092%  ------ ||
|| projectors_init_fftbox_recip         :   255       34.59s   0.093%  ------ ||
|| density_init_guess_real              :     1       35.32s   0.095%  ------ ||
|| palser_mano_kernel_optimise          :     1       46.14s   0.125%  ------ ||
|| basis_copy_function_to_box           : 117.4k      52.98s   0.143%  ------ ||
|| parallel_prepare_fd_halos            :  1953       55.62s   0.150%  ------ ||
|| fourier_apply_box_pair               : 10365       64.48s   0.174% 495.605 ||
|| restart_kernel_write                 :    17       71.86s   0.194%  ------ ||
|| ngwf_gradient_coeffs                 :    16       95.36s   0.258%  ------ ||
|| pseudo_make_structure_factor         :     2      112.39s   0.304%  ------ ||
|| sparse_embed_hotelling_invert_embed  :    31      124.48s   0.336%  ------ ||
|| sparse_trace                         :  5139      202.49s   0.547%  ------ ||
|| integrals_kinetic                    :    31      212.54s   0.574%  ------ ||
|| projectors_gradient_batch            :   224      270.08s   0.730%  ------ ||
|| restart_ngwfs_tightbox_output        :    14      270.15s   0.730%  ------ ||
|| fourier_apply_cell_backward          :  1303      283.06s   0.765%  63.583 ||
|| finite_difference_derivative         :  1953      295.90s   0.799%  ------ ||
|| fourier_apply_cell_forward           :  1301      303.31s   0.819%  59.249 ||
|| basis_dot_function_with_box          : 18.04M     306.79s   0.829%  ------ ||
|| openbc_locps_on_grid                 :     2      389.70s   1.053%  ------ ||
|| kernel_purify                        :   496      420.68s   1.136%  ------ ||
|| hamiltonian_energy_components        :     4      572.36s   1.546%  ------ ||
|| basis_add_function_to_box            : 37.61M     647.46s   1.749%  ------ ||
|| lnv_gradient_norm                    :   160      651.29s   1.759%  ------ ||
|| xc_energy_potential                  :   325      694.74s   1.877%  ------ ||
|| kernel_fix                           :   160      743.77s   2.009%  ------ ||
|| ngwf_gradient_build_batch            :   224     1017.94s   2.750%  ------ ||
|| cell_grid_extract_box_real           : 61484     1061.62s   2.868%  ------ ||
|| integrals_locpot_mat_els_batch       :  2366     1191.58s   3.219%  ------ ||
|| ngwf_gradient_batch                  :   224     1403.82s   3.792%  ------ ||
|| density_fftbox_deposit_to_cell       : 70956     1561.25s   4.217%  ------ ||
|| density_batch_row_sums               :  4536     1573.04s   4.249%  ------ ||
|| ngwf_gradient_lnv                    :    16     1696.43s   4.582%  ------ ||
|| cell_grid_deposit_box_real           : 72996     1871.73s   5.056%  ------ ||
|| sparse_product                       :  6557     2604.83s   7.036%  ------ ||
|| potential_apply_to_ngwf_batch        :  2366     4285.05s  11.575%  ------ ||
|| multigrid_prepare_bound_cond         :   325     4660.40s  12.588%  ------ ||
|| density_fftbox_interpolate_multiply  : 70956     5304.70s  14.329%  ------ ||
|| integrals_locpot_dbl_grid            :   169     5549.88s  14.991%  ------ ||
|| fourier_apply_box                    : 244.4k    6360.24s  17.180% 573.941 ||
|| density_batch_interp_deposit         :  4536     7632.73s  20.617%  ------ ||
|| dl_mg_solver_calls                   :   325     9053.76s  24.456%  ------ ||
|| density_on_dbl_grid                  :   324     9867.87s  26.655%  ------ ||
|| multigrid_calculate_hartree          :   325    14075.20s  38.019%  ------ ||
|| hamiltonian_lhxc_calculate           :   320    24470.87s  66.099%  ------ ||
|| lnv_denskernel_optimise_cg           :    16    31379.64s  84.761%  ------ ||
|| ngwf_cg_optimise                     :     2    35582.57s  96.114%  ------ ||
|| total_time                           :     1    37021.28s 100.000%  ------ ||
================================================================================
Overhead of generating timer report: 
- 0 ms averaging over threads,
- 4 ms ensuring consistency across MPI ranks,
- 0 ms printing in order.

Job completed: 17-02-2020 18:25 (-0000)

