 +---------------------------------------------------------------+
 |                                                               |
 |        ####### #     # ####### ####### ####### ######         |
 |        #     # ##    # #          #    #       #     #        |
 |        #     # # #   # #          #    #       #     #        |
 |        #     # #  #  # #####      #    #####   ######         |
 |        #     # #   # # #          #    #       #              |
 |        #     # #    ## #          #    #       #              |
 |        ####### #     # #######    #    ####### #              |
 |                                                               |
 |        Linear-Scaling Ab Initio Total Energy Program          |
 |                                                               |
 |          Release for academic collaborators of ODG            |
 |                                             Version 5.3.2.6.  |
 |                                                               |
 +---------------------------------------------------------------+
 |                                                               |
 |  Authors:                                                     |
 |  Jacek Dziedzic, Peter D. Haynes, Nicholas D. M. Hine,        |
 |  Arash. A. Mostofi, Mike C. Payne and Chris-Kriton Skylaris   |
 |                                                               |
 |  Contributors:                                                |
 |  J. Aarons, L. Andrinopoulos, P. W. Avraam, R. A. Bell,       |
 |  A. Bhandari, G. A. Bramley, R. J. Charlton, S. J. Clark,     |
 |  R. J. Clements, G. C. Constantinescu, F. Corsetti,           |
 |  N. Corsini, O. Dieguez, S. M. M. Dubois, K. K. B. Duff,      |
 |  J. M. Escartin, A. Greco, H. Helal, Q. O. Hill, L. P. Lee,   |
 |  J.-H. Li, E. B. Linscott, G. Moynihan, D. D. O`Regan,        |
 |  O. K. Okan, M. J. S. Phipps, C. J. Pickard,                  |
 |  J. C. A. Prentice, M. I. J. Probert, L. E. Ratcliff,         |
 |  M. Robinson, A. Ruiz Serrano, J. S. Spencer, E. W. Tait,     |
 |  G. Teobaldi, D. Turban, V. Vitale, K. A. Wilkinson,          |
 |  C. Weber, J. C. Womack, N. Yeung and T. J. Zuehlsdorff       |
 |                                                               |
 |                                   Copyright (c) 2004-2019     |
 |                                                               |
 |  Please cite:                                                 |
 |  "Introducing ONETEP: Linear-scaling density functional       |
 |   simulations on parallel computers".                         |
 |   C.-K. Skylaris, P. D. Haynes, A. A. Mostofi, M. C. Payne.   |
 |   J. Chem. Phys. 122 084119 (2005).                           |
 |                                                               |
 |          in all publications arising from your use of ONETEP. |
 |                                                               |
 +---------------------------------------------------------------+
 |                                                               |
 |   ONETEP is based on developments described in the following  |
 |   publications:                                               |
 |                                                               |
 |  "Nonorthogonal generalized Wannier function pseudopotential  |
 |   plane-wave method".                                         |
 |   C.-K. Skylaris, A. A. Mostofi, P. D. Haynes, O. Dieguez,    |
 |   M. C. Payne.                                                |
 |   Phys. Rev. B 66 035119 (2002).                              |
 |                                                               |
 |  "Preconditioned iterative minimization for linear-scaling    |
 |   electronic structure calculations".                         |
 |   A. A. Mostofi, P. D. Haynes, C.-K. Skylaris, M. C. Payne.   |
 |   J. Chem. Phys. 119(17), pp.8842-8848 (2003).                |
 |                                                               |
 |  "Total-energy calculations on a real space grid with         |
 |   localized functions and a plane-wave basis".                |
 |   A. A. Mostofi, C.-K. Skylaris, P. D. Haynes, M. C. Payne.   |
 |   Comput. Phys. Commun. 147, pp.788-802 (2002).               |
 |                                                               |
 |  "Accurate kinetic energy evaluation in electronic structure  |
 |   calculations with localized functions on real space grids"  |
 |   C.-K. Skylaris, A. A. Mostofi, P. D. Haynes, C. J. Pickard, |
 |   M. C. Payne.                                                |
 |   Comput. Phys. Commun. 140, pp.315-322 (2001).               |
 |                                                               |
 |  "Accurate ionic forces and geometry optimization in linear-  |
 |   scaling density-functional theory with local orbitals"      |
 |   N. D. M. Hine, M. Robinson, P. D. Haynes, C.-K. Skylaris,   |
 |   M. C. Payne, and A. A. Mostofi.                             |
 |   Phys. Rev. B 83 195102 (2011).                              |
 |                                                               |
 +---------------------------------------------------------------+

Job started: 11-05-2020 10:35 (+0100)
 
Reading parameters from file "complex_25181.dat" ...... done

If your calculation crashes here, before "Checking processes and threads..."
is displayed, then your stack size is insufficient.
If so, use "ulimit -s unlimited" at runtime.
You can disable this check with "check_stack_size F".

Checking processes and threads...
   Determining the default number of threads...
      No default threads set at compilation time: defaulting to 1.
      OpenMP library call suggests 4 threads.
      Hybrid MPI-OpenMP compilation detected.
      Number of MPI processes > 1.
      OMP_NUM_THREADS environment variable present and
      its value matches the one obtained from the OpenMP library call.
      Using this value as default.
      Default threads: 4
      Default applies to threads_max and threads_num_fftboxes.
      Settings in the input file override this default.
   ... done

   Running with 40 MPI processes.
   There are 10 MPI processes running on the same node as the root process.
   Each MPI process is using: 
               1 threads for simulation cell FFTs.
               1 threads for parallel FFT box operations.
               4 threads for loops over batched FFT box operations.
               4 threads in other parallel regions.
... done

Basic input checks...... done

Reading geometry and species blocks from file "complex_25181.dat" ...
  <species_atomic_set> block not found: NGWF initialisation set to SOLVE
IS: Dielectric excluded regions:
    - NONE.
    
  Number of PPD points along a3 set to 1.  This is 
  the default value, it may have been provided also in the input file.
... done
 Writing xyz coordinates to file "complex_25181.xyz" ... done


--------------------------------------------------------------------------------
---------------------------------- INPUT FILE ----------------------------------
--------------------------------------------------------------------------------

cutoff_energy       : 800 eV                                                    
xc_functional PBE                                                               
task SINGLEPOINT                                                                
write_xyz true                                                                  
output_detail VERBOSE                                                           
ngwf_threshold_orig : 0.000002                                                  
kernel_cutoff       : 1000                                                      
k_zero              : 3.5                                                       
elec_cg_max 0                                                                   
occ_mix 1.0                                                                     
dispersion 1                                                                    
maxit_ngwf_cg 40                                                                
minit_lnv 10                                                                    
maxit_lnv 10                                                                    
write_denskern T                                                                
write_tightbox_ngwfs T                                                          
charge 9                                                                        
is_implicit_solvent T                                                           
is_auto_solvation T                                                             
is_include_apolar T                                                             
is_smeared_ion_rep T                                                            
is_solvent_surf_tension 4.7624E-5 Ha/bohr**2                                    
is_apolar_scaling_factor 0.281075                                               
is_solvation_beta 1.3                                                           
is_density_threshold 0.00035                                                    
is_bulk_permittivity 78.54                                                      
is_dielectric_model fix_initial                                                 
is_smeared_ion_width 0.8                                                        
mg_defco_fd_order 8                                                             
is_bc_coarseness 10                                                             
is_bc_surface_coarseness 1                                                      
fine_grid_scale 2.0                                                             
%block species                                                                  
N   N   7 4 8.0                                                                 
H   H   1 1 8.0                                                                 
C   C   6 4 8.0                                                                 
S   S  16 9 8.0                                                                 
O   O   8 4 8.0                                                                 
%endblock species                                                               
%block species_pot                                                              
N   N_00.recpot                                                                 
H   H_04.recpot                                                                 
C   C_01.recpot                                                                 
S   S_00.recpot                                                                 
O   O_02.recpot                                                                 
%endblock species_pot                                                           
%block lattice_cart                                                             
137.614   0.000   0.000                                                         
0.000 142.646   0.000                                                           
0.000   0.000   160.855                                                         
%endblock lattice_cart                                                          
%block positions_abs                                                            
     Hash =   000001967773934609362569
%endblock positions_abs                                                         

--------------------------------------------------------------------------------
-------------------------------- END INPUT FILE --------------------------------
--------------------------------------------------------------------------------


 
 ESDF WARNING(1): "kernelcutoff" (esdf_physical) has no units. Assume "bohr".
 ESDF WARNING(2): "kzero" (esdf_physical) has no units. Assume "1/bohr".
 ESDF WARNING(3
 ): "issmearedionwidth" (esdf_physical) has no units. Assume "bohr".
<<<<<<<<<<<<<<<<<<<<<<<<<<<<<<<<< Full system >>>>>>>>>>>>>>>>>>>>>>>>>>>>>>>>>>
<<<<<<<<<<<<<<<<<<<<<<<<< Pseudopotential information >>>>>>>>>>>>>>>>>>>>>>>>>>
File: N_00.recpot [ 2001 points up to Gmax=  52.9 (1/bohr)]
  Atomic number:  7;  ionic charge:  5.000000
    Shell 1: l = 0; rc = 1.48 bohr
File: H_04.recpot [ 2001 points up to Gmax=  52.9 (1/bohr)]
  Atomic number:  1;  ionic charge:  1.000000
    Local potential
File: C_01.recpot [ 2001 points up to Gmax=  52.9 (1/bohr)]
  Atomic number:  6;  ionic charge:  4.000000
    Shell 1: l = 0; rc = 1.48 bohr
File: S_00.recpot [ 2001 points up to Gmax=  52.9 (1/bohr)]
  Atomic number: 16;  ionic charge:  6.000000
    Shell 1: l = 0; rc = 1.90 bohr
    Shell 2: l = 2; rc = 1.84 bohr
File: O_02.recpot [ 2001 points up to Gmax=  52.9 (1/bohr)]
  Atomic number:  8;  ionic charge:  6.000000
    Shell 1: l = 0; rc = 1.31 bohr
<<<<<<<<<<<<<<<<<<<<<<<<<<<<<<<<<<<<<<<<>>>>>>>>>>>>>>>>>>>>>>>>>>>>>>>>>>>>>>>>

-------------------------- Atom counting information ---------------------------
Symbol    Natoms    Nngwfs    Nprojs
  N        236       944       236
  H       1319      1319         0
  C        817      3268       817
  S          6        54        36
  O        240       960       240
.......   ......    ......    ......
Totals:   2618      6545      1329
--------------------------------------------------------------------------------

=============================== PSINC grid sizes ===============================
                      Simulation cell:  273 x 286 x 320
                              FFT-box:   99 x 105 x  99
                                  PPD:    7 x  11 x   1
Grid space d1=  0.504080586081a0 (KE cutoff=  29.89538Eh = 813.49465eV)
Grid space d2=  0.498762237762a0 (KE cutoff=  30.53633Eh = 830.93588eV)
Grid space d3=  0.502671875000a0 (KE cutoff=  30.06317Eh = 818.06059eV)
================================================================================

********************* Fourier parallelisation information **********************
       Coarse grid (whole simulation cell) dimensions:    273   286   320
          Real-space ('12') slabs/node (min max mean):      8     8     8
         Recip-space ('23') slabs/node (min max mean):      3     4     3
********************************************************************************

********************* Fourier parallelisation information **********************
       Double grid (whole simulation cell) dimensions:    546   572   640
          Real-space ('12') slabs/node (min max mean):     16    16    16
         Recip-space ('23') slabs/node (min max mean):      6     7     6
********************************************************************************
ONETEP fine grid is 546 x 572 x 640 gridpoints, 137.6140 x 142.6460 x 160.8550 bohr.
FD multigrid is     545 x 569 x 633 gridpoints, 137.3620 x 141.8979 x 159.0956 bohr.


Calculating local pseudopotential in open BC on a radial grid ...
Discrepancy between calculated realspace psloc and -Z/x on [5a0,255.264a0]:
max |rel. diff| # avg |rel. diff| #  avg rel. diff #  f # pseudopotential file
 0.000296759711    0.000009439468   0.000000085927   54  'N_00.recpot'
 0.000490027943    0.000021572324  -0.000000031900   54  'H_04.recpot'
 0.000320795249    0.000014598087   0.000000111901   54  'C_01.recpot'
 0.000388730920    0.000016096375   0.000000514750   54  'S_00.recpot'
 0.000828383344    0.000035421288   0.000000087443   54  'O_02.recpot'
... done

Atom SCF Calculation for N  : Z (AE atom) =   7 : Z (PS atom) =   5
Config String:
Orbitals (num,occ):  2     2.00 3.00
Orbitals   (num,l):  2        0    1
Real-space Grid (nr,dr,rmax): 1203    0.0066555740    8.0000000000
Spherical Bessel Basis (nsws,lmax,cutoff):   47    1  176.3951722778
Confining potential (l,width,scale):  0    3.0000000000  100.0000000000
Confining potential (l,width,scale):  1    3.0000000000  100.0000000000
  1         -4.7312375307   -3.4155304497    7.0523828109   -1.9351020946
  2         -9.7309464766   -2.0532547791    8.2966052865   -2.2494486027
  3         -9.6627394379   -2.1124926340    8.2327997121   -2.2369778124
  4         -9.6814993499   -2.1215521045    8.2229805960   -2.2365178421
  5         -9.6843326483   -2.1250939529    8.2191374534   -2.2362718126
  6         -9.6859628709   -2.1267894855    8.2172963573   -2.2362066344
  7         -9.6867347035   -2.1276425665    8.2163697352   -2.2361903369
  8         -9.6870802100   -2.1280764625    8.2158983890   -2.2361891460
  9         -9.6872290423   -2.1282977424    8.2156580222   -2.2361920435
 10         -9.6872901988   -2.1284107021    8.2155353368   -2.2361953393
 11         -9.6873135296   -2.1284684031    8.2154726809   -2.2361979819
 12         -9.6873212476   -2.1284978948    8.2154406648   -2.2361998431
 13         -9.6873229586   -2.1285129774    8.2154242957   -2.2362010676
 14         -9.6873226456   -2.1285206957    8.2154159216   -2.2362018403
 15         -9.6873218534   -2.1285246479    8.2154116349   -2.2362023142
 16         -9.6873212599   -2.1285262679    8.2154098784   -2.2362025420
 17         -9.6873207834   -2.1285272564    8.2154088068   -2.2362026955
 18         -9.6873204210   -2.1285278597    8.2154081529   -2.2362027982
 19         -9.6873201550   -2.1285282280    8.2154077538   -2.2362028667
 20         -9.6873199645   -2.1285284529    8.2154075102   -2.2362029121
 21         -9.6873198305   -2.1285285903    8.2154073614   -2.2362029421
 22         -9.6873197377   -2.1285286742    8.2154072705   -2.2362029618
Atom SCF converged after  22 iterations to a total energy of     -9.68731974

Atom SCF Calculation for H  : Z (AE atom) =   1 : Z (PS atom) =   1
Config String:
Orbitals (num,occ):  1     1.00
Orbitals   (num,l):  1        0
Real-space Grid (nr,dr,rmax): 1203    0.0066555740    8.0000000000
Spherical Bessel Basis (nsws,lmax,cutoff):   47    0  176.3951722778
Confining potential (l,width,scale):  0    3.0000000000  100.0000000000
  1         -0.3194257691   -0.2393854593    0.2820953124   -0.2424203209
  2         -0.3951823392   -0.2377116493    0.2886404059   -0.2475147891
  3         -0.4317044583   -0.2352244387    0.2921333887   -0.2514046172
  4         -0.4470703708   -0.2341892222    0.2934391879   -0.2531009782
  5         -0.4532132900   -0.2338556667    0.2938388426   -0.2537313520
  6         -0.4556579251   -0.2337612552    0.2939448584   -0.2539550462
  7         -0.4566418315   -0.2337377355    0.2939680120   -0.2540342273
  8         -0.4570437922   -0.2337331116    0.2939708287   -0.2540627372
  9         -0.4572102946   -0.2337328328    0.2939698291   -0.2540732650
 10         -0.4572800424   -0.2337332404    0.2939687193   -0.2540772588
 11         -0.4573095100   -0.2337335791    0.2939680317   -0.2540788122
 12         -0.4573220379   -0.2337337762    0.2939676699   -0.2540794294
 13         -0.4573273880   -0.2337338775    0.2939674931   -0.2540796787
 14         -0.4573296803   -0.2337339266    0.2939674099   -0.2540797808
 15         -0.4573306647   -0.2337339495    0.2939673718   -0.2540798230
 16         -0.4573310882   -0.2337339601    0.2939673545   -0.2540798406
 17         -0.4573312706   -0.2337339649    0.2939673467   -0.2540798479
 18         -0.4573313493   -0.2337339670    0.2939673433   -0.2540798510
Atom SCF converged after  18 iterations to a total energy of     -0.45733135

Atom SCF Calculation for C  : Z (AE atom) =   6 : Z (PS atom) =   4
Config String:
Orbitals (num,occ):  2     2.00 2.00
Orbitals   (num,l):  2        0    1
Real-space Grid (nr,dr,rmax): 1203    0.0066555740    8.0000000000
Spherical Bessel Basis (nsws,lmax,cutoff):   47    1  176.3951722778
Confining potential (l,width,scale):  0    3.0000000000  100.0000000000
Confining potential (l,width,scale):  1    3.0000000000  100.0000000000
  1         -5.2976922011   -1.3069684169    4.5135249990   -1.4493313817
  2         -5.3721716256   -1.3429755895    4.4750154450   -1.4361613026
  3         -5.3809959565   -1.3617365618    4.4541655428   -1.4305930207
  4         -5.3918938866   -1.3667928461    4.4484735100   -1.4294652294
  5         -5.3956096428   -1.3688539142    4.4461376126   -1.4290734646
  6         -5.3968271862   -1.3696852393    4.4451910874   -1.4289366866
  7         -5.3972028401   -1.3700178062    4.4448112275   -1.4288900460
  8         -5.3973067903   -1.3701500158    4.4446598370   -1.4288749220
  9         -5.3973286940   -1.3702023868    4.4445997329   -1.4288704293
 10         -5.3973289850   -1.3702230869    4.4445759233   -1.4288693188
 11         -5.3973254264   -1.3702312560    4.4445665049   -1.4288691775
 12         -5.3973224003   -1.3702344755    4.4445627836   -1.4288692549
 13         -5.3973208708   -1.3702354890    4.4445616088   -1.4288693270
 14         -5.3973198783   -1.3702360102    4.4445610034   -1.4288693814
 15         -5.3973192535   -1.3702362780    4.4445606917   -1.4288694190
 16         -5.3973188684   -1.3702364155    4.4445605313   -1.4288694437
 17         -5.3973186349   -1.3702364860    4.4445604489   -1.4288694595
 18         -5.3973184951   -1.3702365221    4.4445604065   -1.4288694693
 19         -5.3973184122   -1.3702365405    4.4445603848   -1.4288694753
Atom SCF converged after  19 iterations to a total energy of     -5.39731841

Atom SCF Calculation for S  : Z (AE atom) =  16 : Z (PS atom) =   6
Config String:
Orbitals (num,occ):  3     2.00 4.00 0.00
Orbitals   (num,l):  3        0    1    2
Real-space Grid (nr,dr,rmax): 1203    0.0066555740    8.0000000000
Spherical Bessel Basis (nsws,lmax,cutoff):   47    2  176.3951722778
Confining potential (l,width,scale):  0    3.0000000000  100.0000000000
Confining potential (l,width,scale):  1    3.0000000000  100.0000000000
Confining potential (l,width,scale):  2    3.0000000000  100.0000000000
  1        -12.4735062396   -1.0328741412   10.1554312477   -2.4512393157
  2         -9.9458301913   -2.4607392455    8.3041325857   -2.0306994528
  3        -10.1450417646   -2.2931184565    8.4831893826   -2.0812538287
  4        -10.1528335592   -2.2733105793    8.5050388867   -2.0896035179
  5        -10.1571940363   -2.2633716629    8.5160794258   -2.0939370707
  6        -10.1594380571   -2.2584938667    8.5215163935   -2.0961289008
  7        -10.1605856507   -2.2561081821    8.5241804044   -2.0972291378
  8        -10.1611799191   -2.2549395235    8.5254868240   -2.0977806248
  9        -10.1614918752   -2.2543658586    8.5261285885   -2.0980571586
 10        -10.1616572884   -2.2540839121    8.5264441898   -2.0981959233
 11        -10.1617455602   -2.2539453058    8.5265994231   -2.0982656006
 12        -10.1617928447   -2.2538772062    8.5266757320   -2.0983006047
 13        -10.1618182292   -2.2538437891    8.5267131983   -2.0983181961
 14        -10.1618318741   -2.2538274201    8.5267315620   -2.0983270391
 15        -10.1618392144   -2.2538194197    8.5267405433   -2.0983314852
 16        -10.1618431651   -2.2538155200    8.5267449245   -2.0983337210
 17        -10.1618452923   -2.2538136252    8.5267470551   -2.0983348455
 18        -10.1618464380   -2.2538127080    8.5267480875   -2.0983354110
 19        -10.1618470552   -2.2538122659    8.5267485856   -2.0983356955
 20        -10.1618473878   -2.2538120540    8.5267488248   -2.0983358386
 21        -10.1618475670   -2.2538119530    8.5267489389   -2.0983359106
 22        -10.1618476637   -2.2538119053    8.5267489929   -2.0983359468
Atom SCF converged after  22 iterations to a total energy of    -10.16184766

Atom SCF Calculation for O  : Z (AE atom) =   8 : Z (PS atom) =   6
Config String:
Orbitals (num,occ):  2     2.00 4.00
Orbitals   (num,l):  2        0    1
Real-space Grid (nr,dr,rmax): 1203    0.0066555740    8.0000000000
Spherical Bessel Basis (nsws,lmax,cutoff):   47    1  176.3951722778
Confining potential (l,width,scale):  0    3.0000000000  100.0000000000
Confining potential (l,width,scale):  1    3.0000000000  100.0000000000
  1         -1.8735052164   -7.5539365035   10.1554312477   -2.4512393157
  2        -16.0318313751   -3.1285771268   13.6395848164   -3.2358799643
  3        -15.9524020423   -3.0762819706   13.6967272503   -3.2536856837
  4        -15.8521515939   -3.0781493909   13.6951909330   -3.2561700440
  5        -15.8357139793   -3.0748501933   13.6988803334   -3.2580493133
  6        -15.8246052853   -3.0740779781   13.6997881576   -3.2588327446
  7        -15.8189019501   -3.0737449687   13.7001869911   -3.2592378801
  8        -15.8159785510   -3.0736026016   13.7003615168   -3.2594475790
  9        -15.8144776168   -3.0735437994   13.7004360379   -3.2595560735
 10        -15.8137058024   -3.0735207882   13.7004667348   -3.2596122456
 11        -15.8133083127   -3.0735125946   13.7004786868   -3.2596413656
 12        -15.8131032938   -3.0735102195   13.7004828997   -3.2596564858
 13        -15.8129973902   -3.0735099286   13.7004840891   -3.2596643505
 14        -15.8129426040   -3.0735102506   13.7004842061   -3.2596684489
 15        -15.8129142203   -3.0735106556   13.7004840157   -3.2596705887
 16        -15.8128994940   -3.0735109855   13.7004837906   -3.2596717080
 17        -15.8128918425   -3.0735112169   13.7004836103   -3.2596722946
 18        -15.8128878614   -3.0735113674   13.7004834848   -3.2596726026
 19        -15.8128857871   -3.0735114608   13.7004834035   -3.2596727646
 20        -15.8128847048   -3.0735115170   13.7004833533   -3.2596728500
 21        -15.8128841394   -3.0735115501   13.7004833231   -3.2596728951
 22        -15.8128838436   -3.0735115693   13.7004833054   -3.2596729190
 23        -15.8128836887   -3.0735115802   13.7004832951   -3.2596729316
 24        -15.8128836074   -3.0735115864   13.7004832893   -3.2596729383
Atom SCF converged after  24 iterations to a total energy of    -15.81288361

========================== Calculation in vacuum ==============================
= Adjusting the following parameters: 
= is_implicit_solvent: F
= is_include_apolar: F
= write_denskern: T
= write_tightbox_ngwfs: T
= restart read filename prefix: ""
= restart write filename prefix: "vacuum_"
===============================================================================

Determining parallel strategy ...
... using space-filling curve
... NGWF load balancing: max    164;  min    163;  average    164
... Projector load balancing: max     36;  min     32;  average     33
... done
Calculating direct Ion-Ion energy ...
Ion-Ion Energy        :    836110.77475723414682
======================= Empirical dispersion information =======================
Model : Elstner
Dispersion Correction Energy: -0.32576457E+01 Hartree
================================================================================
Basis initialisation ...... NGWF spheres initialised
... Projector spheres initialised
... NGWF tight boxes initialised
... Tight-boxes gathered
... NGWF basis size (local,global):    1126092  44934259
... Nonlocal pseudopotential projector initialisation
... done

========================== Sparse matrix information ===========================
                        Overlap matrix filling:   6.72%
                        Density kernel filling: 100.00%
              NGWF-Proj overlap matrix filling:   1.76%
                    Hamiltonian matrix filling:   7.58%
                  NGWF diagonal matrix filling:   0.05%
                             KS matrix filling: 100.00% 
                           KSKS matrix filling: 100.00% 
================================================================================

Sparse matrix initialisation ... done

Generating smeared ion density ... done
Smeared ion self correction:     -14534.963309
Smeared ion non-self correction: -836062.532752
NGWF initialisation ...... done
============ Calculation of NGWF S^-1 using Hotelling algorithm ================ 
         Iteration  |  Frobenius norm and Maximum abs value    (of I-S*S_n^-1)   
               1       0.78743888E+02     0.98281524E+00
               2       0.76902750E+02     0.96608113E+00
               3       0.73914412E+02     0.93387733E+00
               4       0.69655070E+02     0.87401356E+00
               5       0.64339341E+02     0.77084361E+00
               6       0.58358771E+02     0.70485692E+00
               7       0.52335632E+02     0.67052734E+00
               8       0.46766519E+02     0.64355189E+00
               9       0.40700353E+02     0.60334648E+00
              10       0.32449681E+02     0.53380557E+00
              11       0.21879227E+02     0.42905360E+00
              12       0.11237341E+02     0.28997665E+00
              13       0.37419648E+01     0.13537419E+00
              14       0.61181451E+00     0.42456124E-01
              15       0.33416678E-01     0.47749392E-02
              16       0.27399851E-03     0.63240159E-04
              17       0.37002571E-07     0.11199867E-07
              18       0.96196982E-13     0.42188475E-14
================================================================================
Calculating local pseudopotential in open BC on the fine real space grid ...
... done

MG BCs: +ve charge blocks (gridpoints):     20921 (   16438388).
MG BCs: -ve charge blocks (gridpoints):      8225 (    1102675).
MG BCs:     Elided blocks (gridpoints):    179719 (  178755402).
MG BCs: Computational effort saved:  99.9852%.
MG BCs: Charge after coarse-graining:           -9.0002329.
MG DL_MG: Calling solver with defect correction order = 8
MG DL_MG: Solver finished
MG Hartree energy from (\int phi*rho dr):              1472.240914
MG Hartree energy from (\int eps (grad phi)^2 dr):     1471.628982
MG Discrepancy due to finite box and discretization:     -0.611932 (  -0.04156%)
MG Correction to account for finite box:                  0.464460
MG Remaining discrepancy, due to discretization:         -0.147472 (  -0.01002%)
Up spin density kernel initialisation ... 
======= Optimisation of K by Palser-Manolopoulos canonical purification ======== 
         Iteration  |  Band structure energy |    c_n   
               1       -2596.30993952205836    0.5267330
               2       -2772.93507337618303    0.5170066
               3       -2953.90779517073042    0.5155125
               4       -3104.86151925220111    0.5292099
               5       -3197.56454134132628    0.5651553
               6       -3236.33082345768935    0.6098772
               7       -3249.52960571467383    0.6216161
               8       -3255.25891480703058    0.6201766
               9       -3258.04133162218841    0.6376532
              10       -3259.18050285508662    0.6681619
              11       -3259.61604372137936    0.6856816
              12       -3259.81088746083287    0.6816298
              13       -3259.91403042197499    0.6437997
              14       -3259.97827145316933    0.5870669
              15       -3260.01593419919209    0.5370966
              16       -3260.03138225229850    0.5188309
              17       -3260.03523857021992    0.5210482
              18       -3260.03625190065986    0.5077529
              19       -3260.03671848504382    0.5003843
              20       -3260.03694492688783    0.5000008
              21       -3260.03698874726524    0.5000000
              22       -3260.03699005056023    0.5000078
              23       -3260.03699005165618    0.5000078
Termination criterion satisfied: band energy change below threshold.
Final occupancy bounds: [    0.00000000000000:    1.00000000000000]
Closest occupancy to 0.5:     1.00000000000000
================================================================================
... done

Writing density kernel to file "complex_25181.vacuum_dkn" ... done

>>> Optimising kernel for current NGWFs:
   Initial electron number for spin 1:    7234.00000000
     Final electron number for spin 1:    7234.00000000

=================== Penalty functional idempotency correction ==================
 RMS occupancy error at iteration   1:  0.000000 (step -0.5000 Ne1=   7234.0000)
            Final RMS occupancy error   :  0.000000 (Ne1=   7234.0000)
               Final occupancy bounds   : [  0.0000,  1.0000]
================================================================================

................................................................................
<<<<<<<<<<<<<< LNV (Original version) density kernel optimisation >>>>>>>>>>>>>>
~~~~~~~~~~~~~~~~~~~~~~~~~~~~~~~~~~~~~~~~~~~~~~~~~~~~~~~~~~~~~~~~~~~~~~~~~~~~~~~~
   iter  |      energy (Eh)       | rms gradient |  commutator  |   dE (Eh)
MG BCs: +ve charge blocks (gridpoints):     31509 (   17554213).
MG BCs: -ve charge blocks (gridpoints):      8534 (    1136572).
MG BCs:     Elided blocks (gridpoints):    169114 (  177605680).
MG BCs: Computational effort saved:  99.9796%.
MG BCs: Charge after coarse-graining:           -9.0009770.
MG DL_MG: Calling solver with defect correction order = 8
MG DL_MG: Solver finished
MG Hartree energy from (\int phi*rho dr):              1428.707612
MG Hartree energy from (\int eps (grad phi)^2 dr):     1428.044666
MG Discrepancy due to finite box and discretization:     -0.662946 (  -0.04640%)
MG Correction to account for finite box:                  0.473824
MG Remaining discrepancy, due to discretization:         -0.189122 (  -0.01324%)
      ideal mu1:      -0.692176427404
             Q0:  -11566.969196869759
             G0:    -147.639480755344
   RMS gradient:       0.001856485680
MG BCs: +ve charge blocks (gridpoints):     31492 (   17637151).
MG BCs: -ve charge blocks (gridpoints):      8443 (    1115894).
MG BCs:     Elided blocks (gridpoints):    169130 (  177543420).
MG BCs: Computational effort saved:  99.9797%.
MG BCs: Charge after coarse-graining:           -9.0009973.
MG DL_MG: Calling solver with defect correction order = 8
MG DL_MG: Solver finished
MG Hartree energy from (\int phi*rho dr):              1453.241473
MG Hartree energy from (\int eps (grad phi)^2 dr):     1452.595140
MG Discrepancy due to finite box and discretization:     -0.646333 (  -0.04448%)
MG Correction to account for finite box:                  0.472826
MG Remaining discrepancy, due to discretization:         -0.173507 (  -0.01194%)
     Trial step:       0.500000000000
             Q1:  -11578.796738085337
 Quadratic coef:      61.992199162094
 Linear coef   :     -73.819740377672
           Qmin:  -11588.945163778024
Quadratic minimum step length (  0.297697699773) accepted
    Initial Ne1:    7234.00000000
      Final Ne1:    7234.00000000

=================== Penalty functional idempotency correction ==================
 RMS occupancy error at iteration   1:  0.003481 (step -0.4882 Ne1=   7234.0000)
 RMS occupancy error at iteration   2:  0.000027 (step -0.5001 Ne1=   7234.0000)
            Final RMS occupancy error   :  0.000000 (Ne1=   7234.0000)
               Final occupancy bounds   : [  0.0000,  1.0000]
================================================================================

    1        -1.156696919687E+04     1.8565E-03     1.6797E-03
MG BCs: +ve charge blocks (gridpoints):     31510 (   17605354).
MG BCs: -ve charge blocks (gridpoints):      8480 (    1124740).
MG BCs:     Elided blocks (gridpoints):    169115 (  177566371).
MG BCs: Computational effort saved:  99.9796%.
MG BCs: Charge after coarse-graining:           -9.0009887.
MG DL_MG: Calling solver with defect correction order = 8
MG DL_MG: Solver finished
MG Hartree energy from (\int phi*rho dr):              1435.246690
MG Hartree energy from (\int eps (grad phi)^2 dr):     1434.594622
MG Discrepancy due to finite box and discretization:     -0.652069 (  -0.04543%)
MG Correction to account for finite box:                  0.473074
MG Remaining discrepancy, due to discretization:         -0.178995 (  -0.01247%)
      ideal mu1:      -0.738245583188
             Q0:  -11589.364229659899
             G0:     -12.489217286403
   RMS gradient:       0.000536243679
MG BCs: +ve charge blocks (gridpoints):     31506 (   17622247).
MG BCs: -ve charge blocks (gridpoints):      8462 (    1119370).
MG BCs:     Elided blocks (gridpoints):    169118 (  177554848).
MG BCs: Computational effort saved:  99.9796%.
MG BCs: Charge after coarse-graining:           -9.0009924.
MG DL_MG: Calling solver with defect correction order = 8
MG DL_MG: Solver finished
MG Hartree energy from (\int phi*rho dr):              1440.347792
MG Hartree energy from (\int eps (grad phi)^2 dr):     1439.699590
MG Discrepancy due to finite box and discretization:     -0.648203 (  -0.04500%)
MG Correction to account for finite box:                  0.472360
MG Remaining discrepancy, due to discretization:         -0.175843 (  -0.01221%)
     Trial step:       0.385809343959
             Q1:  -11592.291323229671
 Quadratic coef:       1.891363158064
 Linear coef   :      -4.818456727835
           Qmin:  -11592.433117453742
Quadratic minimum step length (  0.491445976712) accepted
    Initial Ne1:    7233.99989832
      Final Ne1:    7234.00000000

=================== Penalty functional idempotency correction ==================
 RMS occupancy error at iteration   1:  0.001855 (step -0.4930 Ne1=   7234.0000)
 RMS occupancy error at iteration   2:  0.000011 (step -0.5001 Ne1=   7234.0000)
            Final RMS occupancy error   :  0.000000 (Ne1=   7234.0000)
               Final occupancy bounds   : [  0.0000,  1.0000]
================================================================================

    2        -1.158936422966E+04     5.3624E-04     4.8517E-04    -2.2395E+01
MG BCs: +ve charge blocks (gridpoints):     31501 (   17626864).
MG BCs: -ve charge blocks (gridpoints):      8457 (    1117920).
MG BCs:     Elided blocks (gridpoints):    169123 (  177551681).
MG BCs: Computational effort saved:  99.9796%.
MG BCs: Charge after coarse-graining:           -9.0009935.
MG DL_MG: Calling solver with defect correction order = 8
MG DL_MG: Solver finished
MG Hartree energy from (\int phi*rho dr):              1441.795831
MG Hartree energy from (\int eps (grad phi)^2 dr):     1441.148608
MG Discrepancy due to finite box and discretization:     -0.647223 (  -0.04489%)
MG Correction to account for finite box:                  0.472180
MG Remaining discrepancy, due to discretization:         -0.175042 (  -0.01214%)
      ideal mu1:      -0.763454183996
             Q0:  -11592.472103638225
             G0:      -1.981357002431
   RMS gradient:       0.000213674379
MG BCs: +ve charge blocks (gridpoints):     31502 (   17626172).
MG BCs: -ve charge blocks (gridpoints):      8458 (    1118880).
MG BCs:     Elided blocks (gridpoints):    169121 (  177551413).
MG BCs: Computational effort saved:  99.9796%.
MG BCs: Charge after coarse-graining:           -9.0009933.
MG DL_MG: Calling solver with defect correction order = 8
MG DL_MG: Solver finished
MG Hartree energy from (\int phi*rho dr):              1439.583394
MG Hartree energy from (\int eps (grad phi)^2 dr):     1438.936646
MG Discrepancy due to finite box and discretization:     -0.646748 (  -0.04493%)
MG Correction to account for finite box:                  0.471893
MG Remaining discrepancy, due to discretization:         -0.174855 (  -0.01215%)
     Trial step:       0.435435930840
             Q1:  -11592.980369078577
 Quadratic coef:       0.354488590328
 Linear coef   :      -0.862754030681
           Qmin:  -11592.997046145378
Quadratic minimum step length (  0.529881799704) accepted
    Initial Ne1:    7233.99995053
      Final Ne1:    7234.00000000

=================== Penalty functional idempotency correction ==================
 RMS occupancy error at iteration   1:  0.000656 (step -0.4970 Ne1=   7234.0000)
 RMS occupancy error at iteration   2:  0.000003 (step -0.5000 Ne1=   7234.0000)
            Final RMS occupancy error   :  0.000000 (Ne1=   7234.0000)
               Final occupancy bounds   : [  0.0000,  1.0000]
================================================================================

    3        -1.159247210364E+04     2.1367E-04     1.9332E-04    -3.1079E+00
MG BCs: +ve charge blocks (gridpoints):     31503 (   17626146).
MG BCs: -ve charge blocks (gridpoints):      8460 (    1119035).
MG BCs:     Elided blocks (gridpoints):    169120 (  177551284).
MG BCs: Computational effort saved:  99.9796%.
MG BCs: Charge after coarse-graining:           -9.0009932.
MG DL_MG: Calling solver with defect correction order = 8
MG DL_MG: Solver finished
MG Hartree energy from (\int phi*rho dr):              1439.112721
MG Hartree energy from (\int eps (grad phi)^2 dr):     1438.466065
MG Discrepancy due to finite box and discretization:     -0.646656 (  -0.04493%)
MG Correction to account for finite box:                  0.471832
MG Remaining discrepancy, due to discretization:         -0.174824 (  -0.01215%)
      ideal mu1:      -0.764673423946
             Q0:  -11593.002109427936
             G0:      -0.532964125714
   RMS gradient:       0.000110947768
MG BCs: +ve charge blocks (gridpoints):     31503 (   17627203).
MG BCs: -ve charge blocks (gridpoints):      8461 (    1118851).
MG BCs:     Elided blocks (gridpoints):    169120 (  177550411).
MG BCs: Computational effort saved:  99.9796%.
MG BCs: Charge after coarse-graining:           -9.0009934.
MG DL_MG: Calling solver with defect correction order = 8
MG DL_MG: Solver finished
MG Hartree energy from (\int phi*rho dr):              1440.306406
MG Hartree energy from (\int eps (grad phi)^2 dr):     1439.659794
MG Discrepancy due to finite box and discretization:     -0.646612 (  -0.04489%)
MG Correction to account for finite box:                  0.471702
MG Remaining discrepancy, due to discretization:         -0.174909 (  -0.01214%)
     Trial step:       0.480343184285
             Q1:  -11593.137434740318
 Quadratic coef:       0.120680372875
 Linear coef   :      -0.256005685256
           Qmin:  -11593.137879042584
Quadratic minimum step length (  0.509488755800) accepted
    Initial Ne1:    7233.99998709
      Final Ne1:    7234.00000000

=================== Penalty functional idempotency correction ==================
 RMS occupancy error at iteration   1:  0.000314 (step -0.4950 Ne1=   7234.0000)
 RMS occupancy error at iteration   2:  0.000004 (step -0.5000 Ne1=   7234.0000)
            Final RMS occupancy error   :  0.000000 (Ne1=   7234.0000)
               Final occupancy bounds   : [  0.0000,  1.0000]
================================================================================

    4        -1.159300210943E+04     1.1095E-04     1.0038E-04    -5.3001E-01
MG BCs: +ve charge blocks (gridpoints):     31502 (   17627275).
MG BCs: -ve charge blocks (gridpoints):      8461 (    1118825).
MG BCs:     Elided blocks (gridpoints):    169121 (  177550365).
MG BCs: Computational effort saved:  99.9796%.
MG BCs: Charge after coarse-graining:           -9.0009934.
MG DL_MG: Calling solver with defect correction order = 8
MG DL_MG: Solver finished
MG Hartree energy from (\int phi*rho dr):              1440.379493
MG Hartree energy from (\int eps (grad phi)^2 dr):     1439.732884
MG Discrepancy due to finite box and discretization:     -0.646609 (  -0.04489%)
MG Correction to account for finite box:                  0.471695
MG Remaining discrepancy, due to discretization:         -0.174915 (  -0.01214%)
      ideal mu1:      -0.764686871754
             Q0:  -11593.138524928130
             G0:      -0.226726549460
   RMS gradient:       0.000072603696
MG BCs: +ve charge blocks (gridpoints):     31505 (   17627660).
MG BCs: -ve charge blocks (gridpoints):      8459 (    1118615).
MG BCs:     Elided blocks (gridpoints):    169119 (  177550190).
MG BCs: Computational effort saved:  99.9796%.
MG BCs: Charge after coarse-graining:           -9.0009933.
MG DL_MG: Calling solver with defect correction order = 8
MG DL_MG: Solver finished
MG Hartree energy from (\int phi*rho dr):              1440.882303
MG Hartree energy from (\int eps (grad phi)^2 dr):     1440.235605
MG Discrepancy due to finite box and discretization:     -0.646698 (  -0.04488%)
MG Correction to account for finite box:                  0.471615
MG Remaining discrepancy, due to discretization:         -0.175083 (  -0.01215%)
     Trial step:       0.494701375902
             Q1:  -11593.219256425742
 Quadratic coef:       0.031430438359
 Linear coef   :      -0.112161935971
           Qmin:  -11593.238589551291
Quadratic minimum step length (  0.882689948747) accepted
    Initial Ne1:    7233.99998998
      Final Ne1:    7234.00000000

=================== Penalty functional idempotency correction ==================
 RMS occupancy error at iteration   1:  0.000991 (step -0.4403 Ne1=   7234.0000)
 RMS occupancy error at iteration   2:  0.000041 (step -0.4996 Ne1=   7234.0000)
            Final RMS occupancy error   :  0.000000 (Ne1=   7234.0000)
               Final occupancy bounds   : [ -0.0000,  1.0000]
================================================================================

    5        -1.159313852493E+04     7.2604E-05     6.5689E-05    -1.3642E-01
MG BCs: +ve charge blocks (gridpoints):     31507 (   17628082).
MG BCs: -ve charge blocks (gridpoints):      8456 (    1118378).
MG BCs:     Elided blocks (gridpoints):    169117 (  177550005).
MG BCs: Computational effort saved:  99.9796%.
MG BCs: Charge after coarse-graining:           -9.0009932.
MG DL_MG: Calling solver with defect correction order = 8
MG DL_MG: Solver finished
MG Hartree energy from (\int phi*rho dr):              1441.269722
MG Hartree energy from (\int eps (grad phi)^2 dr):     1440.622956
MG Discrepancy due to finite box and discretization:     -0.646766 (  -0.04487%)
MG Correction to account for finite box:                  0.471551
MG Remaining discrepancy, due to discretization:         -0.175215 (  -0.01216%)
      ideal mu1:      -0.764409876290
             Q0:  -11593.232068090001
             G0:      -0.350902181533
   RMS gradient:       0.000094646564
MG BCs: +ve charge blocks (gridpoints):     31507 (   17627373).
MG BCs: -ve charge blocks (gridpoints):      8460 (    1118915).
MG BCs:     Elided blocks (gridpoints):    169117 (  177550177).
MG BCs: Computational effort saved:  99.9796%.
MG BCs: Charge after coarse-graining:           -9.0009930.
MG DL_MG: Calling solver with defect correction order = 8
MG DL_MG: Solver finished
MG Hartree energy from (\int phi*rho dr):              1439.547949
MG Hartree energy from (\int eps (grad phi)^2 dr):     1438.901329
MG Discrepancy due to finite box and discretization:     -0.646620 (  -0.04492%)
MG Correction to account for finite box:                  0.471367
MG Remaining discrepancy, due to discretization:         -0.175253 (  -0.01217%)
     Trial step:       0.660808544239
             Q1:  -11593.347269374528
 Quadratic coef:       0.116677875223
 Linear coef   :      -0.231879159749
           Qmin:  -11593.347274046193
Quadratic minimum step length (  0.656627187032) accepted
    Initial Ne1:    7234.00034590
      Final Ne1:    7234.00000000

=================== Penalty functional idempotency correction ==================
 RMS occupancy error at iteration   1:  0.004863 (step -0.2908 Ne1=   7234.0000)
 RMS occupancy error at iteration   2:  0.000409 (step -0.4809 Ne1=   7234.0000)
 RMS occupancy error at iteration   3:  0.000011 (step -0.5002 Ne1=   7234.0000)
            Final RMS occupancy error   :  0.000000 (Ne1=   7234.0000)
               Final occupancy bounds   : [  0.0000,  1.0000]
================================================================================

    6        -1.159323206809E+04     9.4647E-05     8.5632E-05    -9.3543E-02
MG BCs: +ve charge blocks (gridpoints):     31507 (   17627378).
MG BCs: -ve charge blocks (gridpoints):      8460 (    1118921).
MG BCs:     Elided blocks (gridpoints):    169117 (  177550166).
MG BCs: Computational effort saved:  99.9796%.
MG BCs: Charge after coarse-graining:           -9.0009930.
MG DL_MG: Calling solver with defect correction order = 8
MG DL_MG: Solver finished
MG Hartree energy from (\int phi*rho dr):              1439.593464
MG Hartree energy from (\int eps (grad phi)^2 dr):     1438.946805
MG Discrepancy due to finite box and discretization:     -0.646659 (  -0.04492%)
MG Correction to account for finite box:                  0.471402
MG Remaining discrepancy, due to discretization:         -0.175257 (  -0.01217%)
      ideal mu1:      -0.763399272609
             Q0:  -11593.339605550980
             G0:      -0.523027716632
   RMS gradient:       0.000110497563
MG BCs: +ve charge blocks (gridpoints):     31504 (   17627660).
MG BCs: -ve charge blocks (gridpoints):      8456 (    1118914).
MG BCs:     Elided blocks (gridpoints):    169120 (  177549891).
MG BCs: Computational effort saved:  99.9796%.
MG BCs: Charge after coarse-graining:           -9.0009933.
MG DL_MG: Calling solver with defect correction order = 8
MG DL_MG: Solver finished
MG Hartree energy from (\int phi*rho dr):              1439.428798
MG Hartree energy from (\int eps (grad phi)^2 dr):     1438.782423
MG Discrepancy due to finite box and discretization:     -0.646374 (  -0.04490%)
MG Correction to account for finite box:                  0.471508
MG Remaining discrepancy, due to discretization:         -0.174866 (  -0.01215%)
     Trial step:       0.658714547866
             Q1:  -11593.504990296788
 Quadratic coef:       0.179141220075
 Linear coef   :      -0.344525965882
           Qmin:  -11593.505254390926
Quadratic minimum step length (  0.633422798365) accepted
    Initial Ne1:    7233.99992761
      Final Ne1:    7234.00000000

=================== Penalty functional idempotency correction ==================
 RMS occupancy error at iteration   1:  0.000345 (step -0.4740 Ne1=   7234.0000)
 RMS occupancy error at iteration   2:  0.000004 (step -0.5000 Ne1=   7234.0000)
            Final RMS occupancy error   :  0.000000 (Ne1=   7234.0000)
               Final occupancy bounds   : [  0.0000,  1.0000]
================================================================================

    7        -1.159333960555E+04     1.1050E-04     9.9973E-05    -1.0754E-01
MG BCs: +ve charge blocks (gridpoints):     31503 (   17627644).
MG BCs: -ve charge blocks (gridpoints):      8456 (    1118915).
MG BCs:     Elided blocks (gridpoints):    169121 (  177549906).
MG BCs: Computational effort saved:  99.9796%.
MG BCs: Charge after coarse-graining:           -9.0009933.
MG DL_MG: Calling solver with defect correction order = 8
MG DL_MG: Solver finished
MG Hartree energy from (\int phi*rho dr):              1439.434613
MG Hartree energy from (\int eps (grad phi)^2 dr):     1438.788229
MG Discrepancy due to finite box and discretization:     -0.646384 (  -0.04491%)
MG Correction to account for finite box:                  0.471503
MG Remaining discrepancy, due to discretization:         -0.174881 (  -0.01215%)
      ideal mu1:      -0.763639301696
             Q0:  -11593.505426969845
             G0:      -0.323078604571
   RMS gradient:       0.000086905109
MG BCs: +ve charge blocks (gridpoints):     31503 (   17628199).
MG BCs: -ve charge blocks (gridpoints):      8455 (    1118470).
MG BCs:     Elided blocks (gridpoints):    169121 (  177549796).
MG BCs: Computational effort saved:  99.9796%.
MG BCs: Charge after coarse-graining:           -9.0009935.
MG DL_MG: Calling solver with defect correction order = 8
MG DL_MG: Solver finished
MG Hartree energy from (\int phi*rho dr):              1440.213274
MG Hartree energy from (\int eps (grad phi)^2 dr):     1439.566879
MG Discrepancy due to finite box and discretization:     -0.646395 (  -0.04488%)
MG Correction to account for finite box:                  0.471604
MG Remaining discrepancy, due to discretization:         -0.174791 (  -0.01214%)
     Trial step:       0.645944898759
             Q1:  -11593.605981224799
 Quadratic coef:       0.108136721567
 Linear coef   :      -0.208690976521
           Qmin:  -11593.606114144031
Quadratic minimum step length (  0.623298310454) accepted
    Initial Ne1:    7233.99995408
      Final Ne1:    7234.00000000

=================== Penalty functional idempotency correction ==================
 RMS occupancy error at iteration   1:  0.001074 (step -0.4282 Ne1=   7234.0000)
 RMS occupancy error at iteration   2:  0.000031 (step -0.4987 Ne1=   7234.0000)
            Final RMS occupancy error   :  0.000000 (Ne1=   7234.0000)
               Final occupancy bounds   : [ -0.0000,  1.0000]
================================================================================

    8        -1.159350542697E+04     8.6905E-05     7.8628E-05    -1.6582E-01
MG BCs: +ve charge blocks (gridpoints):     31503 (   17628182).
MG BCs: -ve charge blocks (gridpoints):      8455 (    1118491).
MG BCs:     Elided blocks (gridpoints):    169121 (  177549792).
MG BCs: Computational effort saved:  99.9796%.
MG BCs: Charge after coarse-graining:           -9.0009935.
MG DL_MG: Calling solver with defect correction order = 8
MG DL_MG: Solver finished
MG Hartree energy from (\int phi*rho dr):              1440.185937
MG Hartree energy from (\int eps (grad phi)^2 dr):     1439.539543
MG Discrepancy due to finite box and discretization:     -0.646393 (  -0.04488%)
MG Correction to account for finite box:                  0.471600
MG Remaining discrepancy, due to discretization:         -0.174794 (  -0.01214%)
      ideal mu1:      -0.763249706191
             Q0:  -11593.607418690226
             G0:      -0.166670551735
   RMS gradient:       0.000061522340
MG BCs: +ve charge blocks (gridpoints):     31507 (   17628242).
MG BCs: -ve charge blocks (gridpoints):      8456 (    1118523).
MG BCs:     Elided blocks (gridpoints):    169117 (  177549700).
MG BCs: Computational effort saved:  99.9796%.
MG BCs: Charge after coarse-graining:           -9.0009934.
MG DL_MG: Calling solver with defect correction order = 8
MG DL_MG: Solver finished
MG Hartree energy from (\int phi*rho dr):              1440.199380
MG Hartree energy from (\int eps (grad phi)^2 dr):     1439.552942
MG Discrepancy due to finite box and discretization:     -0.646438 (  -0.04489%)
MG Correction to account for finite box:                  0.471629
MG Remaining discrepancy, due to discretization:         -0.174809 (  -0.01214%)
     Trial step:       0.634520578108
             Q1:  -11593.664357202593
 Quadratic coef:       0.048817382474
 Linear coef   :      -0.105755894841
           Qmin:  -11593.664694954983
Quadratic minimum step length (  0.687299155870) accepted
    Initial Ne1:    7234.00066276
      Final Ne1:    7234.00000000

=================== Penalty functional idempotency correction ==================
 RMS occupancy error at iteration   1:  0.001341 (step -0.4203 Ne1=   7234.0000)
 RMS occupancy error at iteration   2:  0.000054 (step -0.4977 Ne1=   7234.0000)
 RMS occupancy error at iteration   3:  0.000000 (step -0.5000 Ne1=   7234.0000)
            Final RMS occupancy error   :  0.000000 (Ne1=   7234.0000)
               Final occupancy bounds   : [  0.0000,  1.0000]
================================================================================

    9        -1.159360741869E+04     6.1522E-05     5.5663E-05    -1.0199E-01
MG BCs: +ve charge blocks (gridpoints):     31508 (   17628249).
MG BCs: -ve charge blocks (gridpoints):      8456 (    1118514).
MG BCs:     Elided blocks (gridpoints):    169116 (  177549702).
MG BCs: Computational effort saved:  99.9796%.
MG BCs: Charge after coarse-graining:           -9.0009934.
MG DL_MG: Calling solver with defect correction order = 8
MG DL_MG: Solver finished
MG Hartree energy from (\int phi*rho dr):              1440.202364
MG Hartree energy from (\int eps (grad phi)^2 dr):     1439.555918
MG Discrepancy due to finite box and discretization:     -0.646446 (  -0.04489%)
MG Correction to account for finite box:                  0.471636
MG Remaining discrepancy, due to discretization:         -0.174810 (  -0.01214%)
      ideal mu1:      -0.762373477758
   10        -1.159366641298E+04     4.9696E-05     4.4963E-05    -5.8994E-02
Finished density kernel iterations (  10)

Writing density kernel to file "complex_25181.vacuum_dkn" ... done


>>> Density kernel optimised for the current NGWF basis:
     ~~~~~~~~~~~~~~~~~~~~~~~~~~~~~~~~~~~~~~~~~~~~~~~~~~~~~~~~~~~
     Total energy                =  -1.15936664129806E+04  Eh
     Estimated bandgap           =  -4.2174E-01  Eh
     RMS occupancy error         =   4.5714E-12
     [H,K] commutator            =   4.4963E-05
     Occupancy bounds            = [  0.000:  1.000]
     ~~~~~~~~~~~~~~~~~~~~~~~~~~~~~~~~~~~~~~~~~~~~~~~~~~~~~~~~~~~




################################################################################
########################### NGWF CG iteration  001 #############################
################################################################################
****** Reciprocal space K.E. preconditioning with k_zero =  3.5000 a0^-1 *******

>>> Checking for convergence of NGWFs:   NOT CONVERGED
  ========================================================================
         NGWF RMS gradient =  1.5614E-03 >  2.0000E-06  | above tolerance
  ========================================================================

>>> Improving NGWFs using line search:
============ Calculation of NGWF S^-1 using Hotelling algorithm ================ 
         Iteration  |  Frobenius norm and Maximum abs value    (of I-S*S_n^-1)   
               1       0.19216604E+00     0.49435961E-02
               2       0.85512881E-03     0.37001237E-04
               3       0.29219406E-07     0.24001825E-08
               4       0.12988596E-12     0.97699626E-14
================================================================================
MG BCs: +ve charge blocks (gridpoints):     31054 (   17578660).
MG BCs: -ve charge blocks (gridpoints):      8454 (    1118368).
MG BCs:     Elided blocks (gridpoints):    169573 (  177599437).
MG BCs: Computational effort saved:  99.9799%.
MG BCs: Charge after coarse-graining:           -9.0009934.
MG DL_MG: Calling solver with defect correction order = 8
MG DL_MG: Solver finished
MG Hartree energy from (\int phi*rho dr):              1408.709385
MG Hartree energy from (\int eps (grad phi)^2 dr):     1408.063598
MG Discrepancy due to finite box and discretization:     -0.645787 (  -0.04584%)
MG Correction to account for finite box:                  0.471579
MG Remaining discrepancy, due to discretization:         -0.174207 (  -0.01237%)
============ Calculation of NGWF S^-1 using Hotelling algorithm ================ 
         Iteration  |  Frobenius norm and Maximum abs value    (of I-S*S_n^-1)   
               1       0.18546340E+01     0.40897046E-01
               2       0.71311279E-01     0.22751762E-02
               3       0.14274114E-03     0.93974091E-05
               4       0.11019854E-08     0.17546531E-09
               5       0.11115508E-12     0.59952043E-14
================================================================================
------------------------------- NGWF line search -------------------------------
RMS gradient                =       0.00156144701224
Trial step length           =               0.122474
Gradient along search dir.  =       -270.79746800608
Functional at step 0        =  -11593.66641298064496
Functional at step 1        =  -11624.34955157130025
Functional predicted        =  -11704.43236747758601
Selected quadratic step     =               0.818072
--------------------------- NGWF line search finished --------------------------
                                               
Writing NGWFs to file "complex_25181.vacuum_tightbox_ngwfs"....  done

>>> Optimising kernel for current NGWFs:
   Initial electron number for spin 1:    7268.33996456
     Final electron number for spin 1:    7234.00000000

=================== Penalty functional idempotency correction ==================
 RMS occupancy error at iteration   1:  0.004199 (step -0.4865 Ne1=   7234.0000)
 RMS occupancy error at iteration   2:  0.000068 (step -0.5003 Ne1=   7234.0000)
            Final RMS occupancy error   :  0.000000 (Ne1=   7234.0000)
               Final occupancy bounds   : [  0.0000,  1.0000]
================================================================================

................................................................................
<<<<<<<<<<<<<< LNV (Original version) density kernel optimisation >>>>>>>>>>>>>>
~~~~~~~~~~~~~~~~~~~~~~~~~~~~~~~~~~~~~~~~~~~~~~~~~~~~~~~~~~~~~~~~~~~~~~~~~~~~~~~~
   iter  |      energy (Eh)       | rms gradient |  commutator  |   dE (Eh)
MG BCs: +ve charge blocks (gridpoints):     25235 (   17331009).
MG BCs: -ve charge blocks (gridpoints):      8636 (    1101865).
MG BCs:     Elided blocks (gridpoints):    175405 (  177863591).
MG BCs: Computational effort saved:  99.9827%.
MG BCs: Charge after coarse-graining:           -9.0006707.
MG DL_MG: Calling solver with defect correction order = 8
MG DL_MG: Solver finished
MG Hartree energy from (\int phi*rho dr):              1252.352026
MG Hartree energy from (\int eps (grad phi)^2 dr):     1251.705616
MG Discrepancy due to finite box and discretization:     -0.646410 (  -0.05162%)
MG Correction to account for finite box:                  0.471337
MG Remaining discrepancy, due to discretization:         -0.175073 (  -0.01398%)
      ideal mu1:      -0.703107288306
             Q0:  -11703.610920109088
             G0:     -10.190504023481
   RMS gradient:       0.000487739784
MG BCs: +ve charge blocks (gridpoints):     25306 (   17342868).
MG BCs: -ve charge blocks (gridpoints):      8613 (    1099861).
MG BCs:     Elided blocks (gridpoints):    175334 (  177853736).
MG BCs: Computational effort saved:  99.9827%.
MG BCs: Charge after coarse-graining:           -9.0006674.
MG DL_MG: Calling solver with defect correction order = 8
MG DL_MG: Solver finished
MG Hartree energy from (\int phi*rho dr):              1265.488406
MG Hartree energy from (\int eps (grad phi)^2 dr):     1264.837414
MG Discrepancy due to finite box and discretization:     -0.650992 (  -0.05144%)
MG Correction to account for finite box:                  0.470583
MG Remaining discrepancy, due to discretization:         -0.180408 (  -0.01426%)
     Trial step:       0.660382811494
             Q1:  -11703.543539035600
 Quadratic coef:       6.797014771051
 Linear coef   :      -6.729633697563
           Qmin:  -11705.276650257867
Quadratic minimum step length (  0.326918108259) accepted
    Initial Ne1:    7233.99961592
      Final Ne1:    7234.00000000

=================== Penalty functional idempotency correction ==================
 RMS occupancy error at iteration   1:  0.000358 (step -0.4986 Ne1=   7234.0000)
 RMS occupancy error at iteration   2:  0.000000 (step -0.5000 Ne1=   7234.0000)
            Final RMS occupancy error   :  0.000000 (Ne1=   7234.0000)
               Final occupancy bounds   : [  0.0000,  1.0000]
================================================================================

    1        -1.170361092011E+04     4.8774E-04     4.4129E-04
MG BCs: +ve charge blocks (gridpoints):     25269 (   17337020).
MG BCs: -ve charge blocks (gridpoints):      8633 (    1100862).
MG BCs:     Elided blocks (gridpoints):    175371 (  177858583).
MG BCs: Computational effort saved:  99.9827%.
MG BCs: Charge after coarse-graining:           -9.0006690.
MG DL_MG: Calling solver with defect correction order = 8
MG DL_MG: Solver finished
MG Hartree energy from (\int phi*rho dr):              1258.002692
MG Hartree energy from (\int eps (grad phi)^2 dr):     1257.354110
MG Discrepancy due to finite box and discretization:     -0.648581 (  -0.05156%)
MG Correction to account for finite box:                  0.470935
MG Remaining discrepancy, due to discretization:         -0.177647 (  -0.01412%)
      ideal mu1:      -0.708659535224
             Q0:  -11705.255842941348
             G0:      -0.998737661839
   RMS gradient:       0.000153129197
MG BCs: +ve charge blocks (gridpoints):     25274 (   17336898).
MG BCs: -ve charge blocks (gridpoints):      8632 (    1101683).
MG BCs:     Elided blocks (gridpoints):    175366 (  177857884).
MG BCs: Computational effort saved:  99.9827%.
MG BCs: Charge after coarse-graining:           -9.0006688.
MG DL_MG: Calling solver with defect correction order = 8
MG DL_MG: Solver finished
MG Hartree energy from (\int phi*rho dr):              1259.020761
MG Hartree energy from (\int eps (grad phi)^2 dr):     1258.371940
MG Discrepancy due to finite box and discretization:     -0.648820 (  -0.05153%)
MG Correction to account for finite box:                  0.470809
MG Remaining discrepancy, due to discretization:         -0.178011 (  -0.01414%)
     Trial step:       0.464640828447
             Q1:  -11705.471753627411
 Quadratic coef:       0.248143608535
 Linear coef   :      -0.464054294599
           Qmin:  -11705.472800361295
Quadratic minimum step length (  0.434463279470) accepted
    Initial Ne1:    7233.99994968
      Final Ne1:    7234.00000000

=================== Penalty functional idempotency correction ==================
 RMS occupancy error at iteration   1:  0.000152 (step -0.4992 Ne1=   7234.0000)
 RMS occupancy error at iteration   2:  0.000000 (step -0.5000 Ne1=   7234.0000)
            Final RMS occupancy error   :  0.000000 (Ne1=   7234.0000)
               Final occupancy bounds   : [  0.0000,  1.0000]
================================================================================

    2        -1.170525584294E+04     1.5313E-04     1.3854E-04    -1.6449E+00
MG BCs: +ve charge blocks (gridpoints):     25274 (   17336937).
MG BCs: -ve charge blocks (gridpoints):      8632 (    1101606).
MG BCs:     Elided blocks (gridpoints):    175366 (  177857922).
MG BCs: Computational effort saved:  99.9827%.
MG BCs: Charge after coarse-graining:           -9.0006688.
MG DL_MG: Calling solver with defect correction order = 8
MG DL_MG: Solver finished
MG Hartree energy from (\int phi*rho dr):              1258.954764
MG Hartree energy from (\int eps (grad phi)^2 dr):     1258.305960
MG Discrepancy due to finite box and discretization:     -0.648804 (  -0.05154%)
MG Correction to account for finite box:                  0.470817
MG Remaining discrepancy, due to discretization:         -0.177987 (  -0.01414%)
      ideal mu1:      -0.709761185378
             Q0:  -11705.473238169099
             G0:      -0.175356167674
   RMS gradient:       0.000063914918
MG BCs: +ve charge blocks (gridpoints):     25275 (   17336560).
MG BCs: -ve charge blocks (gridpoints):      8636 (    1101931).
MG BCs:     Elided blocks (gridpoints):    175365 (  177857974).
MG BCs: Computational effort saved:  99.9827%.
MG BCs: Charge after coarse-graining:           -9.0006688.
MG DL_MG: Calling solver with defect correction order = 8
MG DL_MG: Solver finished
MG Hartree energy from (\int phi*rho dr):              1258.606255
MG Hartree energy from (\int eps (grad phi)^2 dr):     1257.957566
MG Discrepancy due to finite box and discretization:     -0.648689 (  -0.05154%)
MG Correction to account for finite box:                  0.470720
MG Remaining discrepancy, due to discretization:         -0.177970 (  -0.01414%)
     Trial step:       0.449298762632
             Q1:  -11705.528869947186
 Quadratic coef:       0.023155531069
 Linear coef   :      -0.078787309156
           Qmin:  -11705.540257146828
Quadratic minimum step length (  0.764375483529) accepted
    Initial Ne1:    7233.99998457
      Final Ne1:    7234.00000000

=================== Penalty functional idempotency correction ==================
 RMS occupancy error at iteration   1:  0.000185 (step -0.4915 Ne1=   7234.0000)
 RMS occupancy error at iteration   2:  0.000002 (step -0.5000 Ne1=   7234.0000)
            Final RMS occupancy error   :  0.000000 (Ne1=   7234.0000)
               Final occupancy bounds   : [  0.0000,  1.0000]
================================================================================

    3        -1.170547323817E+04     6.3915E-05     5.7827E-05    -2.1740E-01
MG BCs: +ve charge blocks (gridpoints):     25277 (   17336236).
MG BCs: -ve charge blocks (gridpoints):      8634 (    1102201).
MG BCs:     Elided blocks (gridpoints):    175363 (  177858028).
MG BCs: Computational effort saved:  99.9827%.
MG BCs: Charge after coarse-graining:           -9.0006688.
MG DL_MG: Calling solver with defect correction order = 8
MG DL_MG: Solver finished
MG Hartree energy from (\int phi*rho dr):              1258.361803
MG Hartree energy from (\int eps (grad phi)^2 dr):     1257.713193
MG Discrepancy due to finite box and discretization:     -0.648610 (  -0.05154%)
MG Correction to account for finite box:                  0.470650
MG Remaining discrepancy, due to discretization:         -0.177959 (  -0.01414%)
      ideal mu1:      -0.708991940087
             Q0:  -11705.540268149576
             G0:      -0.077105257570
   RMS gradient:       0.000042410244
MG BCs: +ve charge blocks (gridpoints):     25274 (   17335957).
MG BCs: -ve charge blocks (gridpoints):      8634 (    1102309).
MG BCs:     Elided blocks (gridpoints):    175366 (  177858199).
MG BCs: Computational effort saved:  99.9827%.
MG BCs: Charge after coarse-graining:           -9.0006689.
MG DL_MG: Calling solver with defect correction order = 8
MG DL_MG: Solver finished
MG Hartree energy from (\int phi*rho dr):              1258.260268
MG Hartree energy from (\int eps (grad phi)^2 dr):     1257.611864
MG Discrepancy due to finite box and discretization:     -0.648404 (  -0.05153%)
MG Correction to account for finite box:                  0.470584
MG Remaining discrepancy, due to discretization:         -0.177820 (  -0.01413%)
     Trial step:       0.586031534080
             Q1:  -11705.568626801251
 Quadratic coef:       0.016827460706
 Linear coef   :      -0.045186112379
           Qmin:  -11705.570602268128
Quadratic minimum step length (  0.786823609923) accepted
    Initial Ne1:    7233.99999251
      Final Ne1:    7234.00000000

=================== Penalty functional idempotency correction ==================
 RMS occupancy error at iteration   1:  0.000353 (step -0.4787 Ne1=   7234.0000)
 RMS occupancy error at iteration   2:  0.000004 (step -0.5000 Ne1=   7234.0000)
            Final RMS occupancy error   :  0.000000 (Ne1=   7234.0000)
               Final occupancy bounds   : [  0.0000,  1.0000]
================================================================================

    4        -1.170554026815E+04     4.2410E-05     3.8371E-05    -6.7030E-02
MG BCs: +ve charge blocks (gridpoints):     25274 (   17335889).
MG BCs: -ve charge blocks (gridpoints):      8634 (    1102293).
MG BCs:     Elided blocks (gridpoints):    175366 (  177858283).
MG BCs: Computational effort saved:  99.9827%.
MG BCs: Charge after coarse-graining:           -9.0006689.
MG DL_MG: Calling solver with defect correction order = 8
MG DL_MG: Solver finished
MG Hartree energy from (\int phi*rho dr):              1258.226765
MG Hartree energy from (\int eps (grad phi)^2 dr):     1257.578433
MG Discrepancy due to finite box and discretization:     -0.648332 (  -0.05153%)
MG Correction to account for finite box:                  0.470560
MG Remaining discrepancy, due to discretization:         -0.177772 (  -0.01413%)
      ideal mu1:      -0.709369772404
             Q0:  -11705.570472693653
             G0:      -0.075996935297
   RMS gradient:       0.000042183909
MG BCs: +ve charge blocks (gridpoints):     25273 (   17337297).
MG BCs: -ve charge blocks (gridpoints):      8631 (    1101755).
MG BCs:     Elided blocks (gridpoints):    175367 (  177857413).
MG BCs: Computational effort saved:  99.9827%.
MG BCs: Charge after coarse-graining:           -9.0006686.
MG DL_MG: Calling solver with defect correction order = 8
MG DL_MG: Solver finished
MG Hartree energy from (\int phi*rho dr):              1259.064829
MG Hartree energy from (\int eps (grad phi)^2 dr):     1258.416709
MG Discrepancy due to finite box and discretization:     -0.648120 (  -0.05148%)
MG Correction to account for finite box:                  0.470425
MG Remaining discrepancy, due to discretization:         -0.177695 (  -0.01411%)
     Trial step:       0.679045983107
             Q1:  -11705.601922852453
 Quadratic coef:       0.020155254842
 Linear coef   :      -0.051605413642
           Qmin:  -11705.603505254367
Quadratic minimum step length (  0.869312968601) accepted
    Initial Ne1:    7233.99998957
      Final Ne1:    7234.00000000

=================== Penalty functional idempotency correction ==================
 RMS occupancy error at iteration   1:  0.001223 (step -0.4328 Ne1=   7234.0000)
 RMS occupancy error at iteration   2:  0.000032 (step -0.4991 Ne1=   7234.0000)
            Final RMS occupancy error   :  0.000000 (Ne1=   7234.0000)
               Final occupancy bounds   : [ -0.0000,  1.0000]
================================================================================

    5        -1.170557047269E+04     4.2184E-05     3.8166E-05    -3.0205E-02
MG BCs: +ve charge blocks (gridpoints):     25273 (   17337660).
MG BCs: -ve charge blocks (gridpoints):      8630 (    1101643).
MG BCs:     Elided blocks (gridpoints):    175367 (  177857162).
MG BCs: Computational effort saved:  99.9827%.
MG BCs: Charge after coarse-graining:           -9.0006685.
MG DL_MG: Calling solver with defect correction order = 8
MG DL_MG: Solver finished
MG Hartree energy from (\int phi*rho dr):              1259.302518
MG Hartree energy from (\int eps (grad phi)^2 dr):     1258.654455
MG Discrepancy due to finite box and discretization:     -0.648064 (  -0.05146%)
MG Correction to account for finite box:                  0.470390
MG Remaining discrepancy, due to discretization:         -0.177674 (  -0.01411%)
      ideal mu1:      -0.710564886447
             Q0:  -11705.603349022102
             G0:      -0.075634185794
   RMS gradient:       0.000041627688
MG BCs: +ve charge blocks (gridpoints):     25273 (   17337794).
MG BCs: -ve charge blocks (gridpoints):      8630 (    1101702).
MG BCs:     Elided blocks (gridpoints):    175367 (  177856969).
MG BCs: Computational effort saved:  99.9827%.
MG BCs: Charge after coarse-graining:           -9.0006685.
MG DL_MG: Calling solver with defect correction order = 8
MG DL_MG: Solver finished
MG Hartree energy from (\int phi*rho dr):              1259.161524
MG Hartree energy from (\int eps (grad phi)^2 dr):     1258.513649
MG Discrepancy due to finite box and discretization:     -0.647875 (  -0.05145%)
MG Correction to account for finite box:                  0.470181
MG Remaining discrepancy, due to discretization:         -0.177694 (  -0.01411%)
     Trial step:       0.768312097647
             Q1:  -11705.638336433563
 Quadratic coef:       0.023123248480
 Linear coef   :      -0.058110659942
           Qmin:  -11705.639858260864
Quadratic minimum step length (  0.965416322742) accepted
    Initial Ne1:    7234.00056398
      Final Ne1:    7234.00000000

=================== Penalty functional idempotency correction ==================
 RMS occupancy error at iteration   1:  0.003000 (step -0.3664 Ne1=   7234.0000)
 RMS occupancy error at iteration   2:  0.000117 (step -0.4971 Ne1=   7234.0000)
 RMS occupancy error at iteration   3:  0.000001 (step -0.5000 Ne1=   7234.0000)
            Final RMS occupancy error   :  0.000000 (Ne1=   7234.0000)
               Final occupancy bounds   : [  0.0000,  1.0000]
================================================================================

    6        -1.170560334902E+04     4.1628E-05     3.7663E-05    -3.2876E-02
MG BCs: +ve charge blocks (gridpoints):     25274 (   17337796).
MG BCs: -ve charge blocks (gridpoints):      8630 (    1101741).
MG BCs:     Elided blocks (gridpoints):    175366 (  177856928).
MG BCs: Computational effort saved:  99.9827%.
MG BCs: Charge after coarse-graining:           -9.0006685.
MG DL_MG: Calling solver with defect correction order = 8
MG DL_MG: Solver finished
MG Hartree energy from (\int phi*rho dr):              1259.129790
MG Hartree energy from (\int eps (grad phi)^2 dr):     1258.481939
MG Discrepancy due to finite box and discretization:     -0.647852 (  -0.05145%)
MG Correction to account for finite box:                  0.470152
MG Remaining discrepancy, due to discretization:         -0.177700 (  -0.01411%)
      ideal mu1:      -0.710703700580
             Q0:  -11705.640789178316
             G0:      -0.073092143176
   RMS gradient:       0.000041307194
MG BCs: +ve charge blocks (gridpoints):     25273 (   17335645).
MG BCs: -ve charge blocks (gridpoints):      8633 (    1102366).
MG BCs:     Elided blocks (gridpoints):    175367 (  177858454).
MG BCs: Computational effort saved:  99.9827%.
MG BCs: Charge after coarse-graining:           -9.0006689.
MG DL_MG: Calling solver with defect correction order = 8
MG DL_MG: Solver finished
MG Hartree energy from (\int phi*rho dr):              1258.015115
MG Hartree energy from (\int eps (grad phi)^2 dr):     1257.367195
MG Discrepancy due to finite box and discretization:     -0.647921 (  -0.05150%)
MG Correction to account for finite box:                  0.470170
MG Remaining discrepancy, due to discretization:         -0.177751 (  -0.01413%)
     Trial step:       0.861243891142
             Q1:  -11705.663261647220
 Quadratic coef:       0.040477692897
 Linear coef   :      -0.062950161800
           Qmin:  -11705.665263911107
Quadratic minimum step length (  0.669695311374) accepted
    Initial Ne1:    7233.99999972
      Final Ne1:    7234.00000000

=================== Penalty functional idempotency correction ==================
 RMS occupancy error at iteration   1:  0.000058 (step -0.4960 Ne1=   7234.0000)
            Final RMS occupancy error   :  0.000000 (Ne1=   7234.0000)
               Final occupancy bounds   : [ -0.0000,  1.0000]
================================================================================

    7        -1.170564078918E+04     4.1307E-05     3.7373E-05    -3.7440E-02
MG BCs: +ve charge blocks (gridpoints):     25273 (   17336110).
MG BCs: -ve charge blocks (gridpoints):      8634 (    1102247).
MG BCs:     Elided blocks (gridpoints):    175367 (  177858108).
MG BCs: Computational effort saved:  99.9827%.
MG BCs: Charge after coarse-graining:           -9.0006688.
MG DL_MG: Calling solver with defect correction order = 8
MG DL_MG: Solver finished
MG Hartree energy from (\int phi*rho dr):              1258.261376
MG Hartree energy from (\int eps (grad phi)^2 dr):     1257.613470
MG Discrepancy due to finite box and discretization:     -0.647906 (  -0.05149%)
MG Correction to account for finite box:                  0.470167
MG Remaining discrepancy, due to discretization:         -0.177740 (  -0.01413%)
      ideal mu1:      -0.709896601966
             Q0:  -11705.665291653364
             G0:      -0.067313794470
   RMS gradient:       0.000039638190
MG BCs: +ve charge blocks (gridpoints):     25273 (   17336136).
MG BCs: -ve charge blocks (gridpoints):      8634 (    1102181).
MG BCs:     Elided blocks (gridpoints):    175367 (  177858148).
MG BCs: Computational effort saved:  99.9827%.
MG BCs: Charge after coarse-graining:           -9.0006688.
MG DL_MG: Calling solver with defect correction order = 8
MG DL_MG: Solver finished
MG Hartree energy from (\int phi*rho dr):              1258.036611
MG Hartree energy from (\int eps (grad phi)^2 dr):     1257.388706
MG Discrepancy due to finite box and discretization:     -0.647905 (  -0.05150%)
MG Correction to account for finite box:                  0.470087
MG Remaining discrepancy, due to discretization:         -0.177818 (  -0.01413%)
     Trial step:       0.759454406694
             Q1:  -11705.699065735447
 Quadratic coef:       0.017347675759
 Linear coef   :      -0.051121757842
           Qmin:  -11705.702954250952
[...]
MG DL_MG: Calling solver with defect correction order = 8
MG DL_MG: Solver finished
MG Hartree energy from (\int phi*rho dr):              1216.645876
MG Hartree energy from (\int eps (grad phi)^2 dr):     1216.462441
MG Discrepancy due to finite box and discretization:     -0.183435 (  -0.01508%)
MG Correction to account for finite box:                  0.006392
MG Remaining discrepancy, due to discretization:         -0.177043 (  -0.01455%)
             Q2:  -11740.390615290729
  Cubic LS coeff:       0.976308064048
Predicted energy:  -11740.390615290720
Cubic minimum step length accepted
    Initial Ne1:    7234.00000000
      Final Ne1:    7234.00000000

=================== Penalty functional idempotency correction ==================
 RMS occupancy error at iteration   1:  0.000000 (step -0.5000 Ne1=   7234.0000)
            Final RMS occupancy error   :  0.000000 (Ne1=   7234.0000)
               Final occupancy bounds   : [  0.0000,  1.0000]
================================================================================

    7        -1.174039061529E+04     1.0472E-08     9.4746E-09    -2.7940E-09

Reusing previously generated solute cavity.
MG BCs: +ve charge blocks (gridpoints):     29566 (   19578316).
MG BCs: -ve charge blocks (gridpoints):      8614 (    1070533).
MG BCs:     Elided blocks (gridpoints):    171074 (  175647616).
MG BCs: Computational effort saved:  99.9805%.
MG BCs: Charge after coarse-graining:           -9.0009633.
MG DL_MG: Calling solver with defect correction order = 8
MG DL_MG: Solver finished
MG Hartree energy from (\int phi*rho dr):              1216.645875
MG Hartree energy from (\int eps (grad phi)^2 dr):     1216.462441
MG Discrepancy due to finite box and discretization:     -0.183435 (  -0.01508%)
MG Correction to account for finite box:                  0.006392
MG Remaining discrepancy, due to discretization:         -0.177043 (  -0.01455%)
      ideal mu1:      -0.480414915231
             Q0:  -11740.390615290613
             G0:      -0.000000006398
   RMS gradient:       0.000000013342

Reusing previously generated solute cavity.
MG BCs: +ve charge blocks (gridpoints):     29566 (   19578316).
MG BCs: -ve charge blocks (gridpoints):      8614 (    1070533).
MG BCs:     Elided blocks (gridpoints):    171074 (  175647616).
MG BCs: Computational effort saved:  99.9805%.
MG BCs: Charge after coarse-graining:           -9.0009633.
MG DL_MG: Calling solver with defect correction order = 8
MG DL_MG: Solver finished
MG Hartree energy from (\int phi*rho dr):              1216.645852
MG Hartree energy from (\int eps (grad phi)^2 dr):     1216.462418
MG Discrepancy due to finite box and discretization:     -0.183435 (  -0.01508%)
MG Correction to account for finite box:                  0.006392
MG Remaining discrepancy, due to discretization:         -0.177043 (  -0.01455%)
     Trial step:       0.697149905520
             Q1:  -11740.390615293756
 Quadratic coef:       0.000000001317
 Linear coef   :      -0.000000004460
           Qmin:  -11740.390615294389
Quadratic minimum step length (  1.180569209830) accepted
    Initial Ne1:    7234.00000000
      Final Ne1:    7234.00000000

=================== Penalty functional idempotency correction ==================
 RMS occupancy error at iteration   1:  0.000000 (step -0.5000 Ne1=   7234.0000)
            Final RMS occupancy error   :  0.000000 (Ne1=   7234.0000)
               Final occupancy bounds   : [ -0.0000,  1.0000]
================================================================================

    8        -1.174039061529E+04     1.3342E-08     1.2071E-08    -5.3551E-09

Reusing previously generated solute cavity.
MG BCs: +ve charge blocks (gridpoints):     29566 (   19578316).
MG BCs: -ve charge blocks (gridpoints):      8614 (    1070533).
MG BCs:     Elided blocks (gridpoints):    171074 (  175647616).
MG BCs: Computational effort saved:  99.9805%.
MG BCs: Charge after coarse-graining:           -9.0009633.
MG DL_MG: Calling solver with defect correction order = 8
MG DL_MG: Solver finished
MG Hartree energy from (\int phi*rho dr):              1216.645837
MG Hartree energy from (\int eps (grad phi)^2 dr):     1216.462402
MG Discrepancy due to finite box and discretization:     -0.183435 (  -0.01508%)
MG Correction to account for finite box:                  0.006392
MG Remaining discrepancy, due to discretization:         -0.177043 (  -0.01455%)
      ideal mu1:      -0.480414863668
             Q0:  -11740.390615293989
             G0:      -0.000000004593
   RMS gradient:       0.000000010571

Reusing previously generated solute cavity.
MG BCs: +ve charge blocks (gridpoints):     29566 (   19578316).
MG BCs: -ve charge blocks (gridpoints):      8614 (    1070533).
MG BCs:     Elided blocks (gridpoints):    171074 (  175647616).
MG BCs: Computational effort saved:  99.9805%.
MG BCs: Charge after coarse-graining:           -9.0009633.
MG DL_MG: Calling solver with defect correction order = 8
MG DL_MG: Solver finished
MG Hartree energy from (\int phi*rho dr):              1216.645804
MG Hartree energy from (\int eps (grad phi)^2 dr):     1216.462369
MG Discrepancy due to finite box and discretization:     -0.183435 (  -0.01508%)
MG Correction to account for finite box:                  0.006392
MG Remaining discrepancy, due to discretization:         -0.177043 (  -0.01455%)
     Trial step:       0.907212055196
             Q1:  -11740.390615293756
 Quadratic coef:       0.000000004400
 Linear coef   :      -0.000000004166
           Qmin:  -11740.390615294975
Quadratic minimum step length (  0.429511143391) accepted
    Initial Ne1:    7234.00000000
      Final Ne1:    7234.00000000

=================== Penalty functional idempotency correction ==================
 RMS occupancy error at iteration   1:  0.000000 (step -0.5000 Ne1=   7234.0000)
            Final RMS occupancy error   :  0.000000 (Ne1=   7234.0000)
               Final occupancy bounds   : [  0.0000,  1.0000]
================================================================================

    9        -1.174039061529E+04     1.0571E-08     9.5639E-09    -3.3760E-09

Reusing previously generated solute cavity.
MG BCs: +ve charge blocks (gridpoints):     29566 (   19578315).
MG BCs: -ve charge blocks (gridpoints):      8614 (    1070533).
MG BCs:     Elided blocks (gridpoints):    171074 (  175647617).
MG BCs: Computational effort saved:  99.9805%.
MG BCs: Charge after coarse-graining:           -9.0009633.
MG DL_MG: Calling solver with defect correction order = 8
MG DL_MG: Solver finished
MG Hartree energy from (\int phi*rho dr):              1216.645821
MG Hartree energy from (\int eps (grad phi)^2 dr):     1216.462387
MG Discrepancy due to finite box and discretization:     -0.183435 (  -0.01508%)
MG Correction to account for finite box:                  0.006392
MG Remaining discrepancy, due to discretization:         -0.177043 (  -0.01455%)
      ideal mu1:      -0.480414859764
   10        -1.174039061529E+04     6.2892E-09     5.6902E-09    -6.9849E-10
Finished density kernel iterations (  10)

Writing density kernel to file "complex_25181.dkn" ... done


>>> Density kernel optimised for the current NGWF basis:
     ~~~~~~~~~~~~~~~~~~~~~~~~~~~~~~~~~~~~~~~~~~~~~~~~~~~~~~~~~~~
     Total energy                =  -1.17403906152947E+04  Eh
     Estimated bandgap           =   7.5922E-02  Eh
     RMS occupancy error         =   3.6475E-16
     [H,K] commutator            =   5.6902E-09
     Occupancy bounds            = [  0.000:  1.000]
     ~~~~~~~~~~~~~~~~~~~~~~~~~~~~~~~~~~~~~~~~~~~~~~~~~~~~~~~~~~~




################################################################################
########################### NGWF CG iteration  004 #############################
################################################################################
****** Reciprocal space K.E. preconditioning with k_zero =  3.5000 a0^-1 *******

>>> Checking for convergence of NGWFs: 
           ........................................................
           |         *** NGWF optimisation converged ***          |
           | RMS NGWF gradient =    0.00000187499222              |
           | Criteria satisfied:                                  |
           | -> RMS NGWF gradient lower than set threshold.       |
           ========================================================

Reusing previously generated solute cavity.
MG BCs: +ve charge blocks (gridpoints):     29566 (   19578315).
MG BCs: -ve charge blocks (gridpoints):      8614 (    1070533).
MG BCs:     Elided blocks (gridpoints):    171074 (  175647617).
MG BCs: Computational effort saved:  99.9805%.
MG BCs: Charge after coarse-graining:           -9.0009633.
MG DL_MG: Calling solver with defect correction order = 8
MG DL_MG: Solver finished
MG Hartree energy from (\int phi*rho dr):              1216.645821
MG Hartree energy from (\int eps (grad phi)^2 dr):     1216.462387
MG Discrepancy due to finite box and discretization:     -0.183435 (  -0.01508%)
MG Correction to account for finite box:                  0.006392
MG Remaining discrepancy, due to discretization:         -0.177043 (  -0.01455%)

================================================================================
           ---------------- ENERGY COMPONENTS (Eh) ----------------
           | Kinetic                    :     8575.03387590285456 |
           | Pseudo. (local,OBC,corr'd) :    -5077.01520559174060 |
           | Pseudopotential (non-local):     1410.16699021091381 |
           | Hartree (molecular)        :     1216.64582124213916 |
           | Exchange-correlation       :    -3375.90878106395894 |
           | Ion-ion (open BC)          :   836110.77475723414682 |
           | Dispersion Correction      :       -3.25764572227266 |
           | Smeared ion non-self corr. :  -836062.53275186172687 |
           | Smeared ion self corr.     :   -14534.96330857569956 |
           | Solvent cavitation energy  :        2.36816839153554 |
           | Solute-solvent dis-rep en. :       -1.70253546088469 |
           | Total                      :   -11740.39061529476567 |
           --------------------------------------------------------
           ------ LOCAL ENERGY COMPONENTS FROM MATRIX TRACES ------
           | Pseudopotential (local)    :    -5077.01520559174696 |
           | Hartree                    :    -1999.22298756203372 |
           --------------------------------------------------------
           Integrated density           :     7233.99999999783176
           Integrated density tr(KS)    :     7233.99999999999909
================================================================================


                        <<<<< CALCULATION SUMMARY >>>>>                         
|ITER|    RMS GRADIENT   |     TOTAL ENERGY    |   step   |     Epredicted              
   0     0.00004220190423 -11740.31532484386116   0.658897 -11740.38049395315829        
   1     0.00000881726793 -11740.39024102757685   0.070729 -11740.39054639623282        
   2     0.00000404022029 -11740.39060073939618   0.014061 -11740.39061348620089        
   3     0.00000187499222 -11740.39061529468745  <-- CG                                 

=================== Finished the calculation in solvent ========================
= Adjusting the following parameters: 
= read_denskern: F
= read_tightbox_ngwfs: F
= maxit_pen: 0 (restored to user-specified value)
= restart read filename prefix: ""
= restart write filename prefix: ""
================================================================================

================================================================================
IS: Calculation in solvent completed (NGWFs converged).      

Individual components of total energy in solvent:     hartree           kcal/mol
- Usual non-electrostatic DFT terms:    -12957.70206946747567    -8131080.634273
- Electrostatic fixed charge energy:      1216.64582124213916      763456.762845
- Apolar cavitation energy:                  2.36816839153554        1486.048070
- Apolar dispersion-repulsion energy:       -1.70253546088469       -1068.357108
 -------------------------------------------------------------------------------
- Total energy in solvent:              -11740.39061529468745    -7367206.180467

Components of total energy in solvent:                hartree           kcal/mol
- Usual non-electrostatic DFT terms:    -12957.70206946747567    -8131080.634273
- Electrostatic energy:                   1216.64582124213916      763456.762845
- Apolar energy terms:                       0.66563293065085         417.690961
 -------------------------------------------------------------------------------
- Total energy in solvent:              -11740.39061529468745    -7367206.180467

Calculation of free energy of solvation:              hartree           kcal/mol
- Total energy in solvent:         (+)  -11740.39061529468745    -7367206.180467
- Total energy in vacuum:          (-)  -11736.33644893509336    -7364662.152722
 -------------------------------------------------------------------------------
- Total free energy of solvation:           -4.05416635959409       -2544.027745

Components of polar term in f.e. of solvation:        hartree           kcal/mol
- Electrostatic:                            -4.77322185080084       -2995.241868
- Change in nonelectrostatic DFT terms:      0.05342256055701          33.523162
 -------------------------------------------------------------------------------
- Polar term in f.e. of solvation:          -4.71979929024383       -2961.718706

Components of free energy of solvation:               hartree           kcal/mol
- Polar term in f.e. of solvation: (+)      -4.71979929024383       -2961.718706
- Apolar (cavitation, dis., rep.): (+)       0.66563293065085         417.690961
 -------------------------------------------------------------------------------
- Total free energy of solvation:           -4.05416635959298       -2544.027745
================================================================================


------------------------------ TIMING INFORMATION ------------------------------
AVERAGE TIME:   28002.299s on     40 node(s)                                    
TOTAL TIME:     28002.301s on     40 node(s)                                    
================= AVERAGE TIMINGS FROM ALL NODES (CUMULATIVE) ==================
|| TAG                                    #calls    cpu time   %total  Gflops ||
|| work_imbalance                       :     1        0.00s   0.000%  ------ ||
|| parallel_prepare_fd_halos_request    :  1953        0.02s   0.000%  ------ ||
|| sparse_set_to_garbage                :   182        0.04s   0.000%  ------ ||
|| parallel_prepare_fd_halos_satisfy    :  1953        0.06s   0.000%  ------ ||
|| ngwfs_initialise_from_radial         :     1        0.17s   0.001%  ------ ||
|| basis_extract_function_from_box      :  5399        0.19s   0.001%  ------ ||
|| parallel_prepare_fd_halos_alloc      :  1953        0.21s   0.001%  ------ ||
|| restart_ngwfs_tightbox_input         :     1        0.94s   0.003%  ------ ||
|| pseudopotentials_nonlocal_mat        :    31        1.45s   0.005%  ------ ||
|| parallel_prepare_fd_halos_comms_imbal:  1953        3.87s   0.014%  ------ ||
|| openbc_locps_radial                  :     1        4.34s   0.015%  ------ ||
|| restart_kernel_read                  :     1        4.75s   0.017%  ------ ||
|| density_init_guess_real              :     1        8.68s   0.031%  ------ ||
|| parallel_prepare_fd_halos_clear      :  1953       14.38s   0.051%  ------ ||
|| restart_kernel_write                 :    17       16.62s   0.059%  ------ ||
|| sparse_init                          :     2       23.44s   0.084%  ------ ||
|| parallel_prepare_fd_halos_comms_wait :  1953       25.03s   0.089%  ------ ||
|| projectors_func_ovlp_box             :    31       25.07s   0.090%  ------ ||
|| function_ops_brappd_ketppd           :    31       28.05s   0.100%  ------ ||
|| projectors_init_fftbox_recip         :   207       28.49s   0.102%  ------ ||
|| palser_mano_kernel_optimise          :     1       41.62s   0.149%  ------ ||
|| parallel_prepare_fd_halos            :  1953       43.58s   0.156%  ------ ||
|| pseudo_make_structure_factor         :     2       55.14s   0.197%  ------ ||
|| fourier_apply_box_pair               :  7778       56.68s   0.202% 564.119 ||
|| basis_copy_function_to_box           : 88030       59.27s   0.212%  ------ ||
|| ngwf_gradient_coeffs                 :    16       64.91s   0.232%  ------ ||
|| restart_ngwfs_tightbox_output        :    14       79.63s   0.284%  ------ ||
|| sparse_embed_hotelling_invert_embed  :    31       99.99s   0.357%  ------ ||
|| finite_difference_derivative         :  1953      110.34s   0.394%  ------ ||
|| integrals_kinetic                    :    31      172.74s   0.617%  ------ ||
|| openbc_locps_on_grid                 :     2      208.07s   0.743%  ------ ||
|| projectors_gradient_batch            :   176      224.26s   0.801%  ------ ||
|| fourier_apply_cell_backward          :  1303      225.91s   0.807%  79.671 ||
|| fourier_apply_cell_forward           :  1301      235.78s   0.842%  76.217 ||
|| basis_dot_function_with_box          : 13.40M     255.43s   0.912%  ------ ||
|| sparse_trace                         :  5570      280.18s   1.001%  ------ ||
|| kernel_purify                        :   496      360.59s   1.288%  ------ ||
|| hamiltonian_energy_components        :     4      444.97s   1.589%  ------ ||
|| xc_energy_potential                  :   325      537.82s   1.921%  ------ ||
|| basis_add_function_to_box            : 27.93M     550.55s   1.966%  ------ ||
|| lnv_gradient_norm                    :   160      583.89s   2.085%  ------ ||
|| kernel_fix                           :   160      726.12s   2.593%  ------ ||
|| ngwf_gradient_build_batch            :   176      823.98s   2.943%  ------ ||
|| integrals_locpot_mat_els_batch       :  1859      924.14s   3.300%  ------ ||
|| cell_grid_deposit_box_real           : 55154      973.25s   3.476%  ------ ||
|| cell_grid_extract_box_real           : 51140     1054.23s   3.765%  ------ ||
|| ngwf_gradient_batch                  :   176     1132.78s   4.045%  ------ ||
|| ngwf_gradient_lnv                    :    16     1297.61s   4.634%  ------ ||
|| density_batch_row_sums               :  3564     1327.49s   4.741%  ------ ||
|| density_fftbox_deposit_to_cell       : 53136     1670.43s   5.965%  ------ ||
|| sparse_product                       :  6817     2271.21s   8.111%  ------ ||
|| multigrid_prepare_bound_cond         :   325     2587.17s   9.239%  ------ ||
|| potential_apply_to_ngwf_batch        :  1859     3571.87s  12.756%  ------ ||
|| density_fftbox_interpolate_multiply  : 53136     3912.23s  13.971%  ------ ||
|| fourier_apply_box                    : 183.4k    3930.82s  14.037% 929.121 ||
|| integrals_locpot_dbl_grid            :   169     4515.60s  16.126%  ------ ||
|| density_batch_interp_deposit         :  3564     6243.70s  22.297%  ------ ||
|| dl_mg_solver_calls                   :   325     6832.97s  24.401%  ------ ||
|| density_on_dbl_grid                  :   324     7999.74s  28.568%  ------ ||
|| multigrid_calculate_hartree          :   325     9575.35s  34.195%  ------ ||
|| hamiltonian_lhxc_calculate           :   320    18123.66s  64.722%  ------ ||
|| lnv_denskernel_optimise_cg           :    16    24011.88s  85.750%  ------ ||
|| ngwf_cg_optimise                     :     2    27157.71s  96.984%  ------ ||
|| total_time                           :     1    28002.30s 100.000%  ------ ||
================================================================================
Overhead of generating timer report: 
- 0 ms averaging over threads,
- 5 ms ensuring consistency across MPI ranks,
- 2 ms printing in order.

Job completed: 11-05-2020 18:21 (+0100)

