 +---------------------------------------------------------------+
 |                                                               |
 |        ####### #     # ####### ####### ####### ######         |
 |        #     # ##    # #          #    #       #     #        |
 |        #     # # #   # #          #    #       #     #        |
 |        #     # #  #  # #####      #    #####   ######         |
 |        #     # #   # # #          #    #       #              |
 |        #     # #    ## #          #    #       #              |
 |        ####### #     # #######    #    ####### #              |
 |                                                               |
 |        Linear-Scaling Ab Initio Total Energy Program          |
 |                                                               |
 |          Release for academic collaborators of ODG            |
 |                                             Version 5.3.2.6.  |
 |                                                               |
 +---------------------------------------------------------------+
 |                                                               |
 |  Authors:                                                     |
 |  Jacek Dziedzic, Peter D. Haynes, Nicholas D. M. Hine,        |
 |  Arash. A. Mostofi, Mike C. Payne and Chris-Kriton Skylaris   |
 |                                                               |
 |  Contributors:                                                |
 |  J. Aarons, L. Andrinopoulos, P. W. Avraam, R. A. Bell,       |
 |  A. Bhandari, G. A. Bramley, R. J. Charlton, S. J. Clark,     |
 |  R. J. Clements, G. C. Constantinescu, F. Corsetti,           |
 |  N. Corsini, O. Dieguez, S. M. M. Dubois, K. K. B. Duff,      |
 |  J. M. Escartin, A. Greco, H. Helal, Q. O. Hill, L. P. Lee,   |
 |  J.-H. Li, E. B. Linscott, G. Moynihan, D. D. O`Regan,        |
 |  O. K. Okan, M. J. S. Phipps, C. J. Pickard,                  |
 |  J. C. A. Prentice, M. I. J. Probert, L. E. Ratcliff,         |
 |  M. Robinson, A. Ruiz Serrano, J. S. Spencer, E. W. Tait,     |
 |  G. Teobaldi, D. Turban, V. Vitale, K. A. Wilkinson,          |
 |  C. Weber, J. C. Womack, N. Yeung and T. J. Zuehlsdorff       |
 |                                                               |
 |                                   Copyright (c) 2004-2019     |
 |                                                               |
 |  Please cite:                                                 |
 |  "Introducing ONETEP: Linear-scaling density functional       |
 |   simulations on parallel computers".                         |
 |   C.-K. Skylaris, P. D. Haynes, A. A. Mostofi, M. C. Payne.   |
 |   J. Chem. Phys. 122 084119 (2005).                           |
 |                                                               |
 |          in all publications arising from your use of ONETEP. |
 |                                                               |
 +---------------------------------------------------------------+
 |                                                               |
 |   ONETEP is based on developments described in the following  |
 |   publications:                                               |
 |                                                               |
 |  "Nonorthogonal generalized Wannier function pseudopotential  |
 |   plane-wave method".                                         |
 |   C.-K. Skylaris, A. A. Mostofi, P. D. Haynes, O. Dieguez,    |
 |   M. C. Payne.                                                |
 |   Phys. Rev. B 66 035119 (2002).                              |
 |                                                               |
 |  "Preconditioned iterative minimization for linear-scaling    |
 |   electronic structure calculations".                         |
 |   A. A. Mostofi, P. D. Haynes, C.-K. Skylaris, M. C. Payne.   |
 |   J. Chem. Phys. 119(17), pp.8842-8848 (2003).                |
 |                                                               |
 |  "Total-energy calculations on a real space grid with         |
 |   localized functions and a plane-wave basis".                |
 |   A. A. Mostofi, C.-K. Skylaris, P. D. Haynes, M. C. Payne.   |
 |   Comput. Phys. Commun. 147, pp.788-802 (2002).               |
 |                                                               |
 |  "Accurate kinetic energy evaluation in electronic structure  |
 |   calculations with localized functions on real space grids"  |
 |   C.-K. Skylaris, A. A. Mostofi, P. D. Haynes, C. J. Pickard, |
 |   M. C. Payne.                                                |
 |   Comput. Phys. Commun. 140, pp.315-322 (2001).               |
 |                                                               |
 |  "Accurate ionic forces and geometry optimization in linear-  |
 |   scaling density-functional theory with local orbitals"      |
 |   N. D. M. Hine, M. Robinson, P. D. Haynes, C.-K. Skylaris,   |
 |   M. C. Payne, and A. A. Mostofi.                             |
 |   Phys. Rev. B 83 195102 (2011).                              |
 |                                                               |
 +---------------------------------------------------------------+

Job started: 08-03-2020 12:00 (-0000)
 
Reading parameters from file "complex_35441.dat" ...... done

If your calculation crashes here, before "Checking processes and threads..."
is displayed, then your stack size is insufficient.
If so, use "ulimit -s unlimited" at runtime.
You can disable this check with "check_stack_size F".

Checking processes and threads...
   Determining the default number of threads...
      No default threads set at compilation time: defaulting to 1.
      OpenMP library call suggests 4 threads.
      Hybrid MPI-OpenMP compilation detected.
      Number of MPI processes > 1.
      OMP_NUM_THREADS environment variable present and
      its value matches the one obtained from the OpenMP library call.
      Using this value as default.
      Default threads: 4
      Default applies to threads_max and threads_num_fftboxes.
      Settings in the input file override this default.
   ... done

   Running with 60 MPI processes.
   There are 6 MPI processes running on the same node as the root process.
   Each MPI process is using: 
               1 threads for simulation cell FFTs.
               1 threads for parallel FFT box operations.
               4 threads for loops over batched FFT box operations.
               4 threads in other parallel regions.
... done

Basic input checks...... done

Reading geometry and species blocks from file "complex_35441.dat" ...
  <species_atomic_set> block not found: NGWF initialisation set to SOLVE
IS: Dielectric excluded regions:
    - NONE.
    
  Number of PPD points along a3 set to 1.  This is 
  the default value, it may have been provided also in the input file.
... done
 Writing xyz coordinates to file "complex_35441.xyz" ... done


--------------------------------------------------------------------------------
---------------------------------- INPUT FILE ----------------------------------
--------------------------------------------------------------------------------

cutoff_energy       : 800 eV                                                    
xc_functional PBE                                                               
task SINGLEPOINT                                                                
write_xyz true                                                                  
output_detail VERBOSE                                                           
ngwf_threshold_orig : 0.000002                                                  
kernel_cutoff       : 1000                                                      
k_zero              : 3.5                                                       
elec_cg_max 0                                                                   
occ_mix 1.0                                                                     
dispersion 1                                                                    
maxit_ngwf_cg 40                                                                
minit_lnv 10                                                                    
maxit_lnv 10                                                                    
write_denskern T                                                                
write_tightbox_ngwfs T                                                          
charge 9                                                                        
is_implicit_solvent T                                                           
is_auto_solvation T                                                             
is_include_apolar T                                                             
is_smeared_ion_rep T                                                            
is_solvent_surf_tension 4.7624E-5 Ha/bohr**2                                    
is_apolar_scaling_factor 0.281075                                               
is_solvation_beta 1.3                                                           
is_density_threshold 0.00035                                                    
is_bulk_permittivity 78.54                                                      
is_dielectric_model fix_initial                                                 
is_smeared_ion_width 0.8                                                        
mg_defco_fd_order 8                                                             
is_bc_coarseness 10                                                             
is_bc_surface_coarseness 1                                                      
fine_grid_scale 2.0                                                             
%block species                                                                  
N   N   7 4 8.0                                                                 
H   H   1 1 8.0                                                                 
C   C   6 4 8.0                                                                 
S   S  16 9 8.0                                                                 
O   O   8 4 8.0                                                                 
%endblock species                                                               
%block species_pot                                                              
N   N_00.recpot                                                                 
H   H_04.recpot                                                                 
C   C_01.recpot                                                                 
S   S_00.recpot                                                                 
O   O_02.recpot                                                                 
%endblock species_pot                                                           
%block lattice_cart                                                             
137.614   0.000   0.000                                                         
0.000 142.646   0.000                                                           
0.000   0.000   160.855                                                         
%endblock lattice_cart                                                          
%block positions_abs                                                            
     Hash =  -000005348503528317387601
%endblock positions_abs                                                         

--------------------------------------------------------------------------------
-------------------------------- END INPUT FILE --------------------------------
--------------------------------------------------------------------------------


 
 ESDF WARNING(1): "kernelcutoff" (esdf_physical) has no units. Assume "bohr".
 ESDF WARNING(2): "kzero" (esdf_physical) has no units. Assume "1/bohr".
 ESDF WARNING(3
 ): "issmearedionwidth" (esdf_physical) has no units. Assume "bohr".
<<<<<<<<<<<<<<<<<<<<<<<<<<<<<<<<< Full system >>>>>>>>>>>>>>>>>>>>>>>>>>>>>>>>>>
<<<<<<<<<<<<<<<<<<<<<<<<< Pseudopotential information >>>>>>>>>>>>>>>>>>>>>>>>>>
File: N_00.recpot [ 2001 points up to Gmax=  52.9 (1/bohr)]
  Atomic number:  7;  ionic charge:  5.000000
    Shell 1: l = 0; rc = 1.48 bohr
File: H_04.recpot [ 2001 points up to Gmax=  52.9 (1/bohr)]
  Atomic number:  1;  ionic charge:  1.000000
    Local potential
File: C_01.recpot [ 2001 points up to Gmax=  52.9 (1/bohr)]
  Atomic number:  6;  ionic charge:  4.000000
    Shell 1: l = 0; rc = 1.48 bohr
File: S_00.recpot [ 2001 points up to Gmax=  52.9 (1/bohr)]
  Atomic number: 16;  ionic charge:  6.000000
    Shell 1: l = 0; rc = 1.90 bohr
    Shell 2: l = 2; rc = 1.84 bohr
File: O_02.recpot [ 2001 points up to Gmax=  52.9 (1/bohr)]
  Atomic number:  8;  ionic charge:  6.000000
    Shell 1: l = 0; rc = 1.31 bohr
<<<<<<<<<<<<<<<<<<<<<<<<<<<<<<<<<<<<<<<<>>>>>>>>>>>>>>>>>>>>>>>>>>>>>>>>>>>>>>>>

-------------------------- Atom counting information ---------------------------
Symbol    Natoms    Nngwfs    Nprojs
  N        236       944       236
  H       1319      1319         0
  C        817      3268       817
  S          6        54        36
  O        240       960       240
.......   ......    ......    ......
Totals:   2618      6545      1329
--------------------------------------------------------------------------------

=============================== PSINC grid sizes ===============================
                      Simulation cell:  273 x 286 x 320
                              FFT-box:   99 x 105 x  99
                                  PPD:    7 x  11 x   1
Grid space d1=  0.504080586081a0 (KE cutoff=  29.89538Eh = 813.49465eV)
Grid space d2=  0.498762237762a0 (KE cutoff=  30.53633Eh = 830.93588eV)
Grid space d3=  0.502671875000a0 (KE cutoff=  30.06317Eh = 818.06059eV)
================================================================================

********************* Fourier parallelisation information **********************
       Coarse grid (whole simulation cell) dimensions:    273   286   320
          Real-space ('12') slabs/node (min max mean):      5     6     5
         Recip-space ('23') slabs/node (min max mean):      2     3     2
********************************************************************************

********************* Fourier parallelisation information **********************
       Double grid (whole simulation cell) dimensions:    546   572   640
          Real-space ('12') slabs/node (min max mean):     10    11    10
         Recip-space ('23') slabs/node (min max mean):      4     5     4
********************************************************************************
ONETEP fine grid is 546 x 572 x 640 gridpoints, 137.6140 x 142.6460 x 160.8550 bohr.
FD multigrid is     545 x 569 x 633 gridpoints, 137.3620 x 141.8979 x 159.0956 bohr.


Calculating local pseudopotential in open BC on a radial grid ...
Discrepancy between calculated realspace psloc and -Z/x on [5a0,255.264a0]:
max |rel. diff| # avg |rel. diff| #  avg rel. diff #  f # pseudopotential file
 0.000296759711    0.000009439468   0.000000085927   54  'N_00.recpot'
 0.000490027943    0.000021572324  -0.000000031900   54  'H_04.recpot'
 0.000320795249    0.000014598087   0.000000111901   54  'C_01.recpot'
 0.000388730920    0.000016096375   0.000000514750   54  'S_00.recpot'
 0.000828383344    0.000035421288   0.000000087443   54  'O_02.recpot'
... done

Atom SCF Calculation for N  : Z (AE atom) =   7 : Z (PS atom) =   5
Config String:
Orbitals (num,occ):  2     2.00 3.00
Orbitals   (num,l):  2        0    1
Real-space Grid (nr,dr,rmax): 1203    0.0066555740    8.0000000000
Spherical Bessel Basis (nsws,lmax,cutoff):   47    1  176.3951722778
Confining potential (l,width,scale):  0    3.0000000000  100.0000000000
Confining potential (l,width,scale):  1    3.0000000000  100.0000000000
  1         -4.7312375307   -3.4155304497    7.0523828109   -1.9351020946
  2         -9.7309464766   -2.0532547791    8.2966052865   -2.2494486027
  3         -9.6627394379   -2.1124926340    8.2327997121   -2.2369778124
  4         -9.6814993499   -2.1215521045    8.2229805960   -2.2365178421
  5         -9.6843326483   -2.1250939529    8.2191374534   -2.2362718126
  6         -9.6859628709   -2.1267894855    8.2172963573   -2.2362066344
  7         -9.6867347035   -2.1276425665    8.2163697352   -2.2361903369
  8         -9.6870802100   -2.1280764625    8.2158983890   -2.2361891460
  9         -9.6872290423   -2.1282977424    8.2156580222   -2.2361920435
 10         -9.6872901988   -2.1284107021    8.2155353368   -2.2361953393
 11         -9.6873135296   -2.1284684031    8.2154726809   -2.2361979819
 12         -9.6873212476   -2.1284978948    8.2154406648   -2.2361998431
 13         -9.6873229586   -2.1285129774    8.2154242957   -2.2362010676
 14         -9.6873226456   -2.1285206957    8.2154159216   -2.2362018403
 15         -9.6873218534   -2.1285246479    8.2154116349   -2.2362023142
 16         -9.6873212599   -2.1285262679    8.2154098784   -2.2362025420
 17         -9.6873207834   -2.1285272564    8.2154088068   -2.2362026955
 18         -9.6873204210   -2.1285278596    8.2154081529   -2.2362027982
 19         -9.6873201550   -2.1285282280    8.2154077538   -2.2362028667
 20         -9.6873199645   -2.1285284529    8.2154075102   -2.2362029121
 21         -9.6873198305   -2.1285285903    8.2154073614   -2.2362029421
 22         -9.6873197377   -2.1285286742    8.2154072705   -2.2362029618
Atom SCF converged after  22 iterations to a total energy of     -9.68731974

Atom SCF Calculation for H  : Z (AE atom) =   1 : Z (PS atom) =   1
Config String:
Orbitals (num,occ):  1     1.00
Orbitals   (num,l):  1        0
Real-space Grid (nr,dr,rmax): 1203    0.0066555740    8.0000000000
Spherical Bessel Basis (nsws,lmax,cutoff):   47    0  176.3951722778
Confining potential (l,width,scale):  0    3.0000000000  100.0000000000
  1         -0.3194257691   -0.2393854593    0.2820953124   -0.2424203209
  2         -0.3951823392   -0.2377116493    0.2886404059   -0.2475147891
  3         -0.4317044583   -0.2352244387    0.2921333887   -0.2514046172
  4         -0.4470703708   -0.2341892222    0.2934391879   -0.2531009782
  5         -0.4532132900   -0.2338556667    0.2938388426   -0.2537313520
  6         -0.4556579251   -0.2337612552    0.2939448584   -0.2539550462
  7         -0.4566418315   -0.2337377355    0.2939680120   -0.2540342273
  8         -0.4570437922   -0.2337331116    0.2939708287   -0.2540627372
  9         -0.4572102946   -0.2337328328    0.2939698291   -0.2540732650
 10         -0.4572800424   -0.2337332404    0.2939687193   -0.2540772588
 11         -0.4573095100   -0.2337335791    0.2939680317   -0.2540788122
 12         -0.4573220379   -0.2337337762    0.2939676699   -0.2540794294
 13         -0.4573273880   -0.2337338775    0.2939674931   -0.2540796787
 14         -0.4573296803   -0.2337339266    0.2939674099   -0.2540797808
 15         -0.4573306647   -0.2337339495    0.2939673718   -0.2540798230
 16         -0.4573310882   -0.2337339601    0.2939673545   -0.2540798406
 17         -0.4573312706   -0.2337339649    0.2939673467   -0.2540798479
 18         -0.4573313493   -0.2337339670    0.2939673433   -0.2540798510
Atom SCF converged after  18 iterations to a total energy of     -0.45733135

Atom SCF Calculation for C  : Z (AE atom) =   6 : Z (PS atom) =   4
Config String:
Orbitals (num,occ):  2     2.00 2.00
Orbitals   (num,l):  2        0    1
Real-space Grid (nr,dr,rmax): 1203    0.0066555740    8.0000000000
Spherical Bessel Basis (nsws,lmax,cutoff):   47    1  176.3951722778
Confining potential (l,width,scale):  0    3.0000000000  100.0000000000
Confining potential (l,width,scale):  1    3.0000000000  100.0000000000
  1         -5.2976922011   -1.3069684169    4.5135249990   -1.4493313817
  2         -5.3721716256   -1.3429755895    4.4750154450   -1.4361613026
  3         -5.3809959565   -1.3617365618    4.4541655428   -1.4305930207
  4         -5.3918938866   -1.3667928461    4.4484735100   -1.4294652294
  5         -5.3956096428   -1.3688539142    4.4461376126   -1.4290734646
  6         -5.3968271862   -1.3696852393    4.4451910874   -1.4289366866
  7         -5.3972028401   -1.3700178062    4.4448112275   -1.4288900460
  8         -5.3973067903   -1.3701500158    4.4446598370   -1.4288749220
  9         -5.3973286940   -1.3702023868    4.4445997329   -1.4288704293
 10         -5.3973289850   -1.3702230869    4.4445759233   -1.4288693188
 11         -5.3973254264   -1.3702312560    4.4445665049   -1.4288691775
 12         -5.3973224003   -1.3702344755    4.4445627836   -1.4288692549
 13         -5.3973208708   -1.3702354890    4.4445616088   -1.4288693270
 14         -5.3973198783   -1.3702360102    4.4445610034   -1.4288693814
 15         -5.3973192535   -1.3702362780    4.4445606917   -1.4288694190
 16         -5.3973188684   -1.3702364155    4.4445605313   -1.4288694437
 17         -5.3973186349   -1.3702364860    4.4445604489   -1.4288694595
 18         -5.3973184951   -1.3702365221    4.4445604065   -1.4288694693
 19         -5.3973184122   -1.3702365405    4.4445603848   -1.4288694753
Atom SCF converged after  19 iterations to a total energy of     -5.39731841

Atom SCF Calculation for S  : Z (AE atom) =  16 : Z (PS atom) =   6
Config String:
Orbitals (num,occ):  3     2.00 4.00 0.00
Orbitals   (num,l):  3        0    1    2
Real-space Grid (nr,dr,rmax): 1203    0.0066555740    8.0000000000
Spherical Bessel Basis (nsws,lmax,cutoff):   47    2  176.3951722778
Confining potential (l,width,scale):  0    3.0000000000  100.0000000000
Confining potential (l,width,scale):  1    3.0000000000  100.0000000000
Confining potential (l,width,scale):  2    3.0000000000  100.0000000000
  1        -12.4735062396   -1.0328741412   10.1554312477   -2.4512393157
  2         -9.9458301913   -2.4607392455    8.3041325857   -2.0306994528
  3        -10.1450417646   -2.2931184565    8.4831893826   -2.0812538287
  4        -10.1528335592   -2.2733105793    8.5050388867   -2.0896035179
  5        -10.1571940363   -2.2633716629    8.5160794258   -2.0939370707
  6        -10.1594380571   -2.2584938667    8.5215163935   -2.0961289008
  7        -10.1605856507   -2.2561081821    8.5241804044   -2.0972291378
  8        -10.1611799191   -2.2549395235    8.5254868240   -2.0977806248
  9        -10.1614918752   -2.2543658586    8.5261285885   -2.0980571586
 10        -10.1616572884   -2.2540839121    8.5264441898   -2.0981959233
 11        -10.1617455602   -2.2539453058    8.5265994231   -2.0982656006
 12        -10.1617928447   -2.2538772062    8.5266757320   -2.0983006047
 13        -10.1618182292   -2.2538437891    8.5267131983   -2.0983181961
 14        -10.1618318741   -2.2538274201    8.5267315620   -2.0983270391
 15        -10.1618392144   -2.2538194197    8.5267405433   -2.0983314852
 16        -10.1618431651   -2.2538155200    8.5267449245   -2.0983337210
 17        -10.1618452923   -2.2538136252    8.5267470551   -2.0983348455
 18        -10.1618464380   -2.2538127080    8.5267480875   -2.0983354110
 19        -10.1618470552   -2.2538122659    8.5267485856   -2.0983356955
 20        -10.1618473878   -2.2538120540    8.5267488248   -2.0983358386
 21        -10.1618475670   -2.2538119530    8.5267489389   -2.0983359106
 22        -10.1618476637   -2.2538119053    8.5267489929   -2.0983359468
Atom SCF converged after  22 iterations to a total energy of    -10.16184766

Atom SCF Calculation for O  : Z (AE atom) =   8 : Z (PS atom) =   6
Config String:
Orbitals (num,occ):  2     2.00 4.00
Orbitals   (num,l):  2        0    1
Real-space Grid (nr,dr,rmax): 1203    0.0066555740    8.0000000000
Spherical Bessel Basis (nsws,lmax,cutoff):   47    1  176.3951722778
Confining potential (l,width,scale):  0    3.0000000000  100.0000000000
Confining potential (l,width,scale):  1    3.0000000000  100.0000000000
  1         -1.8735052164   -7.5539365035   10.1554312477   -2.4512393157
  2        -16.0318313751   -3.1285771268   13.6395848164   -3.2358799643
  3        -15.9524020423   -3.0762819706   13.6967272503   -3.2536856837
  4        -15.8521515939   -3.0781493909   13.6951909330   -3.2561700440
  5        -15.8357139793   -3.0748501933   13.6988803334   -3.2580493133
  6        -15.8246052853   -3.0740779781   13.6997881576   -3.2588327446
  7        -15.8189019501   -3.0737449687   13.7001869911   -3.2592378801
  8        -15.8159785510   -3.0736026016   13.7003615168   -3.2594475790
  9        -15.8144776168   -3.0735437994   13.7004360379   -3.2595560735
 10        -15.8137058024   -3.0735207882   13.7004667348   -3.2596122456
 11        -15.8133083127   -3.0735125946   13.7004786868   -3.2596413656
 12        -15.8131032938   -3.0735102195   13.7004828997   -3.2596564858
 13        -15.8129973902   -3.0735099286   13.7004840891   -3.2596643505
 14        -15.8129426040   -3.0735102506   13.7004842061   -3.2596684489
 15        -15.8129142203   -3.0735106556   13.7004840157   -3.2596705887
 16        -15.8128994940   -3.0735109855   13.7004837906   -3.2596717080
 17        -15.8128918425   -3.0735112169   13.7004836103   -3.2596722946
 18        -15.8128878614   -3.0735113674   13.7004834848   -3.2596726026
 19        -15.8128857871   -3.0735114608   13.7004834035   -3.2596727646
 20        -15.8128847048   -3.0735115170   13.7004833533   -3.2596728500
 21        -15.8128841394   -3.0735115501   13.7004833231   -3.2596728951
 22        -15.8128838436   -3.0735115693   13.7004833054   -3.2596729190
 23        -15.8128836887   -3.0735115802   13.7004832951   -3.2596729316
 24        -15.8128836074   -3.0735115864   13.7004832893   -3.2596729383
Atom SCF converged after  24 iterations to a total energy of    -15.81288361

========================== Calculation in vacuum ==============================
= Adjusting the following parameters: 
= is_implicit_solvent: F
= is_include_apolar: F
= write_denskern: T
= write_tightbox_ngwfs: T
= restart read filename prefix: ""
= restart write filename prefix: "vacuum_"
===============================================================================

Determining parallel strategy ...
... using space-filling curve
... NGWF load balancing: max    110;  min    109;  average    109
... Projector load balancing: max     26;  min     21;  average     22
... done
Calculating direct Ion-Ion energy ...
Ion-Ion Energy        :    835069.63004461349919
======================= Empirical dispersion information =======================
Model : Elstner
Dispersion Correction Energy: -0.32560567E+01 Hartree
================================================================================
Basis initialisation ...... NGWF spheres initialised
... Projector spheres initialised
... NGWF tight boxes initialised
... Tight-boxes gathered
... NGWF basis size (local,global):     939999  56369419
... Nonlocal pseudopotential projector initialisation
... done

========================== Sparse matrix information ===========================
                        Overlap matrix filling:   6.72%
                        Density kernel filling: 100.00%
              NGWF-Proj overlap matrix filling:   1.75%
                    Hamiltonian matrix filling:   7.57%
                  NGWF diagonal matrix filling:   0.05%
                             KS matrix filling: 100.00% 
                           KSKS matrix filling: 100.00% 
================================================================================

Sparse matrix initialisation ... done

Generating smeared ion density ... done
Smeared ion self correction:     -14534.963309
Smeared ion non-self correction: -835021.192543
NGWF initialisation ...... done
============ Calculation of NGWF S^-1 using Hotelling algorithm ================ 
         Iteration  |  Frobenius norm and Maximum abs value    (of I-S*S_n^-1)   
               1       0.78692645E+02     0.98234820E+00
               2       0.76815608E+02     0.96517009E+00
               3       0.73783112E+02     0.93214533E+00
               4       0.69484929E+02     0.87088552E+00
               5       0.64144839E+02     0.76613255E+00
               6       0.58157082E+02     0.70281750E+00
               7       0.52151963E+02     0.67174188E+00
               8       0.46601648E+02     0.64459719E+00
               9       0.40498443E+02     0.60399484E+00
              10       0.32168301E+02     0.53264907E+00
              11       0.21541573E+02     0.42371163E+00
              12       0.10934896E+02     0.27730666E+00
              13       0.35555497E+01     0.12578173E+00
              14       0.54466026E+00     0.29177818E-01
              15       0.23805548E-01     0.19273239E-02
              16       0.10206484E-03     0.10372394E-04
              17       0.31643811E-08     0.38891812E-09
              18       0.92950575E-13     0.42188475E-14
================================================================================
Calculating local pseudopotential in open BC on the fine real space grid ...
... done

MG BCs: +ve charge blocks (gridpoints):     20917 (   16397530).
MG BCs: -ve charge blocks (gridpoints):      8102 (    1102177).
MG BCs:     Elided blocks (gridpoints):    179723 (  178796758).
MG BCs: Computational effort saved:  99.9852%.
MG BCs: Charge after coarse-graining:           -9.0002311.
MG DL_MG: Calling solver with defect correction order = 8
MG DL_MG: Solver finished
MG Hartree energy from (\int phi*rho dr):              1471.959221
MG Hartree energy from (\int eps (grad phi)^2 dr):     1471.347704
MG Discrepancy due to finite box and discretization:     -0.611517 (  -0.04154%)
MG Correction to account for finite box:                  0.463998
MG Remaining discrepancy, due to discretization:         -0.147519 (  -0.01002%)
Up spin density kernel initialisation ... 
======= Optimisation of K by Palser-Manolopoulos canonical purification ======== 
         Iteration  |  Band structure energy |    c_n   
               1       -2600.70970001742444    0.5261647
               2       -2777.69110223586267    0.5166175
               3       -2958.37751357518664    0.5154240
               4       -3108.35990313933144    0.5295568
               5       -3199.73437595419500    0.5664396
               6       -3237.49876609098555    0.6112832
               7       -3250.31951503229720    0.6216207
               8       -3255.95065726976736    0.6189993
               9       -3258.69548278200409    0.6331595
              10       -3259.82781534549122    0.6637798
              11       -3260.25228219766814    0.6822670
              12       -3260.43511913192560    0.6617946
              13       -3260.53815548684724    0.6003198
              14       -3260.60411240337908    0.5125892
              15       -3260.63768807465931    0.4226761
              16       -3260.64151521536223    0.4056791
              17       -3260.64251842453723    0.4200530
              18       -3260.64290689832887    0.4634129
              19       -3260.64308136400405    0.4933251
              20       -3260.64316941387688    0.4997769
              21       -3260.64325434502052    0.4999997
              22       -3260.64335076710631    0.5000000
              23       -3260.64343133774764    0.5000000
              24       -3260.64346670754912    0.5000000
              25       -3260.64347131216982    0.5000000
              26       -3260.64347137720779    0.5000000
Termination criterion satisfied: band energy change below threshold.
Final occupancy bounds: [    0.00000000002550:    0.99999999999998]
Closest occupancy to 0.5:     0.99999999999993
================================================================================
... done

Writing density kernel to file "complex_35441.vacuum_dkn" ... done

>>> Optimising kernel for current NGWFs:
   Initial electron number for spin 1:    7234.00000000
     Final electron number for spin 1:    7234.00000000

=================== Penalty functional idempotency correction ==================
 RMS occupancy error at iteration   1:  0.000000 (step -0.5000 Ne1=   7234.0000)
            Final RMS occupancy error   :  0.000000 (Ne1=   7234.0000)
               Final occupancy bounds   : [  0.0000,  1.0000]
================================================================================

................................................................................
<<<<<<<<<<<<<< LNV (Original version) density kernel optimisation >>>>>>>>>>>>>>
~~~~~~~~~~~~~~~~~~~~~~~~~~~~~~~~~~~~~~~~~~~~~~~~~~~~~~~~~~~~~~~~~~~~~~~~~~~~~~~~
   iter  |      energy (Eh)       | rms gradient |  commutator  |   dE (Eh)
MG BCs: +ve charge blocks (gridpoints):     31444 (   17496014).
MG BCs: -ve charge blocks (gridpoints):      8439 (    1136025).
MG BCs:     Elided blocks (gridpoints):    169190 (  177664426).
MG BCs: Computational effort saved:  99.9797%.
MG BCs: Charge after coarse-graining:           -9.0009743.
MG DL_MG: Calling solver with defect correction order = 8
MG DL_MG: Solver finished
MG Hartree energy from (\int phi*rho dr):              1427.358642
MG Hartree energy from (\int eps (grad phi)^2 dr):     1426.686332
MG Discrepancy due to finite box and discretization:     -0.672309 (  -0.04710%)
MG Correction to account for finite box:                  0.482844
MG Remaining discrepancy, due to discretization:         -0.189465 (  -0.01327%)
      ideal mu1:      -0.690615121983
             Q0:  -11567.258433048963
             G0:    -146.352295994708
   RMS gradient:       0.001848375142
MG BCs: +ve charge blocks (gridpoints):     31386 (   17580485).
MG BCs: -ve charge blocks (gridpoints):      8350 (    1115126).
MG BCs:     Elided blocks (gridpoints):    169246 (  177600854).
MG BCs: Computational effort saved:  99.9798%.
MG BCs: Charge after coarse-graining:           -9.0009946.
MG DL_MG: Calling solver with defect correction order = 8
MG DL_MG: Solver finished
MG Hartree energy from (\int phi*rho dr):              1452.117169
MG Hartree energy from (\int eps (grad phi)^2 dr):     1451.461826
MG Discrepancy due to finite box and discretization:     -0.655343 (  -0.04513%)
MG Correction to account for finite box:                  0.481582
MG Remaining discrepancy, due to discretization:         -0.173761 (  -0.01197%)
     Trial step:       0.500000000000
             Q1:  -11578.967652680119
 Quadratic coef:      61.466928366197
 Linear coef   :     -73.176147997354
           Qmin:  -11589.037415576888
Quadratic minimum step length (  0.297624063632) accepted
    Initial Ne1:    7234.00000000
      Final Ne1:    7234.00000000

=================== Penalty functional idempotency correction ==================
 RMS occupancy error at iteration   1:  0.003448 (step -0.4882 Ne1=   7234.0000)
 RMS occupancy error at iteration   2:  0.000028 (step -0.5001 Ne1=   7234.0000)
            Final RMS occupancy error   :  0.000000 (Ne1=   7234.0000)
               Final occupancy bounds   : [  0.0000,  1.0000]
================================================================================

    1        -1.156725843305E+04     1.8484E-03     1.6723E-03
MG BCs: +ve charge blocks (gridpoints):     31417 (   17548413).
MG BCs: -ve charge blocks (gridpoints):      8388 (    1123930).
MG BCs:     Elided blocks (gridpoints):    169215 (  177624122).
MG BCs: Computational effort saved:  99.9797%.
MG BCs: Charge after coarse-graining:           -9.0009860.
MG DL_MG: Calling solver with defect correction order = 8
MG DL_MG: Solver finished
MG Hartree energy from (\int phi*rho dr):              1434.114883
MG Hartree energy from (\int eps (grad phi)^2 dr):     1433.453624
MG Discrepancy due to finite box and discretization:     -0.661259 (  -0.04611%)
MG Correction to account for finite box:                  0.481969
MG Remaining discrepancy, due to discretization:         -0.179289 (  -0.01250%)
      ideal mu1:      -0.737882379538
             Q0:  -11589.451345110079
             G0:     -12.425910065540
   RMS gradient:       0.000534892614
MG BCs: +ve charge blocks (gridpoints):     31408 (   17566553).
MG BCs: -ve charge blocks (gridpoints):      8366 (    1118279).
MG BCs:     Elided blocks (gridpoints):    169224 (  177611633).
MG BCs: Computational effort saved:  99.9797%.
MG BCs: Charge after coarse-graining:           -9.0009897.
MG DL_MG: Calling solver with defect correction order = 8
MG DL_MG: Solver finished
MG Hartree energy from (\int phi*rho dr):              1439.348988
MG Hartree energy from (\int eps (grad phi)^2 dr):     1438.692159
MG Discrepancy due to finite box and discretization:     -0.656830 (  -0.04563%)
MG Correction to account for finite box:                  0.480688
MG Remaining discrepancy, due to discretization:         -0.176142 (  -0.01224%)
     Trial step:       0.385761625640
             Q1:  -11592.358505927143
 Quadratic coef:       1.886278449871
 Linear coef   :      -4.793439266934
           Qmin:  -11592.496635163539
Quadratic minimum step length (  0.490151632741) accepted
    Initial Ne1:    7233.99987618
      Final Ne1:    7234.00000000

=================== Penalty functional idempotency correction ==================
 RMS occupancy error at iteration   1:  0.001845 (step -0.4928 Ne1=   7234.0000)
 RMS occupancy error at iteration   2:  0.000013 (step -0.5002 Ne1=   7234.0000)
            Final RMS occupancy error   :  0.000000 (Ne1=   7234.0000)
               Final occupancy bounds   : [  0.0000,  1.0000]
================================================================================

    2        -1.158945134511E+04     5.3489E-04     4.8395E-04    -2.2193E+01
MG BCs: +ve charge blocks (gridpoints):     31402 (   17571398).
MG BCs: -ve charge blocks (gridpoints):      8363 (    1116857).
MG BCs:     Elided blocks (gridpoints):    169230 (  177608210).
MG BCs: Computational effort saved:  99.9797%.
MG BCs: Charge after coarse-graining:           -9.0009907.
MG DL_MG: Calling solver with defect correction order = 8
MG DL_MG: Solver finished
MG Hartree energy from (\int phi*rho dr):              1440.816395
MG Hartree energy from (\int eps (grad phi)^2 dr):     1440.160683
MG Discrepancy due to finite box and discretization:     -0.655711 (  -0.04551%)
MG Correction to account for finite box:                  0.480359
MG Remaining discrepancy, due to discretization:         -0.175352 (  -0.01217%)
      ideal mu1:      -0.764149977779
             Q0:  -11592.535394864623
             G0:      -1.977492802871
   RMS gradient:       0.000213456049
MG BCs: +ve charge blocks (gridpoints):     31414 (   17570766).
MG BCs: -ve charge blocks (gridpoints):      8372 (    1117889).
MG BCs:     Elided blocks (gridpoints):    169217 (  177607810).
MG BCs: Computational effort saved:  99.9797%.
MG BCs: Charge after coarse-graining:           -9.0009904.
MG DL_MG: Calling solver with defect correction order = 8
MG DL_MG: Solver finished
MG Hartree energy from (\int phi*rho dr):              1438.601598
MG Hartree energy from (\int eps (grad phi)^2 dr):     1437.946654
MG Discrepancy due to finite box and discretization:     -0.654944 (  -0.04553%)
MG Correction to account for finite box:                  0.479784
MG Remaining discrepancy, due to discretization:         -0.175160 (  -0.01218%)
     Trial step:       0.434835245416
             Q1:  -11593.041139250505
 Quadratic coef:       0.354139182364
 Linear coef   :      -0.859883568245
           Qmin:  -11593.057364606861
Quadratic minimum step length (  0.527910636620) accepted
    Initial Ne1:    7233.99990127
      Final Ne1:    7234.00000000

=================== Penalty functional idempotency correction ==================
 RMS occupancy error at iteration   1:  0.000660 (step -0.4965 Ne1=   7234.0000)
 RMS occupancy error at iteration   2:  0.000005 (step -0.5000 Ne1=   7234.0000)
            Final RMS occupancy error   :  0.000000 (Ne1=   7234.0000)
               Final occupancy bounds   : [  0.0000,  1.0000]
================================================================================

    3        -1.159253539486E+04     2.1346E-04     1.9313E-04    -3.0840E+00
MG BCs: +ve charge blocks (gridpoints):     31412 (   17570556).
MG BCs: -ve charge blocks (gridpoints):      8372 (    1118143).
MG BCs:     Elided blocks (gridpoints):    169219 (  177607766).
MG BCs: Computational effort saved:  99.9797%.
MG BCs: Charge after coarse-graining:           -9.0009905.
MG DL_MG: Calling solver with defect correction order = 8
MG DL_MG: Solver finished
MG Hartree energy from (\int phi*rho dr):              1438.137464
MG Hartree energy from (\int eps (grad phi)^2 dr):     1437.482673
MG Discrepancy due to finite box and discretization:     -0.654791 (  -0.04553%)
MG Correction to account for finite box:                  0.479662
MG Remaining discrepancy, due to discretization:         -0.175129 (  -0.01218%)
      ideal mu1:      -0.765431257552
             Q0:  -11593.062340298900
             G0:      -0.521912807819
   RMS gradient:       0.000109801845
MG BCs: +ve charge blocks (gridpoints):     31411 (   17571625).
MG BCs: -ve charge blocks (gridpoints):      8368 (    1117758).
MG BCs:     Elided blocks (gridpoints):    169220 (  177607082).
MG BCs: Computational effort saved:  99.9797%.
MG BCs: Charge after coarse-graining:           -9.0009906.
MG DL_MG: Calling solver with defect correction order = 8
MG DL_MG: Solver finished
MG Hartree energy from (\int phi*rho dr):              1439.345672
MG Hartree energy from (\int eps (grad phi)^2 dr):     1438.691043
MG Discrepancy due to finite box and discretization:     -0.654629 (  -0.04548%)
MG Correction to account for finite box:                  0.479405
MG Remaining discrepancy, due to discretization:         -0.175224 (  -0.01217%)
     Trial step:       0.479118097375
             Q1:  -11593.192837954615
 Quadratic coef:       0.119560215764
 Linear coef   :      -0.250057871478
           Qmin:  -11593.193088095499
Quadratic minimum step length (  0.501033102235) accepted
    Initial Ne1:    7233.99997550
      Final Ne1:    7234.00000000

=================== Penalty functional idempotency correction ==================
 RMS occupancy error at iteration   1:  0.000313 (step -0.4934 Ne1=   7234.0000)
 RMS occupancy error at iteration   2:  0.000004 (step -0.5000 Ne1=   7234.0000)
            Final RMS occupancy error   :  0.000000 (Ne1=   7234.0000)
               Final occupancy bounds   : [  0.0000,  1.0000]
================================================================================

    4        -1.159306234030E+04     1.0980E-04     9.9344E-05    -5.2695E-01
MG BCs: +ve charge blocks (gridpoints):     31410 (   17571668).
MG BCs: -ve charge blocks (gridpoints):      8368 (    1117743).
MG BCs:     Elided blocks (gridpoints):    169221 (  177607054).
MG BCs: Computational effort saved:  99.9797%.
MG BCs: Charge after coarse-graining:           -9.0009906.
MG DL_MG: Calling solver with defect correction order = 8
MG DL_MG: Solver finished
MG Hartree energy from (\int phi*rho dr):              1439.401624
MG Hartree energy from (\int eps (grad phi)^2 dr):     1438.747002
MG Discrepancy due to finite box and discretization:     -0.654622 (  -0.04548%)
MG Correction to account for finite box:                  0.479393
MG Remaining discrepancy, due to discretization:         -0.175229 (  -0.01217%)
      ideal mu1:      -0.765652463021
             Q0:  -11593.193731036619
             G0:      -0.194669618642
   RMS gradient:       0.000067258564
MG BCs: +ve charge blocks (gridpoints):     31407 (   17571944).
MG BCs: -ve charge blocks (gridpoints):      8370 (    1117551).
MG BCs:     Elided blocks (gridpoints):    169224 (  177606970).
MG BCs: Computational effort saved:  99.9797%.
MG BCs: Charge after coarse-graining:           -9.0009905.
MG DL_MG: Calling solver with defect correction order = 8
MG DL_MG: Solver finished
MG Hartree energy from (\int phi*rho dr):              1439.842926
MG Hartree energy from (\int eps (grad phi)^2 dr):     1439.188281
MG Discrepancy due to finite box and discretization:     -0.654645 (  -0.04547%)
MG Correction to account for finite box:                  0.479251
MG Remaining discrepancy, due to discretization:         -0.175393 (  -0.01218%)
     Trial step:       0.489953086188
             Q1:  -11593.256103310850
 Quadratic coef:       0.033006706210
 Linear coef   :      -0.095378980441
           Qmin:  -11593.262634836443
Quadratic minimum step length (  0.707905016751) accepted
    Initial Ne1:    7233.99998656
      Final Ne1:    7234.00000000

=================== Penalty functional idempotency correction ==================
 RMS occupancy error at iteration   1:  0.000549 (step -0.4647 Ne1=   7234.0000)
 RMS occupancy error at iteration   2:  0.000014 (step -0.5000 Ne1=   7234.0000)
            Final RMS occupancy error   :  0.000000 (Ne1=   7234.0000)
               Final occupancy bounds   : [ -0.0000,  1.0000]
================================================================================

    5        -1.159319373104E+04     6.7259E-05     6.0853E-05    -1.3139E-01
MG BCs: +ve charge blocks (gridpoints):     31407 (   17572049).
MG BCs: -ve charge blocks (gridpoints):      8369 (    1117444).
MG BCs:     Elided blocks (gridpoints):    169224 (  177606972).
MG BCs: Computational effort saved:  99.9797%.
MG BCs: Charge after coarse-graining:           -9.0009905.
MG DL_MG: Calling solver with defect correction order = 8
MG DL_MG: Solver finished
MG Hartree energy from (\int phi*rho dr):              1440.037907
MG Hartree energy from (\int eps (grad phi)^2 dr):     1439.383254
MG Discrepancy due to finite box and discretization:     -0.654653 (  -0.04546%)
MG Correction to account for finite box:                  0.479186
MG Remaining discrepancy, due to discretization:         -0.175467 (  -0.01218%)
      ideal mu1:      -0.765712172253
             Q0:  -11593.261807311676
             G0:      -0.180591646636
   RMS gradient:       0.000065418727
MG BCs: +ve charge blocks (gridpoints):     31409 (   17571217).
MG BCs: -ve charge blocks (gridpoints):      8370 (    1117940).
MG BCs:     Elided blocks (gridpoints):    169222 (  177607308).
MG BCs: Computational effort saved:  99.9797%.
MG BCs: Charge after coarse-graining:           -9.0009903.
MG DL_MG: Calling solver with defect correction order = 8
MG DL_MG: Solver finished
MG Hartree energy from (\int phi*rho dr):              1438.706578
MG Hartree energy from (\int eps (grad phi)^2 dr):     1438.052168
MG Discrepancy due to finite box and discretization:     -0.654410 (  -0.04549%)
MG Correction to account for finite box:                  0.478959
MG Remaining discrepancy, due to discretization:         -0.175451 (  -0.01220%)
     Trial step:       0.588931445658
             Q1:  -11593.339810570353
 Quadratic coef:       0.028352840849
 Linear coef   :      -0.106356099527
           Qmin:  -11593.361547051749
Quadratic minimum step length (  1.104588633330) accepted
    Initial Ne1:    7233.99998130
      Final Ne1:    7234.00000000

=================== Penalty functional idempotency correction ==================
 RMS occupancy error at iteration   1:  0.003791 (step -0.3159 Ne1=   7234.0000)
 RMS occupancy error at iteration   2:  0.000251 (step -0.4897 Ne1=   7234.0000)
 RMS occupancy error at iteration   3:  0.000004 (step -0.5000 Ne1=   7234.0000)
            Final RMS occupancy error   :  0.000000 (Ne1=   7234.0000)
               Final occupancy bounds   : [  0.0000,  1.0000]
================================================================================

    6        -1.159326180731E+04     6.5419E-05     5.9188E-05    -6.8076E-02
MG BCs: +ve charge blocks (gridpoints):     31412 (   17570589).
MG BCs: -ve charge blocks (gridpoints):      8371 (    1118354).
MG BCs:     Elided blocks (gridpoints):    169219 (  177607522).
MG BCs: Computational effort saved:  99.9797%.
MG BCs: Charge after coarse-graining:           -9.0009902.
MG DL_MG: Calling solver with defect correction order = 8
MG DL_MG: Solver finished
MG Hartree energy from (\int phi*rho dr):              1437.558640
MG Hartree energy from (\int eps (grad phi)^2 dr):     1436.904401
MG Discrepancy due to finite box and discretization:     -0.654239 (  -0.04551%)
MG Correction to account for finite box:                  0.478801
MG Remaining discrepancy, due to discretization:         -0.175439 (  -0.01220%)
      ideal mu1:      -0.765828121316
             Q0:  -11593.347585586947
             G0:      -0.299302312023
   RMS gradient:       0.000083588279
MG BCs: +ve charge blocks (gridpoints):     31408 (   17572655).
MG BCs: -ve charge blocks (gridpoints):      8364 (    1117187).
MG BCs:     Elided blocks (gridpoints):    169223 (  177606623).
MG BCs: Computational effort saved:  99.9797%.
MG BCs: Charge after coarse-graining:           -9.0009908.
MG DL_MG: Calling solver with defect correction order = 8
MG DL_MG: Solver finished
MG Hartree energy from (\int phi*rho dr):              1440.388248
MG Hartree energy from (\int eps (grad phi)^2 dr):     1439.734260
MG Discrepancy due to finite box and discretization:     -0.653988 (  -0.04540%)
MG Correction to account for finite box:                  0.478721
MG Remaining discrepancy, due to discretization:         -0.175267 (  -0.01217%)
     Trial step:       0.806552528162
             Q1:  -11593.442342252238
 Quadratic coef:       0.146646371157
 Linear coef   :      -0.241403036447
           Qmin:  -11593.446932446925
Quadratic minimum step length (  0.663856281667) accepted
    Initial Ne1:    7233.99999806
      Final Ne1:    7234.00000000

=================== Penalty functional idempotency correction ==================
 RMS occupancy error at iteration   1:  0.000213 (step -0.4855 Ne1=   7234.0000)
 RMS occupancy error at iteration   2:  0.000002 (step -0.5000 Ne1=   7234.0000)
            Final RMS occupancy error   :  0.000000 (Ne1=   7234.0000)
               Final occupancy bounds   : [  0.0000,  1.0000]
================================================================================

    7        -1.159334758559E+04     8.3588E-05     7.5627E-05    -8.5778E-02
MG BCs: +ve charge blocks (gridpoints):     31408 (   17572230).
MG BCs: -ve charge blocks (gridpoints):      8365 (    1117404).
MG BCs:     Elided blocks (gridpoints):    169223 (  177606831).
MG BCs: Computational effort saved:  99.9797%.
MG BCs: Charge after coarse-graining:           -9.0009907.
MG DL_MG: Calling solver with defect correction order = 8
MG DL_MG: Solver finished
MG Hartree energy from (\int phi*rho dr):              1439.885715
MG Hartree energy from (\int eps (grad phi)^2 dr):     1439.231684
MG Discrepancy due to finite box and discretization:     -0.654031 (  -0.04542%)
MG Correction to account for finite box:                  0.478735
MG Remaining discrepancy, due to discretization:         -0.175296 (  -0.01217%)
      ideal mu1:      -0.766653788421
             Q0:  -11593.447109789238
             G0:      -0.237973281518
   RMS gradient:       0.000074494898
MG BCs: +ve charge blocks (gridpoints):     31409 (   17572071).
MG BCs: -ve charge blocks (gridpoints):      8362 (    1117491).
MG BCs:     Elided blocks (gridpoints):    169222 (  177606903).
MG BCs: Computational effort saved:  99.9797%.
MG BCs: Charge after coarse-graining:           -9.0009908.
MG DL_MG: Calling solver with defect correction order = 8
MG DL_MG: Solver finished
MG Hartree energy from (\int phi*rho dr):              1439.674662
MG Hartree energy from (\int eps (grad phi)^2 dr):     1439.020837
MG Discrepancy due to finite box and discretization:     -0.653825 (  -0.04541%)
MG Correction to account for finite box:                  0.478704
MG Remaining discrepancy, due to discretization:         -0.175120 (  -0.01216%)
     Trial step:       0.731734215624
             Q1:  -11593.550299123395
 Quadratic coef:       0.070943858334
 Linear coef   :      -0.174133192491
           Qmin:  -11593.553963185146
Quadratic minimum step length (  0.898028511650) accepted
    Initial Ne1:    7233.99999733
      Final Ne1:    7234.00000000

=================== Penalty functional idempotency correction ==================
 RMS occupancy error at iteration   1:  0.001747 (step -0.4046 Ne1=   7234.0000)
 RMS occupancy error at iteration   2:  0.000077 (step -0.4966 Ne1=   7234.0000)
 RMS occupancy error at iteration   3:  0.000000 (step -0.5000 Ne1=   7234.0000)
            Final RMS occupancy error   :  0.000000 (Ne1=   7234.0000)
               Final occupancy bounds   : [  0.0000,  1.0000]
================================================================================

    8        -1.159344710979E+04     7.4495E-05     6.7400E-05    -9.9524E-02
MG BCs: +ve charge blocks (gridpoints):     31410 (   17572054).
MG BCs: -ve charge blocks (gridpoints):      8364 (    1117519).
MG BCs:     Elided blocks (gridpoints):    169221 (  177606892).
MG BCs: Computational effort saved:  99.9797%.
MG BCs: Charge after coarse-graining:           -9.0009908.
MG DL_MG: Calling solver with defect correction order = 8
MG DL_MG: Solver finished
MG Hartree energy from (\int phi*rho dr):              1439.632136
MG Hartree energy from (\int eps (grad phi)^2 dr):     1438.978357
MG Discrepancy due to finite box and discretization:     -0.653779 (  -0.04541%)
MG Correction to account for finite box:                  0.478697
MG Remaining discrepancy, due to discretization:         -0.175082 (  -0.01216%)
      ideal mu1:      -0.766210257352
             Q0:  -11593.552346372162
             G0:      -0.262343729406
   RMS gradient:       0.000078449495
MG BCs: +ve charge blocks (gridpoints):     31411 (   17570989).
MG BCs: -ve charge blocks (gridpoints):      8366 (    1118067).
MG BCs:     Elided blocks (gridpoints):    169220 (  177607409).
MG BCs: Computational effort saved:  99.9797%.
MG BCs: Charge after coarse-graining:           -9.0009906.
MG DL_MG: Calling solver with defect correction order = 8
MG DL_MG: Solver finished
MG Hartree energy from (\int phi*rho dr):              1438.236066
MG Hartree energy from (\int eps (grad phi)^2 dr):     1437.582229
MG Discrepancy due to finite box and discretization:     -0.653837 (  -0.04546%)
MG Correction to account for finite box:                  0.478809
MG Remaining discrepancy, due to discretization:         -0.175028 (  -0.01217%)
     Trial step:       0.810628267815
             Q1:  -11593.630691332626
 Quadratic coef:       0.134318282477
 Linear coef   :      -0.212663242941
           Qmin:  -11593.636522654913
Quadratic minimum step length (  0.641725136274) accepted
    Initial Ne1:    7233.99999786
      Final Ne1:    7234.00000000

=================== Penalty functional idempotency correction ==================
 RMS occupancy error at iteration   1:  0.003652 (step -0.3440 Ne1=   7234.0000)
 RMS occupancy error at iteration   2:  0.000208 (step -0.4929 Ne1=   7234.0000)
 RMS occupancy error at iteration   3:  0.000004 (step -0.5000 Ne1=   7234.0000)
            Final RMS occupancy error   :  0.000000 (Ne1=   7234.0000)
               Final occupancy bounds   : [  0.0000,  1.0000]
================================================================================

    9        -1.159355234637E+04     7.8449E-05     7.0978E-05    -1.0524E-01
MG BCs: +ve charge blocks (gridpoints):     31411 (   17571205).
MG BCs: -ve charge blocks (gridpoints):      8366 (    1117937).
MG BCs:     Elided blocks (gridpoints):    169220 (  177607323).
MG BCs: Computational effort saved:  99.9797%.
MG BCs: Charge after coarse-graining:           -9.0009906.
MG DL_MG: Calling solver with defect correction order = 8
MG DL_MG: Solver finished
MG Hartree energy from (\int phi*rho dr):              1438.520348
MG Hartree energy from (\int eps (grad phi)^2 dr):     1437.866563
MG Discrepancy due to finite box and discretization:     -0.653785 (  -0.04545%)
MG Correction to account for finite box:                  0.478754
MG Remaining discrepancy, due to discretization:         -0.175031 (  -0.01217%)
      ideal mu1:      -0.765073861129
   10        -1.159364541869E+04     6.3994E-05     5.7898E-05    -9.3072E-02
Finished density kernel iterations (  10)

Writing density kernel to file "complex_35441.vacuum_dkn" ... done


>>> Density kernel optimised for the current NGWF basis:
     ~~~~~~~~~~~~~~~~~~~~~~~~~~~~~~~~~~~~~~~~~~~~~~~~~~~~~~~~~~~
     Total energy                =  -1.15936454186934E+04  Eh
     Estimated bandgap           =  -4.5493E-01  Eh
     RMS occupancy error         =   1.9084E-09
     [H,K] commutator            =   5.7898E-05
     Occupancy bounds            = [  0.000:  1.000]
     ~~~~~~~~~~~~~~~~~~~~~~~~~~~~~~~~~~~~~~~~~~~~~~~~~~~~~~~~~~~




################################################################################
########################### NGWF CG iteration  001 #############################
################################################################################
****** Reciprocal space K.E. preconditioning with k_zero =  3.5000 a0^-1 *******

>>> Checking for convergence of NGWFs:   NOT CONVERGED
  ========================================================================
         NGWF RMS gradient =  1.5641E-03 >  2.0000E-06  | above tolerance
  ========================================================================

>>> Improving NGWFs using line search:
============ Calculation of NGWF S^-1 using Hotelling algorithm ================ 
         Iteration  |  Frobenius norm and Maximum abs value    (of I-S*S_n^-1)   
               1       0.19315220E+00     0.46123059E-02
               2       0.86403133E-03     0.35850947E-04
               3       0.29383926E-07     0.22072092E-08
               4       0.12896467E-12     0.61062266E-14
================================================================================
MG BCs: +ve charge blocks (gridpoints):     30886 (   17515838).
MG BCs: -ve charge blocks (gridpoints):      8372 (    1117791).
MG BCs:     Elided blocks (gridpoints):    169747 (  177662836).
MG BCs: Computational effort saved:  99.9800%.
MG BCs: Charge after coarse-graining:           -9.0009947.
MG DL_MG: Calling solver with defect correction order = 8
MG DL_MG: Solver finished
MG Hartree energy from (\int phi*rho dr):              1407.011299
MG Hartree energy from (\int eps (grad phi)^2 dr):     1406.358296
MG Discrepancy due to finite box and discretization:     -0.653002 (  -0.04641%)
MG Correction to account for finite box:                  0.478651
MG Remaining discrepancy, due to discretization:         -0.174352 (  -0.01239%)
============ Calculation of NGWF S^-1 using Hotelling algorithm ================ 
         Iteration  |  Frobenius norm and Maximum abs value    (of I-S*S_n^-1)   
               1       0.18604856E+01     0.39652414E-01
               2       0.71767632E-01     0.23873063E-02
               3       0.14476608E-03     0.97706556E-05
               4       0.11063278E-08     0.16785262E-09
               5       0.11234565E-12     0.48849813E-14
================================================================================
------------------------------- NGWF line search -------------------------------
RMS gradient                =       0.00156413126231
Trial step length           =               0.122474
Gradient along search dir.  =       -271.72931251248
Functional at step 0        =  -11593.64541869342793
Functional at step 1        =  -11624.43246515595820
Functional predicted        =  -11704.71779353555030
Selected quadratic step     =               0.817522
--------------------------- NGWF line search finished --------------------------
                                               
Writing NGWFs to file "complex_35441.vacuum_tightbox_ngwfs"....  done

>>> Optimising kernel for current NGWFs:
   Initial electron number for spin 1:    7268.59175651
     Final electron number for spin 1:    7234.00000000

=================== Penalty functional idempotency correction ==================
 RMS occupancy error at iteration   1:  0.004230 (step -0.4865 Ne1=   7234.0000)
 RMS occupancy error at iteration   2:  0.000067 (step -0.5002 Ne1=   7234.0000)
            Final RMS occupancy error   :  0.000000 (Ne1=   7234.0000)
               Final occupancy bounds   : [  0.0000,  1.0000]
================================================================================

................................................................................
<<<<<<<<<<<<<< LNV (Original version) density kernel optimisation >>>>>>>>>>>>>>
~~~~~~~~~~~~~~~~~~~~~~~~~~~~~~~~~~~~~~~~~~~~~~~~~~~~~~~~~~~~~~~~~~~~~~~~~~~~~~~~
   iter  |      energy (Eh)       | rms gradient |  commutator  |   dE (Eh)
MG BCs: +ve charge blocks (gridpoints):     25050 (   17275585).
MG BCs: -ve charge blocks (gridpoints):      8524 (    1101603).
MG BCs:     Elided blocks (gridpoints):    175590 (  177919277).
MG BCs: Computational effort saved:  99.9829%.
MG BCs: Charge after coarse-graining:           -9.0006594.
MG DL_MG: Calling solver with defect correction order = 8
MG DL_MG: Solver finished
MG Hartree energy from (\int phi*rho dr):              1250.720659
MG Hartree energy from (\int eps (grad phi)^2 dr):     1250.067622
MG Discrepancy due to finite box and discretization:     -0.653037 (  -0.05221%)
MG Correction to account for finite box:                  0.478176
MG Remaining discrepancy, due to discretization:         -0.174861 (  -0.01398%)
      ideal mu1:      -0.705345269937
             Q0:  -11703.896097148652
             G0:      -9.989148862469
   RMS gradient:       0.000482897094
MG BCs: +ve charge blocks (gridpoints):     25138 (   17289170).
MG BCs: -ve charge blocks (gridpoints):      8512 (    1098128).
MG BCs:     Elided blocks (gridpoints):    175502 (  177909167).
MG BCs: Computational effort saved:  99.9829%.
MG BCs: Charge after coarse-graining:           -9.0006558.
MG DL_MG: Calling solver with defect correction order = 8
MG DL_MG: Solver finished
MG Hartree energy from (\int phi*rho dr):              1266.535903
MG Hartree energy from (\int eps (grad phi)^2 dr):     1265.878355
MG Discrepancy due to finite box and discretization:     -0.657548 (  -0.05192%)
MG Correction to account for finite box:                  0.476816
MG Remaining discrepancy, due to discretization:         -0.180732 (  -0.01427%)
     Trial step:       0.721249288132
             Q1:  -11703.272861165809
 Quadratic coef:       7.827902488943
 Linear coef   :      -7.204666506101
           Qmin:  -11705.553859861508
Quadratic minimum step length (  0.331912705613) accepted
    Initial Ne1:    7233.99964050
      Final Ne1:    7234.00000000

=================== Penalty functional idempotency correction ==================
 RMS occupancy error at iteration   1:  0.000360 (step -0.4986 Ne1=   7234.0000)
 RMS occupancy error at iteration   2:  0.000000 (step -0.5000 Ne1=   7234.0000)
            Final RMS occupancy error   :  0.000000 (Ne1=   7234.0000)
               Final occupancy bounds   : [  0.0000,  1.0000]
================================================================================

    1        -1.170389609715E+04     4.8290E-04     4.3690E-04
MG BCs: +ve charge blocks (gridpoints):     25098 (   17281910).
MG BCs: -ve charge blocks (gridpoints):      8520 (    1100041).
MG BCs:     Elided blocks (gridpoints):    175542 (  177914514).
MG BCs: Computational effort saved:  99.9829%.
MG BCs: Charge after coarse-graining:           -9.0006577.
MG DL_MG: Calling solver with defect correction order = 8
MG DL_MG: Solver finished
MG Hartree energy from (\int phi*rho dr):              1257.051654
MG Hartree energy from (\int eps (grad phi)^2 dr):     1256.396651
MG Discrepancy due to finite box and discretization:     -0.655003 (  -0.05211%)
MG Correction to account for finite box:                  0.477512
MG Remaining discrepancy, due to discretization:         -0.177491 (  -0.01412%)
      ideal mu1:      -0.711351926878
             Q0:  -11705.527898379252
             G0:      -1.038643794170
   RMS gradient:       0.000156377266
MG BCs: +ve charge blocks (gridpoints):     25104 (   17281253).
MG BCs: -ve charge blocks (gridpoints):      8515 (    1100860).
MG BCs:     Elided blocks (gridpoints):    175536 (  177914352).
MG BCs: Computational effort saved:  99.9829%.
MG BCs: Charge after coarse-graining:           -9.0006578.
MG DL_MG: Calling solver with defect correction order = 8
MG DL_MG: Solver finished
MG Hartree energy from (\int phi*rho dr):              1258.057504
MG Hartree energy from (\int eps (grad phi)^2 dr):     1257.402317
MG Discrepancy due to finite box and discretization:     -0.655187 (  -0.05208%)
MG Correction to account for finite box:                  0.477303
MG Remaining discrepancy, due to discretization:         -0.177884 (  -0.01414%)
     Trial step:       0.489276815969
             Q1:  -11705.746339945821
 Quadratic coef:       0.289742761968
 Linear coef   :      -0.508184328538
           Qmin:  -11705.750726475128
Quadratic minimum step length (  0.429075101831) accepted
    Initial Ne1:    7233.99995125
      Final Ne1:    7234.00000000

=================== Penalty functional idempotency correction ==================
 RMS occupancy error at iteration   1:  0.000159 (step -0.4989 Ne1=   7234.0000)
 RMS occupancy error at iteration   2:  0.000000 (step -0.5000 Ne1=   7234.0000)
            Final RMS occupancy error   :  0.000000 (Ne1=   7234.0000)
               Final occupancy bounds   : [  0.0000,  1.0000]
================================================================================

    2        -1.170552789838E+04     1.5638E-04     1.4148E-04    -1.6318E+00
MG BCs: +ve charge blocks (gridpoints):     25103 (   17281318).
MG BCs: -ve charge blocks (gridpoints):      8515 (    1100765).
MG BCs:     Elided blocks (gridpoints):    175537 (  177914382).
MG BCs: Computational effort saved:  99.9829%.
MG BCs: Charge after coarse-graining:           -9.0006578.
MG DL_MG: Calling solver with defect correction order = 8
MG DL_MG: Solver finished
MG Hartree energy from (\int phi*rho dr):              1257.933531
MG Hartree energy from (\int eps (grad phi)^2 dr):     1257.278369
MG Discrepancy due to finite box and discretization:     -0.655163 (  -0.05208%)
MG Correction to account for finite box:                  0.477328
MG Remaining discrepancy, due to discretization:         -0.177834 (  -0.01414%)
      ideal mu1:      -0.712229958914
             Q0:  -11705.751219340716
             G0:      -0.176695468623
   RMS gradient:       0.000064154501
MG BCs: +ve charge blocks (gridpoints):     25108 (   17280646).
MG BCs: -ve charge blocks (gridpoints):      8517 (    1101144).
MG BCs:     Elided blocks (gridpoints):    175532 (  177914675).
MG BCs: Computational effort saved:  99.9829%.
MG BCs: Charge after coarse-graining:           -9.0006578.
MG DL_MG: Calling solver with defect correction order = 8
MG DL_MG: Solver finished
MG Hartree energy from (\int phi*rho dr):              1257.400210
MG Hartree energy from (\int eps (grad phi)^2 dr):     1256.745181
MG Discrepancy due to finite box and discretization:     -0.655029 (  -0.05209%)
MG Correction to account for finite box:                  0.477205
MG Remaining discrepancy, due to discretization:         -0.177824 (  -0.01414%)
     Trial step:       0.458188279679
             Q1:  -11705.807370765251
 Quadratic coef:       0.024808368260
 Linear coef   :      -0.080959792795
           Qmin:  -11705.817270521318
Quadratic minimum step length (  0.747627328717) accepted
    Initial Ne1:    7233.99998567
      Final Ne1:    7234.00000000

=================== Penalty functional idempotency correction ==================
 RMS occupancy error at iteration   1:  0.000205 (step -0.4883 Ne1=   7234.0000)
 RMS occupancy error at iteration   2:  0.000002 (step -0.5000 Ne1=   7234.0000)
            Final RMS occupancy error   :  0.000000 (Ne1=   7234.0000)
               Final occupancy bounds   : [  0.0000,  1.0000]
================================================================================

    3        -1.170575121934E+04     6.4155E-05     5.8044E-05    -2.2332E-01
MG BCs: +ve charge blocks (gridpoints):     25108 (   17280259).
MG BCs: -ve charge blocks (gridpoints):      8516 (    1101377).
MG BCs:     Elided blocks (gridpoints):    175532 (  177914829).
MG BCs: Computational effort saved:  99.9829%.
MG BCs: Charge after coarse-graining:           -9.0006578.
MG DL_MG: Calling solver with defect correction order = 8
MG DL_MG: Solver finished
MG Hartree energy from (\int phi*rho dr):              1257.063596
MG Hartree energy from (\int eps (grad phi)^2 dr):     1256.408653
MG Discrepancy due to finite box and discretization:     -0.654943 (  -0.05210%)
MG Correction to account for finite box:                  0.477126
MG Remaining discrepancy, due to discretization:         -0.177817 (  -0.01415%)
      ideal mu1:      -0.711124206484
             Q0:  -11705.817291290616
             G0:      -0.073412171207
   RMS gradient:       0.000041366287
MG BCs: +ve charge blocks (gridpoints):     25108 (   17280268).
MG BCs: -ve charge blocks (gridpoints):      8515 (    1101370).
MG BCs:     Elided blocks (gridpoints):    175532 (  177914827).
MG BCs: Computational effort saved:  99.9829%.
MG BCs: Charge after coarse-graining:           -9.0006578.
MG DL_MG: Calling solver with defect correction order = 8
MG DL_MG: Solver finished
MG Hartree energy from (\int phi*rho dr):              1257.099940
MG Hartree energy from (\int eps (grad phi)^2 dr):     1256.445239
MG Discrepancy due to finite box and discretization:     -0.654701 (  -0.05208%)
MG Correction to account for finite box:                  0.477013
MG Remaining discrepancy, due to discretization:         -0.177688 (  -0.01413%)
     Trial step:       0.585281197021
             Q1:  -11705.843788776896
 Quadratic coef:       0.016469277160
 Linear coef   :      -0.042966763440
           Qmin:  -11705.845315331117
Quadratic minimum step length (  0.763471234794) accepted
    Initial Ne1:    7233.99999313
      Final Ne1:    7234.00000000

=================== Penalty functional idempotency correction ==================
 RMS occupancy error at iteration   1:  0.000350 (step -0.4759 Ne1=   7234.0000)
 RMS occupancy error at iteration   2:  0.000004 (step -0.5000 Ne1=   7234.0000)
            Final RMS occupancy error   :  0.000000 (Ne1=   7234.0000)
               Final occupancy bounds   : [  0.0000,  1.0000]
================================================================================

    4        -1.170581729129E+04     4.1366E-05     3.7426E-05    -6.6072E-02
MG BCs: +ve charge blocks (gridpoints):     25106 (   17280271).
MG BCs: -ve charge blocks (gridpoints):      8516 (    1101368).
MG BCs:     Elided blocks (gridpoints):    175534 (  177914826).
MG BCs: Computational effort saved:  99.9829%.
MG BCs: Charge after coarse-graining:           -9.0006578.
MG DL_MG: Calling solver with defect correction order = 8
MG DL_MG: Solver finished
MG Hartree energy from (\int phi*rho dr):              1257.112456
MG Hartree energy from (\int eps (grad phi)^2 dr):     1256.457830
MG Discrepancy due to finite box and discretization:     -0.654626 (  -0.05207%)
MG Correction to account for finite box:                  0.476977
MG Remaining discrepancy, due to discretization:         -0.177649 (  -0.01413%)
      ideal mu1:      -0.711584052977
             Q0:  -11705.845299526234
             G0:      -0.064890506519
   RMS gradient:       0.000038834185
MG BCs: +ve charge blocks (gridpoints):     25107 (   17281804).
MG BCs: -ve charge blocks (gridpoints):      8513 (    1100807).
MG BCs:     Elided blocks (gridpoints):    175533 (  177913854).
MG BCs: Computational effort saved:  99.9829%.
MG BCs: Charge after coarse-graining:           -9.0006575.
MG DL_MG: Calling solver with defect correction order = 8
MG DL_MG: Solver finished
MG Hartree energy from (\int phi*rho dr):              1258.009156
MG Hartree energy from (\int eps (grad phi)^2 dr):     1257.354794
MG Discrepancy due to finite box and discretization:     -0.654362 (  -0.05202%)
MG Correction to account for finite box:                  0.476779
MG Remaining discrepancy, due to discretization:         -0.177583 (  -0.01412%)
     Trial step:       0.668464926672
             Q1:  -11705.869990062667
 Quadratic coef:       0.018686491248
 Linear coef   :      -0.043377027682
           Qmin:  -11705.870472343666
Quadratic minimum step length (  0.775855168393) accepted
    Initial Ne1:    7233.99999194
      Final Ne1:    7234.00000000

=================== Penalty functional idempotency correction ==================
 RMS occupancy error at iteration   1:  0.000878 (step -0.4432 Ne1=   7234.0000)
 RMS occupancy error at iteration   2:  0.000023 (step -0.4987 Ne1=   7234.0000)
            Final RMS occupancy error   :  0.000000 (Ne1=   7234.0000)
               Final occupancy bounds   : [ -0.0000,  1.0000]
================================================================================

    5        -1.170584529953E+04     3.8834E-05     3.5135E-05    -2.8008E-02
MG BCs: +ve charge blocks (gridpoints):     25106 (   17282053).
MG BCs: -ve charge blocks (gridpoints):      8513 (    1100713).
MG BCs:     Elided blocks (gridpoints):    175534 (  177913699).
MG BCs: Computational effort saved:  99.9829%.
MG BCs: Charge after coarse-graining:           -9.0006575.
MG DL_MG: Calling solver with defect correction order = 8
MG DL_MG: Solver finished
MG Hartree energy from (\int phi*rho dr):              1258.154317
MG Hartree energy from (\int eps (grad phi)^2 dr):     1257.499995
MG Discrepancy due to finite box and discretization:     -0.654322 (  -0.05201%)
MG Correction to account for finite box:                  0.476749
MG Remaining discrepancy, due to discretization:         -0.177572 (  -0.01411%)
      ideal mu1:      -0.712679479381
             Q0:  -11705.870719896164
             G0:      -0.049004174493
   RMS gradient:       0.000033252596
MG BCs: +ve charge blocks (gridpoints):     25107 (   17281879).
MG BCs: -ve charge blocks (gridpoints):      8514 (    1100877).
MG BCs:     Elided blocks (gridpoints):    175533 (  177913709).
MG BCs: Computational effort saved:  99.9829%.
MG BCs: Charge after coarse-graining:           -9.0006575.
MG DL_MG: Calling solver with defect correction order = 8
MG DL_MG: Solver finished
MG Hartree energy from (\int phi*rho dr):              1257.841466
MG Hartree energy from (\int eps (grad phi)^2 dr):     1257.187371
MG Discrepancy due to finite box and discretization:     -0.654095 (  -0.05200%)
MG Correction to account for finite box:                  0.476500
MG Remaining discrepancy, due to discretization:         -0.177596 (  -0.01412%)
     Trial step:       0.720161071045
             Q1:  -11705.892861175933
 Quadratic coef:       0.013149619019
 Linear coef   :      -0.035290898789
           Qmin:  -11705.894398292008
Quadratic minimum step length (  0.966382806737) accepted
    Initial Ne1:    7234.00056389
      Final Ne1:    7234.00000000

=================== Penalty functional idempotency correction ==================
 RMS occupancy error at iteration   1:  0.001685 (step -0.4031 Ne1=   7234.0000)
 RMS occupancy error at iteration   2:  0.000073 (step -0.4957 Ne1=   7234.0000)
 RMS occupancy error at iteration   3:  0.000000 (step -0.5000 Ne1=   7234.0000)
            Final RMS occupancy error   :  0.000000 (Ne1=   7234.0000)
               Final occupancy bounds   : [  0.0000,  1.0000]
================================================================================

    6        -1.170587071990E+04     3.3253E-05     3.0085E-05    -2.5420E-02
MG BCs: +ve charge blocks (gridpoints):     25107 (   17281862).
MG BCs: -ve charge blocks (gridpoints):      8514 (    1100901).
MG BCs:     Elided blocks (gridpoints):    175533 (  177913702).
MG BCs: Computational effort saved:  99.9829%.
MG BCs: Charge after coarse-graining:           -9.0006575.
MG DL_MG: Calling solver with defect correction order = 8
MG DL_MG: Solver finished
MG Hartree energy from (\int phi*rho dr):              1257.735658
MG Hartree energy from (\int eps (grad phi)^2 dr):     1257.081629
MG Discrepancy due to finite box and discretization:     -0.654028 (  -0.05200%)
MG Correction to account for finite box:                  0.476424
MG Remaining discrepancy, due to discretization:         -0.177604 (  -0.01412%)
      ideal mu1:      -0.712432539973
             Q0:  -11705.895113436389
             G0:      -0.041355432774
   RMS gradient:       0.000031071100
MG BCs: +ve charge blocks (gridpoints):     25108 (   17280478).
MG BCs: -ve charge blocks (gridpoints):      8516 (    1101219).
MG BCs:     Elided blocks (gridpoints):    175532 (  177914768).
MG BCs: Computational effort saved:  99.9829%.
MG BCs: Charge after coarse-graining:           -9.0006578.
MG DL_MG: Calling solver with defect correction order = 8
MG DL_MG: Solver finished
MG Hartree energy from (\int phi*rho dr):              1257.256232
MG Hartree energy from (\int eps (grad phi)^2 dr):     1256.602178
MG Discrepancy due to finite box and discretization:     -0.654054 (  -0.05202%)
MG Correction to account for finite box:                  0.476408
MG Remaining discrepancy, due to discretization:         -0.177646 (  -0.01413%)
     Trial step:       0.834236943044
             Q1:  -11705.904076221050
 Quadratic coef:       0.025537445154
 Linear coef   :      -0.034500229815
           Qmin:  -11705.906765599027
Quadratic minimum step length (  0.563513031207) accepted
    Initial Ne1:    7233.99999998
      Final Ne1:    7234.00000000

=================== Penalty functional idempotency correction ==================
 RMS occupancy error at iteration   1:  0.000018 (step -0.4989 Ne1=   7234.0000)
            Final RMS occupancy error   :  0.000000 (Ne1=   7234.0000)
               Final occupancy bounds   : [ -0.0000,  1.0000]
================================================================================

    7        -1.170589511344E+04     3.1071E-05     2.8112E-05    -2.4394E-02
MG BCs: +ve charge blocks (gridpoints):     25108 (   17280924).
MG BCs: -ve charge blocks (gridpoints):      8514 (    1101091).
MG BCs:     Elided blocks (gridpoints):    175532 (  177914450).
MG BCs: Computational effort saved:  99.9829%.
MG BCs: Charge after coarse-graining:           -9.0006577.
MG DL_MG: Calling solver with defect correction order = 8
MG DL_MG: Solver finished
MG Hartree energy from (\int phi*rho dr):              1257.410332
MG Hartree energy from (\int eps (grad phi)^2 dr):     1256.756284
MG Discrepancy due to finite box and discretization:     -0.654047 (  -0.05202%)
MG Correction to account for finite box:                  0.476415
MG Remaining discrepancy, due to discretization:         -0.177633 (  -0.01413%)
      ideal mu1:      -0.712065963360
             Q0:  -11705.906767880777
             G0:      -0.029255144845
   RMS gradient:       0.000026129391
MG BCs: +ve charge blocks (gridpoints):     25108 (   17280726).
MG BCs: -ve charge blocks (gridpoints):      8515 (    1101135).
MG BCs:     Elided blocks (gridpoints):    175532 (  177914604).
MG BCs: Computational effort saved:  99.9829%.
MG BCs: Charge after coarse-graining:           -9.0006578.
MG DL_MG: Calling solver with defect correction order = 8
MG DL_MG: Solver finished
MG Hartree energy from (\int phi*rho dr):              1257.237960
MG Hartree energy from (\int eps (grad phi)^2 dr):     1256.583989
MG Discrepancy due to finite box and discretization:     -0.653971 (  -0.05202%)
MG Correction to account for finite box:                  0.476295
[...]
MG Correction to account for finite box:                  0.006427
MG Remaining discrepancy, due to discretization:         -0.177091 (  -0.01457%)
     Trial step:       0.260791153129
             Q1:  -11740.574590359232
 Quadratic coef:       0.000000000264
 Linear coef   :      -0.000000000147
           Qmin:  -11740.574590359369
Quadratic minimum step length (  0.072766042035) accepted
    Initial Ne1:    7234.00000000
      Final Ne1:    7234.00000000

=================== Penalty functional idempotency correction ==================
 RMS occupancy error at iteration   1:  0.000000 (step -0.5000 Ne1=   7234.0000)
            Final RMS occupancy error   :  0.000000 (Ne1=   7234.0000)
               Final occupancy bounds   : [ -0.0000,  1.0000]
================================================================================

    7        -1.174057459036E+04     3.6297E-09     3.2840E-09     0.0000E+00

Reusing previously generated solute cavity.
MG BCs: +ve charge blocks (gridpoints):     29161 (   19497484).
MG BCs: -ve charge blocks (gridpoints):      8489 (    1069044).
MG BCs:     Elided blocks (gridpoints):    171479 (  175729937).
MG BCs: Computational effort saved:  99.9808%.
MG BCs: Charge after coarse-graining:           -9.0009611.
MG DL_MG: Calling solver with defect correction order = 8
MG DL_MG: Solver finished
MG Hartree energy from (\int phi*rho dr):              1215.483595
MG Hartree energy from (\int eps (grad phi)^2 dr):     1215.300077
MG Discrepancy due to finite box and discretization:     -0.183518 (  -0.01510%)
MG Correction to account for finite box:                  0.006427
MG Remaining discrepancy, due to discretization:         -0.177091 (  -0.01457%)
      ideal mu1:      -0.480614109509
             Q0:  -11740.574590359349
             G0:      -0.000000000922
   RMS gradient:       0.000000003347

Reusing previously generated solute cavity.
MG BCs: +ve charge blocks (gridpoints):     29161 (   19497484).
MG BCs: -ve charge blocks (gridpoints):      8489 (    1069044).
MG BCs:     Elided blocks (gridpoints):    171479 (  175729937).
MG BCs: Computational effort saved:  99.9808%.
MG BCs: Charge after coarse-graining:           -9.0009611.
MG DL_MG: Calling solver with defect correction order = 8
MG DL_MG: Solver finished
MG Hartree energy from (\int phi*rho dr):              1215.483589
MG Hartree energy from (\int eps (grad phi)^2 dr):     1215.300071
MG Discrepancy due to finite box and discretization:     -0.183518 (  -0.01510%)
MG Correction to account for finite box:                  0.006427
MG Remaining discrepancy, due to discretization:         -0.177091 (  -0.01457%)
     Trial step:       0.137756088835
             Q1:  -11740.574590359232
 Quadratic coef:       0.000000000244
 Linear coef   :      -0.000000000127
           Qmin:  -11740.574590359365
Quadratic minimum step length (  0.035874703956) accepted
    Initial Ne1:    7234.00000000
      Final Ne1:    7234.00000000

=================== Penalty functional idempotency correction ==================
 RMS occupancy error at iteration   1:  0.000000 (step -0.5000 Ne1=   7234.0000)
            Final RMS occupancy error   :  0.000000 (Ne1=   7234.0000)
               Final occupancy bounds   : [  0.0000,  1.0000]
================================================================================

    8        -1.174057459036E+04     3.3465E-09     3.0278E-09     0.0000E+00

Reusing previously generated solute cavity.
MG BCs: +ve charge blocks (gridpoints):     29161 (   19497484).
MG BCs: -ve charge blocks (gridpoints):      8489 (    1069044).
MG BCs:     Elided blocks (gridpoints):    171479 (  175729937).
MG BCs: Computational effort saved:  99.9808%.
MG BCs: Charge after coarse-graining:           -9.0009611.
MG DL_MG: Calling solver with defect correction order = 8
MG DL_MG: Solver finished
MG Hartree energy from (\int phi*rho dr):              1215.483594
MG Hartree energy from (\int eps (grad phi)^2 dr):     1215.300075
MG Discrepancy due to finite box and discretization:     -0.183518 (  -0.01510%)
MG Correction to account for finite box:                  0.006427
MG Remaining discrepancy, due to discretization:         -0.177091 (  -0.01457%)
      ideal mu1:      -0.480614107642
             Q0:  -11740.574590359232
             G0:      -0.000000001151
   RMS gradient:       0.000000003108

Reusing previously generated solute cavity.
MG BCs: +ve charge blocks (gridpoints):     29161 (   19497484).
MG BCs: -ve charge blocks (gridpoints):      8489 (    1069044).
MG BCs:     Elided blocks (gridpoints):    171479 (  175729937).
MG BCs: Computational effort saved:  99.9808%.
MG BCs: Charge after coarse-graining:           -9.0009611.
MG DL_MG: Calling solver with defect correction order = 8
MG DL_MG: Solver finished
MG Hartree energy from (\int phi*rho dr):              1215.483589
MG Hartree energy from (\int eps (grad phi)^2 dr):     1215.300071
MG Discrepancy due to finite box and discretization:     -0.183518 (  -0.01510%)
MG Correction to account for finite box:                  0.006427
MG Remaining discrepancy, due to discretization:         -0.177091 (  -0.01457%)
     Trial step:       0.070299067598
             Q1:  -11740.574590359232
 Quadratic coef:       0.000000000080
 Linear coef   :      -0.000000000081
           Qmin:  -11740.574590359252
Quadratic minimum step length (  0.035529531206) accepted
    Initial Ne1:    7234.00000000
      Final Ne1:    7234.00000000

=================== Penalty functional idempotency correction ==================
 RMS occupancy error at iteration   1:  0.000000 (step -0.5000 Ne1=   7234.0000)
            Final RMS occupancy error   :  0.000000 (Ne1=   7234.0000)
               Final occupancy bounds   : [  0.0000,  1.0000]
================================================================================

    9        -1.174057459036E+04     3.1082E-09     2.8121E-09     1.1642E-10

Reusing previously generated solute cavity.
MG BCs: +ve charge blocks (gridpoints):     29161 (   19497484).
MG BCs: -ve charge blocks (gridpoints):      8489 (    1069044).
MG BCs:     Elided blocks (gridpoints):    171479 (  175729937).
MG BCs: Computational effort saved:  99.9808%.
MG BCs: Charge after coarse-graining:           -9.0009611.
MG DL_MG: Calling solver with defect correction order = 8
MG DL_MG: Solver finished
MG Hartree energy from (\int phi*rho dr):              1215.483591
MG Hartree energy from (\int eps (grad phi)^2 dr):     1215.300073
MG Discrepancy due to finite box and discretization:     -0.183518 (  -0.01510%)
MG Correction to account for finite box:                  0.006427
MG Remaining discrepancy, due to discretization:         -0.177091 (  -0.01457%)
      ideal mu1:      -0.480614105125
   10        -1.174057459036E+04     2.8030E-09     2.5361E-09     0.0000E+00
Finished density kernel iterations (  10)

Writing density kernel to file "complex_35441.dkn" ... done


>>> Density kernel optimised for the current NGWF basis:
     ~~~~~~~~~~~~~~~~~~~~~~~~~~~~~~~~~~~~~~~~~~~~~~~~~~~~~~~~~~~
     Total energy                =  -1.17405745903592E+04  Eh
     Estimated bandgap           =   8.2037E-02  Eh
     RMS occupancy error         =   2.3688E-16
     [H,K] commutator            =   2.5361E-09
     Occupancy bounds            = [  0.000:  1.000]
     ~~~~~~~~~~~~~~~~~~~~~~~~~~~~~~~~~~~~~~~~~~~~~~~~~~~~~~~~~~~




################################################################################
########################### NGWF CG iteration  005 #############################
################################################################################
****** Reciprocal space K.E. preconditioning with k_zero =  3.5000 a0^-1 *******

>>> Checking for convergence of NGWFs: 
           ........................................................
           |         *** NGWF optimisation converged ***          |
           | RMS NGWF gradient =    0.00000093585187              |
           | Criteria satisfied:                                  |
           | -> RMS NGWF gradient lower than set threshold.       |
           ========================================================

Reusing previously generated solute cavity.
MG BCs: +ve charge blocks (gridpoints):     29161 (   19497484).
MG BCs: -ve charge blocks (gridpoints):      8489 (    1069044).
MG BCs:     Elided blocks (gridpoints):    171479 (  175729937).
MG BCs: Computational effort saved:  99.9808%.
MG BCs: Charge after coarse-graining:           -9.0009611.
MG DL_MG: Calling solver with defect correction order = 8
MG DL_MG: Solver finished
MG Hartree energy from (\int phi*rho dr):              1215.483591
MG Hartree energy from (\int eps (grad phi)^2 dr):     1215.300073
MG Discrepancy due to finite box and discretization:     -0.183518 (  -0.01510%)
MG Correction to account for finite box:                  0.006427
MG Remaining discrepancy, due to discretization:         -0.177091 (  -0.01457%)

================================================================================
           ---------------- ENERGY COMPONENTS (Eh) ----------------
           | Kinetic                    :     8579.56380045132755 |
           | Pseudo. (local,OBC,corr'd) :    -5079.59151380182720 |
           | Pseudopotential (non-local):     1410.04474464772238 |
           | Hartree (molecular)        :     1215.48359130835388 |
           | Exchange-correlation       :    -3376.95696430190810 |
           | Ion-ion (open BC)          :   835069.63004461349919 |
           | Dispersion Correction      :       -3.25605667164836 |
           | Smeared ion non-self corr. :  -835021.19254286424257 |
           | Smeared ion self corr.     :   -14534.96330857569956 |
           | Solvent cavitation energy  :        2.36098847334285 |
           | Solute-solvent dis-rep en. :       -1.69737363819801 |
           | Total                      :   -11740.57459035924694 |
           --------------------------------------------------------
           ------ LOCAL ENERGY COMPONENTS FROM MATRIX TRACES ------
           | Pseudopotential (local)    :    -5079.59151380182630 |
           | Hartree                    :    -2000.16834389733231 |
           --------------------------------------------------------
           Integrated density           :     7233.99999999886859
           Integrated density tr(KS)    :     7234.00000000000000
================================================================================


                        <<<<< CALCULATION SUMMARY >>>>>                         
|ITER|    RMS GRADIENT   |     TOTAL ENERGY    |   step   |     Epredicted              
   0     0.00004034844819 -11740.50808952783700   0.636690 -11740.56565231792956        
   1     0.00000985624003 -11740.57400686980691   0.089544 -11740.57448994781771        
   2     0.00000446087168 -11740.57456762832589   0.017199 -11740.57458663449324        
   3     0.00000204395834 -11740.57458936667535   0.003667 -11740.57459021743307        
   4     0.00000093585187 -11740.57459035923239  <-- CG                                 

=================== Finished the calculation in solvent ========================
= Adjusting the following parameters: 
= read_denskern: F
= read_tightbox_ngwfs: F
= maxit_pen: 0 (restored to user-specified value)
= restart read filename prefix: ""
= restart write filename prefix: ""
================================================================================

================================================================================
IS: Calculation in solvent completed (NGWFs converged).      

Individual components of total energy in solvent:     hartree           kcal/mol
- Usual non-electrostatic DFT terms:    -12956.72179650273029    -8130465.503714
- Electrostatic fixed charge energy:      1215.48359130835388      762727.452567
- Apolar cavitation energy:                  2.36098847334285        1481.542603
- Apolar dispersion-repulsion energy:       -1.69737363819801       -1065.118016
 -------------------------------------------------------------------------------
- Total energy in solvent:              -11740.57459035923239    -7367321.626560

Components of total energy in solvent:                hartree           kcal/mol
- Usual non-electrostatic DFT terms:    -12956.72179650273029    -8130465.503714
- Electrostatic energy:                   1215.48359130835388      762727.452567
- Apolar energy terms:                       0.66361483514484         416.424587
 -------------------------------------------------------------------------------
- Total energy in solvent:              -11740.57459035923239    -7367321.626560

Calculation of free energy of solvation:              hartree           kcal/mol
- Total energy in solvent:         (+)  -11740.57459035923239    -7367321.626560
- Total energy in vacuum:          (-)  -11736.73115437524393    -7364909.834120
 -------------------------------------------------------------------------------
- Total free energy of solvation:           -3.84343598398846       -2411.792441

Components of polar term in f.e. of solvation:        hartree           kcal/mol
- Electrostatic:                            -4.70334716050024       -2951.394839
- Change in nonelectrostatic DFT terms:      0.19629634136800         123.177811
 -------------------------------------------------------------------------------
- Polar term in f.e. of solvation:          -4.50705081913225       -2828.217028

Components of free energy of solvation:               hartree           kcal/mol
- Polar term in f.e. of solvation: (+)      -4.50705081913225       -2828.217028
- Apolar (cavitation, dis., rep.): (+)       0.66361483514484         416.424587
 -------------------------------------------------------------------------------
- Total free energy of solvation:           -3.84343598398740       -2411.792441
================================================================================


------------------------------ TIMING INFORMATION ------------------------------
AVERAGE TIME:   35830.325s on     60 node(s)                                    
TOTAL TIME:     35830.325s on     60 node(s)                                    
================= AVERAGE TIMINGS FROM ALL NODES (CUMULATIVE) ==================
|| TAG                                    #calls    cpu time   %total  Gflops ||
|| work_imbalance                       :     1        0.00s   0.000%  ------ ||
|| sparse_set_to_garbage                :   206        0.04s   0.000%  ------ ||
|| parallel_prepare_fd_halos_request    :  2193        0.04s   0.000%  ------ ||
|| ngwfs_initialise_from_radial         :     1        0.11s   0.000%  ------ ||
|| basis_extract_function_from_box      :  4036        0.17s   0.000%  ------ ||
|| parallel_prepare_fd_halos_alloc      :  2193        0.71s   0.002%  ------ ||
|| parallel_prepare_fd_halos_satisfy    :  2193        0.72s   0.002%  ------ ||
|| pseudopotentials_nonlocal_mat        :    35        2.78s   0.008%  ------ ||
|| openbc_locps_radial                  :     1        4.61s   0.013%  ------ ||
|| restart_ngwfs_tightbox_input         :     1        9.75s   0.027%  ------ ||
|| density_init_guess_real              :     1        9.85s   0.028%  ------ ||
|| parallel_prepare_fd_halos_comms_imbal:  2193       12.01s   0.034%  ------ ||
|| restart_kernel_read                  :     1       12.65s   0.035%  ------ ||
|| parallel_prepare_fd_halos_clear      :  2193       21.47s   0.060%  ------ ||
|| sparse_init                          :     2       23.82s   0.066%  ------ ||
|| projectors_func_ovlp_box             :    35       31.54s   0.088%  ------ ||
|| parallel_prepare_fd_halos_comms_wait :  2193       31.65s   0.088%  ------ ||
|| function_ops_brappd_ketppd           :    35       34.75s   0.097%  ------ ||
|| palser_mano_kernel_optimise          :     1       35.33s   0.099%  ------ ||
|| projectors_init_fftbox_recip         :   161       38.78s   0.108%  ------ ||
|| basis_copy_function_to_box           : 65886       49.59s   0.138%  ------ ||
|| ngwf_gradient_coeffs                 :    18       55.62s   0.155%  ------ ||
|| fourier_apply_box_pair               :  5852       61.06s   0.170% 590.934 ||
|| pseudo_make_structure_factor         :     2       62.99s   0.176%  ------ ||
|| parallel_prepare_fd_halos            :  2193       66.62s   0.186%  ------ ||
|| sparse_embed_hotelling_invert_embed  :    35       88.48s   0.247%  ------ ||
|| restart_kernel_write                 :    19      106.27s   0.297%  ------ ||
|| finite_difference_derivative         :  2193      158.77s   0.443%  ------ ||
|| integrals_kinetic                    :    35      175.15s   0.489%  ------ ||
|| projectors_gradient_batch            :   126      176.70s   0.493%  ------ ||
|| basis_dot_function_with_box          : 9.993M     194.90s   0.544%  ------ ||
|| fourier_apply_cell_backward          :  1463      199.09s   0.556% 101.502 ||
|| sparse_trace                         :  6093      234.46s   0.654%  ------ ||
|| fourier_apply_cell_forward           :  1461      260.87s   0.728%  77.358 ||
|| openbc_locps_on_grid                 :     2      269.54s   0.752%  ------ ||
|| kernel_purify                        :   558      342.99s   0.957%  ------ ||
|| basis_add_function_to_box            : 20.91M     484.58s   1.352%  ------ ||
|| lnv_gradient_norm                    :   180      500.32s   1.396%  ------ ||
|| hamiltonian_energy_components        :     4      508.37s   1.419%  ------ ||
|| xc_energy_potential                  :   365      532.56s   1.486%  ------ ||
|| kernel_fix                           :   180      627.79s   1.752%  ------ ||
|| integrals_locpot_mat_els_batch       :  1323      850.19s   2.373%  ------ ||
|| ngwf_gradient_build_batch            :   126      912.99s   2.548%  ------ ||
|| density_batch_row_sums               :  2548     1218.54s   3.401%  ------ ||
|| ngwf_gradient_batch                  :   126     1270.19s   3.545%  ------ ||
|| restart_ngwfs_tightbox_output        :    16     1368.02s   3.818%  ------ ||
|| ngwf_gradient_lnv                    :    18     1443.93s   4.030%  ------ ||
|| cell_grid_deposit_box_real           : 42276     1634.84s   4.563%  ------ ||
|| cell_grid_extract_box_real           : 46130     1802.87s   5.032%  ------ ||
|| sparse_product                       :  7562     2133.30s   5.954%  ------ ||
|| density_fftbox_deposit_to_cell       : 40040     2490.83s   6.952%  ------ ||
|| density_fftbox_interpolate_multiply  : 40040     4343.74s  12.123%  ------ ||
|| potential_apply_to_ngwf_batch        :  1323     4418.28s  12.331%  ------ ||
|| multigrid_prepare_bound_cond         :   365     5123.54s  14.299%  ------ ||
|| integrals_locpot_dbl_grid            :   189     5293.83s  14.775%  ------ ||
|| fourier_apply_box                    : 137.5k    5325.28s  14.862% 770.982 ||
|| density_batch_interp_deposit         :  2548     7979.40s  22.270%  ------ ||
|| dl_mg_solver_calls                   :   365     8100.88s  22.609%  ------ ||
|| density_on_dbl_grid                  :   364     9653.84s  26.943%  ------ ||
|| multigrid_calculate_hartree          :   365    13445.41s  37.525%  ------ ||
|| hamiltonian_lhxc_calculate           :   360    23597.35s  65.859%  ------ ||
|| lnv_denskernel_optimise_cg           :    18    29904.10s  83.460%  ------ ||
|| ngwf_cg_optimise                     :     2    34811.04s  97.155%  ------ ||
|| total_time                           :     1    35830.32s 100.000%  ------ ||
================================================================================
Overhead of generating timer report: 
- 0 ms averaging over threads,
- 15 ms ensuring consistency across MPI ranks,
- 0 ms printing in order.

Job completed: 08-03-2020 21:57 (-0000)

Application 39479849 resources: utime ~7476486s, stime ~247732s, Rss ~3844340, inblocks ~388919142, outblocks ~77208977
