 +---------------------------------------------------------------+
 |                                                               |
 |        ####### #     # ####### ####### ####### ######         |
 |        #     # ##    # #          #    #       #     #        |
 |        #     # # #   # #          #    #       #     #        |
 |        #     # #  #  # #####      #    #####   ######         |
 |        #     # #   # # #          #    #       #              |
 |        #     # #    ## #          #    #       #              |
 |        ####### #     # #######    #    ####### #              |
 |                                                               |
 |        Linear-Scaling Ab Initio Total Energy Program          |
 |                                                               |
 |          Release for academic collaborators of ODG            |
 |                                             Version 5.3.2.6.  |
 |                                                               |
 +---------------------------------------------------------------+
 |                                                               |
 |  Authors:                                                     |
 |  Jacek Dziedzic, Peter D. Haynes, Nicholas D. M. Hine,        |
 |  Arash. A. Mostofi, Mike C. Payne and Chris-Kriton Skylaris   |
 |                                                               |
 |  Contributors:                                                |
 |  J. Aarons, L. Andrinopoulos, P. W. Avraam, R. A. Bell,       |
 |  A. Bhandari, G. A. Bramley, R. J. Charlton, S. J. Clark,     |
 |  R. J. Clements, G. C. Constantinescu, F. Corsetti,           |
 |  N. Corsini, O. Dieguez, S. M. M. Dubois, K. K. B. Duff,      |
 |  J. M. Escartin, A. Greco, H. Helal, Q. O. Hill, L. P. Lee,   |
 |  J.-H. Li, E. B. Linscott, G. Moynihan, D. D. O`Regan,        |
 |  O. K. Okan, M. J. S. Phipps, C. J. Pickard,                  |
 |  J. C. A. Prentice, M. I. J. Probert, L. E. Ratcliff,         |
 |  M. Robinson, A. Ruiz Serrano, J. S. Spencer, E. W. Tait,     |
 |  G. Teobaldi, D. Turban, V. Vitale, K. A. Wilkinson,          |
 |  C. Weber, J. C. Womack, N. Yeung and T. J. Zuehlsdorff       |
 |                                                               |
 |                                   Copyright (c) 2004-2019     |
 |                                                               |
 |  Please cite:                                                 |
 |  "Introducing ONETEP: Linear-scaling density functional       |
 |   simulations on parallel computers".                         |
 |   C.-K. Skylaris, P. D. Haynes, A. A. Mostofi, M. C. Payne.   |
 |   J. Chem. Phys. 122 084119 (2005).                           |
 |                                                               |
 |          in all publications arising from your use of ONETEP. |
 |                                                               |
 +---------------------------------------------------------------+
 |                                                               |
 |   ONETEP is based on developments described in the following  |
 |   publications:                                               |
 |                                                               |
 |  "Nonorthogonal generalized Wannier function pseudopotential  |
 |   plane-wave method".                                         |
 |   C.-K. Skylaris, A. A. Mostofi, P. D. Haynes, O. Dieguez,    |
 |   M. C. Payne.                                                |
 |   Phys. Rev. B 66 035119 (2002).                              |
 |                                                               |
 |  "Preconditioned iterative minimization for linear-scaling    |
 |   electronic structure calculations".                         |
 |   A. A. Mostofi, P. D. Haynes, C.-K. Skylaris, M. C. Payne.   |
 |   J. Chem. Phys. 119(17), pp.8842-8848 (2003).                |
 |                                                               |
 |  "Total-energy calculations on a real space grid with         |
 |   localized functions and a plane-wave basis".                |
 |   A. A. Mostofi, C.-K. Skylaris, P. D. Haynes, M. C. Payne.   |
 |   Comput. Phys. Commun. 147, pp.788-802 (2002).               |
 |                                                               |
 |  "Accurate kinetic energy evaluation in electronic structure  |
 |   calculations with localized functions on real space grids"  |
 |   C.-K. Skylaris, A. A. Mostofi, P. D. Haynes, C. J. Pickard, |
 |   M. C. Payne.                                                |
 |   Comput. Phys. Commun. 140, pp.315-322 (2001).               |
 |                                                               |
 |  "Accurate ionic forces and geometry optimization in linear-  |
 |   scaling density-functional theory with local orbitals"      |
 |   N. D. M. Hine, M. Robinson, P. D. Haynes, C.-K. Skylaris,   |
 |   M. C. Payne, and A. A. Mostofi.                             |
 |   Phys. Rev. B 83 195102 (2011).                              |
 |                                                               |
 +---------------------------------------------------------------+

Job started: 22-01-2020 16:49 (-0000)
 
Reading parameters from file "complex_13401.dat" ...... done

If your calculation crashes here, before "Checking processes and threads..."
is displayed, then your stack size is insufficient.
If so, use "ulimit -s unlimited" at runtime.
You can disable this check with "check_stack_size F".

Checking processes and threads...
   Determining the default number of threads...
      No default threads set at compilation time: defaulting to 1.
      OpenMP library call suggests 4 threads.
      Hybrid MPI-OpenMP compilation detected.
      Number of MPI processes > 1.
      OMP_NUM_THREADS environment variable present and
      its value matches the one obtained from the OpenMP library call.
      Using this value as default.
      Default threads: 4
      Default applies to threads_max and threads_num_fftboxes.
      Settings in the input file override this default.
   ... done

   Running with 30 MPI processes.
   There are 4 MPI processes running on the same node as the root process.
   Each MPI process is using: 
               1 threads for simulation cell FFTs.
               1 threads for parallel FFT box operations.
               4 threads for loops over batched FFT box operations.
               4 threads in other parallel regions.
... done

Basic input checks...... done

Reading geometry and species blocks from file "complex_13401.dat" ...
  <species_atomic_set> block not found: NGWF initialisation set to SOLVE
IS: Dielectric excluded regions:
    - NONE.
    
  Number of PPD points along a3 set to 1.  This is 
  the default value, it may have been provided also in the input file.
... done
 Writing xyz coordinates to file "complex_13401.xyz" ... done


--------------------------------------------------------------------------------
---------------------------------- INPUT FILE ----------------------------------
--------------------------------------------------------------------------------

cutoff_energy       : 800 eV                                                    
xc_functional PBE                                                               
task SINGLEPOINT                                                                
write_xyz true                                                                  
output_detail VERBOSE                                                           
ngwf_threshold_orig : 0.000002                                                  
kernel_cutoff       : 1000                                                      
k_zero              : 3.5                                                       
elec_cg_max 0                                                                   
occ_mix 1.0                                                                     
dispersion 1                                                                    
maxit_ngwf_cg 40                                                                
minit_lnv 10                                                                    
maxit_lnv 10                                                                    
write_denskern T                                                                
write_tightbox_ngwfs T                                                          
charge 9                                                                        
is_implicit_solvent T                                                           
is_auto_solvation T                                                             
is_include_apolar T                                                             
is_smeared_ion_rep T                                                            
is_solvent_surf_tension 4.7624E-5 Ha/bohr**2                                    
is_apolar_scaling_factor 0.281075                                               
is_solvation_beta 1.3                                                           
is_density_threshold 0.00035                                                    
is_bulk_permittivity 78.54                                                      
is_dielectric_model fix_initial                                                 
is_smeared_ion_width 0.8                                                        
mg_defco_fd_order 8                                                             
is_bc_coarseness 10                                                             
is_bc_surface_coarseness 1                                                      
fine_grid_scale 2.0                                                             
%block species                                                                  
N   N   7 4 8.0                                                                 
H   H   1 1 8.0                                                                 
C   C   6 4 8.0                                                                 
S   S  16 9 8.0                                                                 
O   O   8 4 8.0                                                                 
%endblock species                                                               
%block species_pot                                                              
N   N_00.recpot                                                                 
H   H_04.recpot                                                                 
C   C_01.recpot                                                                 
S   S_00.recpot                                                                 
O   O_02.recpot                                                                 
%endblock species_pot                                                           
%block lattice_cart                                                             
137.614   0.000   0.000                                                         
0.000 142.646   0.000                                                           
0.000   0.000   160.855                                                         
%endblock lattice_cart                                                          
%block positions_abs                                                            
     Hash =   000000957357345201763472
%endblock positions_abs                                                         

--------------------------------------------------------------------------------
-------------------------------- END INPUT FILE --------------------------------
--------------------------------------------------------------------------------


 
 ESDF WARNING(1): "kernelcutoff" (esdf_physical) has no units. Assume "bohr".
 ESDF WARNING(2): "kzero" (esdf_physical) has no units. Assume "1/bohr".
 ESDF WARNING(3
 ): "issmearedionwidth" (esdf_physical) has no units. Assume "bohr".
<<<<<<<<<<<<<<<<<<<<<<<<<<<<<<<<< Full system >>>>>>>>>>>>>>>>>>>>>>>>>>>>>>>>>>
<<<<<<<<<<<<<<<<<<<<<<<<< Pseudopotential information >>>>>>>>>>>>>>>>>>>>>>>>>>
File: N_00.recpot [ 2001 points up to Gmax=  52.9 (1/bohr)]
  Atomic number:  7;  ionic charge:  5.000000
    Shell 1: l = 0; rc = 1.48 bohr
File: H_04.recpot [ 2001 points up to Gmax=  52.9 (1/bohr)]
  Atomic number:  1;  ionic charge:  1.000000
    Local potential
File: C_01.recpot [ 2001 points up to Gmax=  52.9 (1/bohr)]
  Atomic number:  6;  ionic charge:  4.000000
    Shell 1: l = 0; rc = 1.48 bohr
File: S_00.recpot [ 2001 points up to Gmax=  52.9 (1/bohr)]
  Atomic number: 16;  ionic charge:  6.000000
    Shell 1: l = 0; rc = 1.90 bohr
    Shell 2: l = 2; rc = 1.84 bohr
File: O_02.recpot [ 2001 points up to Gmax=  52.9 (1/bohr)]
  Atomic number:  8;  ionic charge:  6.000000
    Shell 1: l = 0; rc = 1.31 bohr
<<<<<<<<<<<<<<<<<<<<<<<<<<<<<<<<<<<<<<<<>>>>>>>>>>>>>>>>>>>>>>>>>>>>>>>>>>>>>>>>

-------------------------- Atom counting information ---------------------------
Symbol    Natoms    Nngwfs    Nprojs
  N        236       944       236
  H       1319      1319         0
  C        817      3268       817
  S          6        54        36
  O        240       960       240
.......   ......    ......    ......
Totals:   2618      6545      1329
--------------------------------------------------------------------------------

=============================== PSINC grid sizes ===============================
                      Simulation cell:  273 x 286 x 320
                              FFT-box:   99 x 105 x  99
                                  PPD:    7 x  11 x   1
Grid space d1=  0.504080586081a0 (KE cutoff=  29.89538Eh = 813.49465eV)
Grid space d2=  0.498762237762a0 (KE cutoff=  30.53633Eh = 830.93588eV)
Grid space d3=  0.502671875000a0 (KE cutoff=  30.06317Eh = 818.06059eV)
================================================================================

********************* Fourier parallelisation information **********************
       Coarse grid (whole simulation cell) dimensions:    273   286   320
          Real-space ('12') slabs/node (min max mean):     10    11    10
         Recip-space ('23') slabs/node (min max mean):      4     5     4
********************************************************************************

********************* Fourier parallelisation information **********************
       Double grid (whole simulation cell) dimensions:    546   572   640
          Real-space ('12') slabs/node (min max mean):     21    22    21
         Recip-space ('23') slabs/node (min max mean):      9    10     9
********************************************************************************
ONETEP fine grid is 546 x 572 x 640 gridpoints, 137.6140 x 142.6460 x 160.8550 bohr.
FD multigrid is     545 x 569 x 633 gridpoints, 137.3620 x 141.8979 x 159.0956 bohr.


Calculating local pseudopotential in open BC on a radial grid ...
Discrepancy between calculated realspace psloc and -Z/x on [5a0,255.264a0]:
max |rel. diff| # avg |rel. diff| #  avg rel. diff #  f # pseudopotential file
 0.000296759711    0.000009439468   0.000000085927   54  'N_00.recpot'
 0.000490027943    0.000021572324  -0.000000031900   54  'H_04.recpot'
 0.000320795249    0.000014598087   0.000000111901   54  'C_01.recpot'
 0.000388730920    0.000016096375   0.000000514750   54  'S_00.recpot'
 0.000828383344    0.000035421288   0.000000087443   54  'O_02.recpot'
... done

Atom SCF Calculation for N  : Z (AE atom) =   7 : Z (PS atom) =   5
Config String:
Orbitals (num,occ):  2     2.00 3.00
Orbitals   (num,l):  2        0    1
Real-space Grid (nr,dr,rmax): 1203    0.0066555740    8.0000000000
Spherical Bessel Basis (nsws,lmax,cutoff):   47    1  176.3951722778
Confining potential (l,width,scale):  0    3.0000000000  100.0000000000
Confining potential (l,width,scale):  1    3.0000000000  100.0000000000
  1         -4.7312375307   -3.4155304497    7.0523828109   -1.9351020946
  2         -9.7309464766   -2.0532547791    8.2966052865   -2.2494486027
  3         -9.6627394379   -2.1124926340    8.2327997121   -2.2369778124
  4         -9.6814993499   -2.1215521045    8.2229805960   -2.2365178421
  5         -9.6843326483   -2.1250939529    8.2191374534   -2.2362718126
  6         -9.6859628709   -2.1267894855    8.2172963573   -2.2362066344
  7         -9.6867347035   -2.1276425665    8.2163697352   -2.2361903369
  8         -9.6870802100   -2.1280764625    8.2158983890   -2.2361891460
  9         -9.6872290423   -2.1282977424    8.2156580222   -2.2361920435
 10         -9.6872901988   -2.1284107021    8.2155353368   -2.2361953393
 11         -9.6873135296   -2.1284684031    8.2154726809   -2.2361979819
 12         -9.6873212476   -2.1284978948    8.2154406648   -2.2361998431
 13         -9.6873229586   -2.1285129774    8.2154242957   -2.2362010676
 14         -9.6873226456   -2.1285206957    8.2154159216   -2.2362018403
 15         -9.6873218534   -2.1285246479    8.2154116349   -2.2362023142
 16         -9.6873212599   -2.1285262679    8.2154098784   -2.2362025420
 17         -9.6873207834   -2.1285272564    8.2154088068   -2.2362026955
 18         -9.6873204210   -2.1285278597    8.2154081529   -2.2362027982
 19         -9.6873201550   -2.1285282280    8.2154077538   -2.2362028667
 20         -9.6873199645   -2.1285284529    8.2154075102   -2.2362029121
 21         -9.6873198305   -2.1285285903    8.2154073614   -2.2362029421
 22         -9.6873197377   -2.1285286742    8.2154072705   -2.2362029618
Atom SCF converged after  22 iterations to a total energy of     -9.68731974

Atom SCF Calculation for H  : Z (AE atom) =   1 : Z (PS atom) =   1
Config String:
Orbitals (num,occ):  1     1.00
Orbitals   (num,l):  1        0
Real-space Grid (nr,dr,rmax): 1203    0.0066555740    8.0000000000
Spherical Bessel Basis (nsws,lmax,cutoff):   47    0  176.3951722778
Confining potential (l,width,scale):  0    3.0000000000  100.0000000000
  1         -0.3194257691   -0.2393854593    0.2820953124   -0.2424203209
  2         -0.3951823392   -0.2377116493    0.2886404059   -0.2475147891
  3         -0.4317044583   -0.2352244387    0.2921333887   -0.2514046172
  4         -0.4470703708   -0.2341892222    0.2934391879   -0.2531009782
  5         -0.4532132900   -0.2338556667    0.2938388426   -0.2537313520
  6         -0.4556579251   -0.2337612552    0.2939448584   -0.2539550462
  7         -0.4566418315   -0.2337377355    0.2939680120   -0.2540342273
  8         -0.4570437922   -0.2337331116    0.2939708287   -0.2540627372
  9         -0.4572102946   -0.2337328328    0.2939698291   -0.2540732650
 10         -0.4572800424   -0.2337332404    0.2939687193   -0.2540772588
 11         -0.4573095100   -0.2337335791    0.2939680317   -0.2540788122
 12         -0.4573220379   -0.2337337762    0.2939676699   -0.2540794294
 13         -0.4573273880   -0.2337338775    0.2939674931   -0.2540796787
 14         -0.4573296803   -0.2337339266    0.2939674099   -0.2540797808
 15         -0.4573306647   -0.2337339495    0.2939673718   -0.2540798230
 16         -0.4573310882   -0.2337339601    0.2939673545   -0.2540798406
 17         -0.4573312706   -0.2337339649    0.2939673467   -0.2540798479
 18         -0.4573313493   -0.2337339670    0.2939673433   -0.2540798510
Atom SCF converged after  18 iterations to a total energy of     -0.45733135

Atom SCF Calculation for C  : Z (AE atom) =   6 : Z (PS atom) =   4
Config String:
Orbitals (num,occ):  2     2.00 2.00
Orbitals   (num,l):  2        0    1
Real-space Grid (nr,dr,rmax): 1203    0.0066555740    8.0000000000
Spherical Bessel Basis (nsws,lmax,cutoff):   47    1  176.3951722778
Confining potential (l,width,scale):  0    3.0000000000  100.0000000000
Confining potential (l,width,scale):  1    3.0000000000  100.0000000000
  1         -5.2976922011   -1.3069684169    4.5135249990   -1.4493313817
  2         -5.3721716256   -1.3429755895    4.4750154450   -1.4361613026
  3         -5.3809959565   -1.3617365618    4.4541655428   -1.4305930207
  4         -5.3918938866   -1.3667928461    4.4484735100   -1.4294652294
  5         -5.3956096428   -1.3688539142    4.4461376126   -1.4290734646
  6         -5.3968271862   -1.3696852393    4.4451910874   -1.4289366866
  7         -5.3972028401   -1.3700178062    4.4448112275   -1.4288900460
  8         -5.3973067903   -1.3701500158    4.4446598370   -1.4288749220
  9         -5.3973286940   -1.3702023868    4.4445997329   -1.4288704293
 10         -5.3973289850   -1.3702230869    4.4445759233   -1.4288693188
 11         -5.3973254264   -1.3702312560    4.4445665049   -1.4288691775
 12         -5.3973224003   -1.3702344755    4.4445627836   -1.4288692549
 13         -5.3973208708   -1.3702354890    4.4445616088   -1.4288693270
 14         -5.3973198783   -1.3702360102    4.4445610034   -1.4288693814
 15         -5.3973192535   -1.3702362780    4.4445606917   -1.4288694190
 16         -5.3973188684   -1.3702364155    4.4445605313   -1.4288694437
 17         -5.3973186349   -1.3702364860    4.4445604489   -1.4288694595
 18         -5.3973184951   -1.3702365221    4.4445604065   -1.4288694693
 19         -5.3973184122   -1.3702365405    4.4445603848   -1.4288694753
Atom SCF converged after  19 iterations to a total energy of     -5.39731841

Atom SCF Calculation for S  : Z (AE atom) =  16 : Z (PS atom) =   6
Config String:
Orbitals (num,occ):  3     2.00 4.00 0.00
Orbitals   (num,l):  3        0    1    2
Real-space Grid (nr,dr,rmax): 1203    0.0066555740    8.0000000000
Spherical Bessel Basis (nsws,lmax,cutoff):   47    2  176.3951722778
Confining potential (l,width,scale):  0    3.0000000000  100.0000000000
Confining potential (l,width,scale):  1    3.0000000000  100.0000000000
Confining potential (l,width,scale):  2    3.0000000000  100.0000000000
  1        -12.4735062396   -1.0328741412   10.1554312477   -2.4512393157
  2         -9.9458301913   -2.4607392455    8.3041325857   -2.0306994528
  3        -10.1450417646   -2.2931184565    8.4831893826   -2.0812538287
  4        -10.1528335592   -2.2733105793    8.5050388867   -2.0896035179
  5        -10.1571940363   -2.2633716629    8.5160794258   -2.0939370707
  6        -10.1594380571   -2.2584938667    8.5215163935   -2.0961289008
  7        -10.1605856507   -2.2561081821    8.5241804044   -2.0972291378
  8        -10.1611799191   -2.2549395235    8.5254868240   -2.0977806248
  9        -10.1614918752   -2.2543658586    8.5261285885   -2.0980571586
 10        -10.1616572884   -2.2540839121    8.5264441898   -2.0981959233
 11        -10.1617455602   -2.2539453058    8.5265994231   -2.0982656006
 12        -10.1617928447   -2.2538772062    8.5266757320   -2.0983006047
 13        -10.1618182292   -2.2538437891    8.5267131983   -2.0983181961
 14        -10.1618318741   -2.2538274201    8.5267315620   -2.0983270391
 15        -10.1618392144   -2.2538194197    8.5267405433   -2.0983314852
 16        -10.1618431651   -2.2538155200    8.5267449245   -2.0983337210
 17        -10.1618452923   -2.2538136252    8.5267470551   -2.0983348455
 18        -10.1618464380   -2.2538127080    8.5267480875   -2.0983354110
 19        -10.1618470552   -2.2538122659    8.5267485856   -2.0983356955
 20        -10.1618473878   -2.2538120540    8.5267488248   -2.0983358386
 21        -10.1618475670   -2.2538119530    8.5267489389   -2.0983359106
 22        -10.1618476637   -2.2538119053    8.5267489929   -2.0983359468
Atom SCF converged after  22 iterations to a total energy of    -10.16184766

Atom SCF Calculation for O  : Z (AE atom) =   8 : Z (PS atom) =   6
Config String:
Orbitals (num,occ):  2     2.00 4.00
Orbitals   (num,l):  2        0    1
Real-space Grid (nr,dr,rmax): 1203    0.0066555740    8.0000000000
Spherical Bessel Basis (nsws,lmax,cutoff):   47    1  176.3951722778
Confining potential (l,width,scale):  0    3.0000000000  100.0000000000
Confining potential (l,width,scale):  1    3.0000000000  100.0000000000
  1         -1.8735052164   -7.5539365035   10.1554312477   -2.4512393157
  2        -16.0318313751   -3.1285771268   13.6395848164   -3.2358799643
  3        -15.9524020423   -3.0762819706   13.6967272503   -3.2536856837
  4        -15.8521515939   -3.0781493909   13.6951909330   -3.2561700440
  5        -15.8357139793   -3.0748501933   13.6988803334   -3.2580493133
  6        -15.8246052853   -3.0740779781   13.6997881576   -3.2588327446
  7        -15.8189019501   -3.0737449687   13.7001869911   -3.2592378801
  8        -15.8159785510   -3.0736026016   13.7003615168   -3.2594475790
  9        -15.8144776168   -3.0735437994   13.7004360379   -3.2595560735
 10        -15.8137058024   -3.0735207882   13.7004667348   -3.2596122456
 11        -15.8133083127   -3.0735125946   13.7004786868   -3.2596413656
 12        -15.8131032938   -3.0735102195   13.7004828997   -3.2596564858
 13        -15.8129973902   -3.0735099286   13.7004840891   -3.2596643505
 14        -15.8129426040   -3.0735102506   13.7004842061   -3.2596684489
 15        -15.8129142203   -3.0735106556   13.7004840157   -3.2596705887
 16        -15.8128994940   -3.0735109855   13.7004837906   -3.2596717080
 17        -15.8128918425   -3.0735112169   13.7004836103   -3.2596722946
 18        -15.8128878614   -3.0735113674   13.7004834848   -3.2596726026
 19        -15.8128857871   -3.0735114608   13.7004834035   -3.2596727646
 20        -15.8128847048   -3.0735115170   13.7004833533   -3.2596728500
 21        -15.8128841394   -3.0735115501   13.7004833231   -3.2596728951
 22        -15.8128838436   -3.0735115693   13.7004833054   -3.2596729190
 23        -15.8128836887   -3.0735115802   13.7004832951   -3.2596729316
 24        -15.8128836074   -3.0735115864   13.7004832893   -3.2596729383
Atom SCF converged after  24 iterations to a total energy of    -15.81288361

========================== Calculation in vacuum ==============================
= Adjusting the following parameters: 
= is_implicit_solvent: F
= is_include_apolar: F
= write_denskern: T
= write_tightbox_ngwfs: T
= restart read filename prefix: ""
= restart write filename prefix: "vacuum_"
===============================================================================

Determining parallel strategy ...
... using space-filling curve
... NGWF load balancing: max    219;  min    218;  average    218
... Projector load balancing: max     47;  min     43;  average     44
... done
Calculating direct Ion-Ion energy ...
Ion-Ion Energy        :    841893.77746471134014
======================= Empirical dispersion information =======================
Model : Elstner
Dispersion Correction Energy: -0.33206011E+01 Hartree
================================================================================
Basis initialisation ...... NGWF spheres initialised
... Projector spheres initialised
... NGWF tight boxes initialised
... Tight-boxes gathered
... NGWF basis size (local,global):    1303374  39253459
... Nonlocal pseudopotential projector initialisation
... done

========================== Sparse matrix information ===========================
                        Overlap matrix filling:   6.85%
                        Density kernel filling: 100.00%
              NGWF-Proj overlap matrix filling:   1.79%
                    Hamiltonian matrix filling:   7.77%
                  NGWF diagonal matrix filling:   0.05%
                             KS matrix filling: 100.00% 
                           KSKS matrix filling: 100.00% 
================================================================================

Sparse matrix initialisation ... done

Generating smeared ion density ... done
Smeared ion self correction:     -14534.963309
Smeared ion non-self correction: -841845.359671
NGWF initialisation ...... done
============ Calculation of NGWF S^-1 using Hotelling algorithm ================ 
         Iteration  |  Frobenius norm and Maximum abs value    (of I-S*S_n^-1)   
               1       0.78663327E+02     0.98238877E+00
               2       0.76765296E+02     0.96518832E+00
               3       0.73705975E+02     0.93196736E+00
               4       0.69381914E+02     0.86991064E+00
               5       0.64022406E+02     0.76298909E+00
               6       0.58026276E+02     0.70472768E+00
               7       0.52028391E+02     0.66867741E+00
               8       0.46478729E+02     0.64282502E+00
               9       0.40337450E+02     0.60131276E+00
              10       0.31950578E+02     0.52970877E+00
              11       0.21301881E+02     0.41528964E+00
              12       0.10745520E+02     0.26777712E+00
              13       0.34601930E+01     0.12257629E+00
              14       0.52322372E+00     0.28669554E-01
              15       0.22918825E-01     0.19737364E-02
              16       0.10264494E-03     0.12846540E-04
              17       0.35791012E-08     0.64946626E-09
              18       0.91261659E-13     0.44408921E-14
================================================================================
Calculating local pseudopotential in open BC on the fine real space grid ...
... done

MG BCs: +ve charge blocks (gridpoints):     20607 (   16183816).
MG BCs: -ve charge blocks (gridpoints):      8115 (    1102284).
MG BCs:     Elided blocks (gridpoints):    180033 (  179010365).
MG BCs: Computational effort saved:  99.9854%.
MG BCs: Charge after coarse-graining:           -9.0002292.
MG DL_MG: Calling solver with defect correction order = 8
MG DL_MG: Solver finished
MG Hartree energy from (\int phi*rho dr):              1472.349524
MG Hartree energy from (\int eps (grad phi)^2 dr):     1471.737120
MG Discrepancy due to finite box and discretization:     -0.612404 (  -0.04159%)
MG Correction to account for finite box:                  0.464863
MG Remaining discrepancy, due to discretization:         -0.147540 (  -0.01002%)
Up spin density kernel initialisation ... 
======= Optimisation of K by Palser-Manolopoulos canonical purification ======== 
         Iteration  |  Band structure energy |    c_n   
               1       -2608.23564249549736    0.5262330
               2       -2785.07653634609460    0.5167416
               3       -2965.64876922020358    0.5156316
               4       -3115.47834875828312    0.5297898
               5       -3206.79764644264969    0.5663445
               6       -3244.68106281361179    0.6108425
               7       -3257.61007978835551    0.6231219
               8       -3263.23945940295607    0.6248953
               9       -3265.93643616817917    0.6411442
              10       -3267.05963521637295    0.6575018
              11       -3267.52712500441066    0.6546621
              12       -3267.75095845617761    0.6302154
              13       -3267.86746144618292    0.5797331
              14       -3267.92731216795528    0.4981514
              15       -3267.95230384384058    0.4194226
              16       -3267.95454594894181    0.4004348
              17       -3267.95537234543008    0.4268965
              18       -3267.95566297933237    0.4737740
              19       -3267.95577275271080    0.4967300
              20       -3267.95579614216012    0.4999488
              21       -3267.95581073403991    0.5000000
              22       -3267.95583142907117    0.5000000
              23       -3267.95585973181960    0.5000000
              24       -3267.95589430088603    0.5000000
              25       -3267.95592734685306    0.5000000
              26       -3267.95594632682605    0.5000000
              27       -3267.95595038820784    0.5000000
              28       -3267.95595053130000    0.5000000
Termination criterion satisfied: band energy change below threshold.
Final occupancy bounds: [    0.00000000000593:    0.99999999999891]
Closest occupancy to 0.5:     0.99999999998929
================================================================================
... done

Writing density kernel to file "complex_13401.vacuum_dkn" ... done

>>> Optimising kernel for current NGWFs:
   Initial electron number for spin 1:    7234.00000000
     Final electron number for spin 1:    7234.00000000

=================== Penalty functional idempotency correction ==================
 RMS occupancy error at iteration   1:  0.000000 (step -0.5000 Ne1=   7234.0000)
            Final RMS occupancy error   :  0.000000 (Ne1=   7234.0000)
               Final occupancy bounds   : [ -0.0000,  1.0000]
================================================================================

................................................................................
<<<<<<<<<<<<<< LNV (Original version) density kernel optimisation >>>>>>>>>>>>>>
~~~~~~~~~~~~~~~~~~~~~~~~~~~~~~~~~~~~~~~~~~~~~~~~~~~~~~~~~~~~~~~~~~~~~~~~~~~~~~~~
   iter  |      energy (Eh)       | rms gradient |  commutator  |   dE (Eh)
MG BCs: +ve charge blocks (gridpoints):     31344 (   17309570).
MG BCs: -ve charge blocks (gridpoints):      8422 (    1136340).
MG BCs:     Elided blocks (gridpoints):    169290 (  177850555).
MG BCs: Computational effort saved:  99.9797%.
MG BCs: Charge after coarse-graining:           -9.0009651.
MG DL_MG: Calling solver with defect correction order = 8
MG DL_MG: Solver finished
MG Hartree energy from (\int phi*rho dr):              1428.123914
MG Hartree energy from (\int eps (grad phi)^2 dr):     1427.459414
MG Discrepancy due to finite box and discretization:     -0.664500 (  -0.04653%)
MG Correction to account for finite box:                  0.474910
MG Remaining discrepancy, due to discretization:         -0.189589 (  -0.01328%)
      ideal mu1:      -0.701523992168
             Q0:  -11567.865683877259
             G0:    -145.758091607925
   RMS gradient:       0.001844619035
MG BCs: +ve charge blocks (gridpoints):     31278 (   17389886).
MG BCs: -ve charge blocks (gridpoints):      8333 (    1115683).
MG BCs:     Elided blocks (gridpoints):    169355 (  177790896).
MG BCs: Computational effort saved:  99.9798%.
MG BCs: Charge after coarse-graining:           -9.0009869.
MG DL_MG: Calling solver with defect correction order = 8
MG DL_MG: Solver finished
MG Hartree energy from (\int phi*rho dr):              1452.869917
MG Hartree energy from (\int eps (grad phi)^2 dr):     1452.220890
MG Discrepancy due to finite box and discretization:     -0.649027 (  -0.04467%)
MG Correction to account for finite box:                  0.474946
MG Remaining discrepancy, due to discretization:         -0.174081 (  -0.01198%)
     Trial step:       0.500000000000
             Q1:  -11579.420339030330
 Quadratic coef:      61.324390650891
 Linear coef   :     -72.879045803962
           Qmin:  -11589.518387071379
Quadratic minimum step length (  0.297104647231) accepted
    Initial Ne1:    7234.00000000
      Final Ne1:    7234.00000000

=================== Penalty functional idempotency correction ==================
 RMS occupancy error at iteration   1:  0.003412 (step -0.4884 Ne1=   7234.0000)
 RMS occupancy error at iteration   2:  0.000028 (step -0.5001 Ne1=   7234.0000)
            Final RMS occupancy error   :  0.000000 (Ne1=   7234.0000)
               Final occupancy bounds   : [  0.0000,  1.0000]
================================================================================

    1        -1.156786568388E+04     1.8446E-03     1.6689E-03
MG BCs: +ve charge blocks (gridpoints):     31291 (   17359110).
MG BCs: -ve charge blocks (gridpoints):      8384 (    1124267).
MG BCs:     Elided blocks (gridpoints):    169342 (  177813088).
MG BCs: Computational effort saved:  99.9798%.
MG BCs: Charge after coarse-graining:           -9.0009779.
MG DL_MG: Calling solver with defect correction order = 8
MG DL_MG: Solver finished
MG Hartree energy from (\int phi*rho dr):              1434.857018
MG Hartree energy from (\int eps (grad phi)^2 dr):     1434.202652
MG Discrepancy due to finite box and discretization:     -0.654366 (  -0.04560%)
MG Correction to account for finite box:                  0.474807
MG Remaining discrepancy, due to discretization:         -0.179559 (  -0.01251%)
      ideal mu1:      -0.746162544096
             Q0:  -11589.924813292921
             G0:     -12.276180804349
   RMS gradient:       0.000531701974
MG BCs: +ve charge blocks (gridpoints):     31290 (   17375806).
MG BCs: -ve charge blocks (gridpoints):      8354 (    1118977).
MG BCs:     Elided blocks (gridpoints):    169343 (  177801682).
MG BCs: Computational effort saved:  99.9798%.
MG BCs: Charge after coarse-graining:           -9.0009815.
MG DL_MG: Calling solver with defect correction order = 8
MG DL_MG: Solver finished
MG Hartree energy from (\int phi*rho dr):              1440.020442
MG Hartree energy from (\int eps (grad phi)^2 dr):     1439.369837
MG Discrepancy due to finite box and discretization:     -0.650605 (  -0.04518%)
MG Correction to account for finite box:                  0.474174
MG Remaining discrepancy, due to discretization:         -0.176431 (  -0.01225%)
     Trial step:       0.385424861180
             Q1:  -11592.800207388820
 Quadratic coef:       1.856151186435
 Linear coef   :      -4.731545282335
           Qmin:  -11592.940128117811
Quadratic minimum step length (  0.491246401946) accepted
    Initial Ne1:    7233.99987794
      Final Ne1:    7234.00000000

=================== Penalty functional idempotency correction ==================
 RMS occupancy error at iteration   1:  0.001828 (step -0.4928 Ne1=   7234.0000)
 RMS occupancy error at iteration   2:  0.000013 (step -0.5002 Ne1=   7234.0000)
            Final RMS occupancy error   :  0.000000 (Ne1=   7234.0000)
               Final occupancy bounds   : [  0.0000,  1.0000]
================================================================================

    2        -1.158992481329E+04     5.3170E-04     4.8106E-04    -2.2059E+01
MG BCs: +ve charge blocks (gridpoints):     31291 (   17380221).
MG BCs: -ve charge blocks (gridpoints):      8343 (    1117569).
MG BCs:     Elided blocks (gridpoints):    169342 (  177798675).
MG BCs: Computational effort saved:  99.9798%.
MG BCs: Charge after coarse-graining:           -9.0009827.
MG DL_MG: Calling solver with defect correction order = 8
MG DL_MG: Solver finished
MG Hartree energy from (\int phi*rho dr):              1441.488031
MG Hartree energy from (\int eps (grad phi)^2 dr):     1440.838384
MG Discrepancy due to finite box and discretization:     -0.649647 (  -0.04507%)
MG Correction to account for finite box:                  0.474013
MG Remaining discrepancy, due to discretization:         -0.175634 (  -0.01218%)
      ideal mu1:      -0.771056268144
             Q0:  -11592.978023206000
             G0:      -1.985973836663
   RMS gradient:       0.000213925026
MG BCs: +ve charge blocks (gridpoints):     31295 (   17379637).
MG BCs: -ve charge blocks (gridpoints):      8350 (    1118707).
MG BCs:     Elided blocks (gridpoints):    169339 (  177798121).
MG BCs: Computational effort saved:  99.9798%.
MG BCs: Charge after coarse-graining:           -9.0009823.
MG DL_MG: Calling solver with defect correction order = 8
MG DL_MG: Solver finished
MG Hartree energy from (\int phi*rho dr):              1439.282613
MG Hartree energy from (\int eps (grad phi)^2 dr):     1438.633527
MG Discrepancy due to finite box and discretization:     -0.649085 (  -0.04510%)
MG Correction to account for finite box:                  0.473662
MG Remaining discrepancy, due to discretization:         -0.175423 (  -0.01219%)
     Trial step:       0.435130527860
             Q1:  -11593.488849224872
 Quadratic coef:       0.353331824990
 Linear coef   :      -0.864157843862
           Qmin:  -11593.506399597745
Quadratic minimum step length (  0.532108109373) accepted
    Initial Ne1:    7233.99990203
      Final Ne1:    7234.00000000

=================== Penalty functional idempotency correction ==================
 RMS occupancy error at iteration   1:  0.000672 (step -0.4965 Ne1=   7234.0000)
 RMS occupancy error at iteration   2:  0.000004 (step -0.5000 Ne1=   7234.0000)
            Final RMS occupancy error   :  0.000000 (Ne1=   7234.0000)
               Final occupancy bounds   : [  0.0000,  1.0000]
================================================================================

    3        -1.159297802321E+04     2.1393E-04     1.9355E-04    -3.0532E+00
MG BCs: +ve charge blocks (gridpoints):     31296 (   17379539).
MG BCs: -ve charge blocks (gridpoints):      8352 (    1118992).
MG BCs:     Elided blocks (gridpoints):    169338 (  177797934).
MG BCs: Computational effort saved:  99.9798%.
MG BCs: Charge after coarse-graining:           -9.0009821.
MG DL_MG: Calling solver with defect correction order = 8
MG DL_MG: Solver finished
MG Hartree energy from (\int phi*rho dr):              1438.800900
MG Hartree energy from (\int eps (grad phi)^2 dr):     1438.151928
MG Discrepancy due to finite box and discretization:     -0.648972 (  -0.04511%)
MG Correction to account for finite box:                  0.473585
MG Remaining discrepancy, due to discretization:         -0.175387 (  -0.01219%)
      ideal mu1:      -0.772069991763
             Q0:  -11593.511496519088
             G0:      -0.535226165323
   RMS gradient:       0.000111186374
MG BCs: +ve charge blocks (gridpoints):     31294 (   17380638).
MG BCs: -ve charge blocks (gridpoints):      8350 (    1118669).
MG BCs:     Elided blocks (gridpoints):    169340 (  177797158).
MG BCs: Computational effort saved:  99.9798%.
MG BCs: Charge after coarse-graining:           -9.0009824.
MG DL_MG: Calling solver with defect correction order = 8
MG DL_MG: Solver finished
MG Hartree energy from (\int phi*rho dr):              1440.083725
MG Hartree energy from (\int eps (grad phi)^2 dr):     1439.434913
MG Discrepancy due to finite box and discretization:     -0.648812 (  -0.04505%)
MG Correction to account for finite box:                  0.473327
MG Remaining discrepancy, due to discretization:         -0.175485 (  -0.01219%)
     Trial step:       0.481182379675
             Q1:  -11593.648552643601
 Quadratic coef:       0.120485275382
 Linear coef   :      -0.257541399895
           Qmin:  -11593.649122408329
Quadratic minimum step length (  0.514271902826) accepted
    Initial Ne1:    7233.99997439
      Final Ne1:    7234.00000000

=================== Penalty functional idempotency correction ==================
 RMS occupancy error at iteration   1:  0.000341 (step -0.4935 Ne1=   7234.0000)
 RMS occupancy error at iteration   2:  0.000004 (step -0.5000 Ne1=   7234.0000)
            Final RMS occupancy error   :  0.000000 (Ne1=   7234.0000)
               Final occupancy bounds   : [  0.0000,  1.0000]
================================================================================

    4        -1.159351149652E+04     1.1119E-04     1.0060E-04    -5.3347E-01
MG BCs: +ve charge blocks (gridpoints):     31293 (   17380750).
MG BCs: -ve charge blocks (gridpoints):      8350 (    1118614).
MG BCs:     Elided blocks (gridpoints):    169341 (  177797101).
MG BCs: Computational effort saved:  99.9798%.
MG BCs: Charge after coarse-graining:           -9.0009824.
MG DL_MG: Calling solver with defect correction order = 8
MG DL_MG: Solver finished
MG Hartree energy from (\int phi*rho dr):              1440.172795
MG Hartree energy from (\int eps (grad phi)^2 dr):     1439.523993
MG Discrepancy due to finite box and discretization:     -0.648802 (  -0.04505%)
MG Correction to account for finite box:                  0.473309
MG Remaining discrepancy, due to discretization:         -0.175492 (  -0.01219%)
      ideal mu1:      -0.772339143468
             Q0:  -11593.649800580810
             G0:      -0.225749492512
   RMS gradient:       0.000072430617
MG BCs: +ve charge blocks (gridpoints):     31291 (   17380968).
MG BCs: -ve charge blocks (gridpoints):      8352 (    1118413).
MG BCs:     Elided blocks (gridpoints):    169343 (  177797084).
MG BCs: Computational effort saved:  99.9798%.
MG BCs: Charge after coarse-graining:           -9.0009824.
MG DL_MG: Calling solver with defect correction order = 8
MG DL_MG: Solver finished
MG Hartree energy from (\int phi*rho dr):              1440.579661
MG Hartree energy from (\int eps (grad phi)^2 dr):     1439.930816
MG Discrepancy due to finite box and discretization:     -0.648846 (  -0.04504%)
MG Correction to account for finite box:                  0.473188
MG Remaining discrepancy, due to discretization:         -0.175658 (  -0.01219%)
     Trial step:       0.497452086137
             Q1:  -11593.725680588977
 Quadratic coef:       0.036419547827
 Linear coef   :      -0.112299555995
           Qmin:  -11593.736369408740
Quadratic minimum step length (  0.766945936113) accepted
    Initial Ne1:    7233.99998282
      Final Ne1:    7234.00000000

=================== Penalty functional idempotency correction ==================
 RMS occupancy error at iteration   1:  0.000776 (step -0.4610 Ne1=   7234.0000)
 RMS occupancy error at iteration   2:  0.000020 (step -0.5001 Ne1=   7234.0000)
            Final RMS occupancy error   :  0.000000 (Ne1=   7234.0000)
               Final occupancy bounds   : [  0.0000,  1.0000]
================================================================================

    5        -1.159364980058E+04     7.2431E-05     6.5532E-05    -1.3830E-01
MG BCs: +ve charge blocks (gridpoints):     31290 (   17381011).
MG BCs: -ve charge blocks (gridpoints):      8352 (    1118306).
MG BCs:     Elided blocks (gridpoints):    169344 (  177797148).
MG BCs: Computational effort saved:  99.9798%.
MG BCs: Charge after coarse-graining:           -9.0009824.
MG DL_MG: Calling solver with defect correction order = 8
MG DL_MG: Solver finished
MG Hartree energy from (\int phi*rho dr):              1440.799409
MG Hartree energy from (\int eps (grad phi)^2 dr):     1440.150537
MG Discrepancy due to finite box and discretization:     -0.648872 (  -0.04504%)
MG Correction to account for finite box:                  0.473125
MG Remaining discrepancy, due to discretization:         -0.175748 (  -0.01220%)
      ideal mu1:      -0.772286292075
             Q0:  -11593.734482303727
             G0:      -0.247167646870
   RMS gradient:       0.000077003443
MG BCs: +ve charge blocks (gridpoints):     31290 (   17380211).
MG BCs: -ve charge blocks (gridpoints):      8353 (    1118718).
MG BCs:     Elided blocks (gridpoints):    169344 (  177797536).
MG BCs: Computational effort saved:  99.9798%.
MG BCs: Charge after coarse-graining:           -9.0009822.
MG DL_MG: Calling solver with defect correction order = 8
MG DL_MG: Solver finished
MG Hartree energy from (\int phi*rho dr):              1439.208556
MG Hartree energy from (\int eps (grad phi)^2 dr):     1438.559767
MG Discrepancy due to finite box and discretization:     -0.648789 (  -0.04508%)
MG Correction to account for finite box:                  0.473055
MG Remaining discrepancy, due to discretization:         -0.175733 (  -0.01221%)
     Trial step:       0.617672126515
             Q1:  -11593.838720917935
 Quadratic coef:       0.048429951841
 Linear coef   :      -0.152668566048
           Qmin:  -11593.854798813310
Quadratic minimum step length (  0.973561961740) accepted
    Initial Ne1:    7233.99981416
      Final Ne1:    7234.00000000

=================== Penalty functional idempotency correction ==================
 RMS occupancy error at iteration   1:  0.004604 (step -0.3200 Ne1=   7234.0000)
 RMS occupancy error at iteration   2:  0.000323 (step -0.4926 Ne1=   7234.0000)
 RMS occupancy error at iteration   3:  0.000008 (step -0.5005 Ne1=   7234.0000)
            Final RMS occupancy error   :  0.000000 (Ne1=   7234.0000)
               Final occupancy bounds   : [  0.0000,  1.0000]
================================================================================

    6        -1.159373448230E+04     7.7003E-05     6.9669E-05    -8.4682E-02
MG BCs: +ve charge blocks (gridpoints):     31292 (   17379595).
MG BCs: -ve charge blocks (gridpoints):      8355 (    1119030).
MG BCs:     Elided blocks (gridpoints):    169342 (  177797840).
MG BCs: Computational effort saved:  99.9798%.
MG BCs: Charge after coarse-graining:           -9.0009822.
MG DL_MG: Calling solver with defect correction order = 8
MG DL_MG: Solver finished
MG Hartree energy from (\int phi*rho dr):              1438.326609
MG Hartree energy from (\int eps (grad phi)^2 dr):     1437.677843
MG Discrepancy due to finite box and discretization:     -0.648766 (  -0.04511%)
MG Correction to account for finite box:                  0.473038
MG Remaining discrepancy, due to discretization:         -0.175728 (  -0.01222%)
      ideal mu1:      -0.771652871594
             Q0:  -11593.841036563739
             G0:      -0.344561424445
   RMS gradient:       0.000089685798
MG BCs: +ve charge blocks (gridpoints):     31290 (   17381500).
MG BCs: -ve charge blocks (gridpoints):      8350 (    1118096).
MG BCs:     Elided blocks (gridpoints):    169344 (  177796869).
MG BCs: Computational effort saved:  99.9798%.
MG BCs: Charge after coarse-graining:           -9.0009828.
MG DL_MG: Calling solver with defect correction order = 8
MG DL_MG: Solver finished
MG Hartree energy from (\int phi*rho dr):              1440.709159
MG Hartree energy from (\int eps (grad phi)^2 dr):     1440.060594
MG Discrepancy due to finite box and discretization:     -0.648565 (  -0.04502%)
MG Correction to account for finite box:                  0.473090
MG Remaining discrepancy, due to discretization:         -0.175475 (  -0.01218%)
     Trial step:       0.775462498901
             Q1:  -11593.949225714430
 Quadratic coef:       0.159005312533
 Linear coef   :      -0.267194463225
           Qmin:  -11593.953285771078
Quadratic minimum step length (  0.651548312582) accepted
    Initial Ne1:    7233.99995438
      Final Ne1:    7234.00000000

=================== Penalty functional idempotency correction ==================
 RMS occupancy error at iteration   1:  0.000211 (step -0.4860 Ne1=   7234.0000)
 RMS occupancy error at iteration   2:  0.000002 (step -0.5000 Ne1=   7234.0000)
            Final RMS occupancy error   :  0.000000 (Ne1=   7234.0000)
               Final occupancy bounds   : [  0.0000,  1.0000]
================================================================================

    7        -1.159384103656E+04     8.9686E-05     8.1144E-05    -1.0655E-01
MG BCs: +ve charge blocks (gridpoints):     31290 (   17381140).
MG BCs: -ve charge blocks (gridpoints):      8349 (    1118276).
MG BCs:     Elided blocks (gridpoints):    169344 (  177797049).
MG BCs: Computational effort saved:  99.9798%.
MG BCs: Charge after coarse-graining:           -9.0009827.
MG DL_MG: Calling solver with defect correction order = 8
MG DL_MG: Solver finished
MG Hartree energy from (\int phi*rho dr):              1440.326805
MG Hartree energy from (\int eps (grad phi)^2 dr):     1439.678208
MG Discrepancy due to finite box and discretization:     -0.648596 (  -0.04503%)
MG Correction to account for finite box:                  0.473081
MG Remaining discrepancy, due to discretization:         -0.175515 (  -0.01219%)
      ideal mu1:      -0.772735354795
             Q0:  -11593.953500102623
             G0:      -0.235395184025
   RMS gradient:       0.000074102632
MG BCs: +ve charge blocks (gridpoints):     31295 (   17381006).
MG BCs: -ve charge blocks (gridpoints):      8350 (    1118285).
MG BCs:     Elided blocks (gridpoints):    169339 (  177797174).
MG BCs: Computational effort saved:  99.9798%.
MG BCs: Charge after coarse-graining:           -9.0009826.
MG DL_MG: Calling solver with defect correction order = 8
MG DL_MG: Solver finished
MG Hartree energy from (\int phi*rho dr):              1440.201552
MG Hartree energy from (\int eps (grad phi)^2 dr):     1439.552921
MG Discrepancy due to finite box and discretization:     -0.648631 (  -0.04504%)
MG Correction to account for finite box:                  0.473247
MG Remaining discrepancy, due to discretization:         -0.175385 (  -0.01218%)
     Trial step:       0.710810300031
             Q1:  -11594.036273578764
 Quadratic coef:       0.084547845241
 Linear coef   :      -0.167321321382
           Qmin:  -11594.036282888244
Quadratic minimum step length (  0.703351565697) accepted
    Initial Ne1:    7233.99996597
      Final Ne1:    7234.00000000

=================== Penalty functional idempotency correction ==================
 RMS occupancy error at iteration   1:  0.000921 (step -0.4449 Ne1=   7234.0000)
 RMS occupancy error at iteration   2:  0.000025 (step -0.4991 Ne1=   7234.0000)
            Final RMS occupancy error   :  0.000000 (Ne1=   7234.0000)
               Final occupancy bounds   : [ -0.0000,  1.0000]
================================================================================

    8        -1.159395350010E+04     7.4103E-05     6.7045E-05    -1.1246E-01
MG BCs: +ve charge blocks (gridpoints):     31295 (   17381002).
MG BCs: -ve charge blocks (gridpoints):      8350 (    1118281).
MG BCs:     Elided blocks (gridpoints):    169339 (  177797182).
MG BCs: Computational effort saved:  99.9798%.
MG BCs: Charge after coarse-graining:           -9.0009826.
MG DL_MG: Calling solver with defect correction order = 8
MG DL_MG: Solver finished
MG Hartree energy from (\int phi*rho dr):              1440.203889
MG Hartree energy from (\int eps (grad phi)^2 dr):     1439.555257
MG Discrepancy due to finite box and discretization:     -0.648632 (  -0.04504%)
MG Correction to account for finite box:                  0.473246
MG Remaining discrepancy, due to discretization:         -0.175386 (  -0.01218%)
      ideal mu1:      -0.772363002555
             Q0:  -11594.036883162567
             G0:      -0.158523949826
   RMS gradient:       0.000060376993
MG BCs: +ve charge blocks (gridpoints):     31292 (   17380428).
MG BCs: -ve charge blocks (gridpoints):      8346 (    1118596).
MG BCs:     Elided blocks (gridpoints):    169342 (  177797441).
MG BCs: Computational effort saved:  99.9798%.
MG BCs: Charge after coarse-graining:           -9.0009825.
MG DL_MG: Calling solver with defect correction order = 8
MG DL_MG: Solver finished
MG Hartree energy from (\int phi*rho dr):              1439.278521
MG Hartree energy from (\int eps (grad phi)^2 dr):     1438.629872
MG Discrepancy due to finite box and discretization:     -0.648649 (  -0.04507%)
MG Correction to account for finite box:                  0.473287
MG Remaining discrepancy, due to discretization:         -0.175361 (  -0.01218%)
     Trial step:       0.707071097868
             Q1:  -11594.095312624821
 Quadratic coef:       0.053658240988
 Linear coef   :      -0.112087703242
           Qmin:  -11594.095418687524
Quadratic minimum step length (  0.738507020820) accepted
    Initial Ne1:    7234.00028629
      Final Ne1:    7234.00000000

=================== Penalty functional idempotency correction ==================
 RMS occupancy error at iteration   1:  0.001726 (step -0.4110 Ne1=   7234.0000)
 RMS occupancy error at iteration   2:  0.000060 (step -0.4984 Ne1=   7234.0000)
 RMS occupancy error at iteration   3:  0.000000 (step -0.5000 Ne1=   7234.0000)
            Final RMS occupancy error   :  0.000000 (Ne1=   7234.0000)
               Final occupancy bounds   : [  0.0000,  1.0000]
================================================================================

    9        -1.159403688316E+04     6.0377E-05     5.4626E-05    -8.3383E-02
MG BCs: +ve charge blocks (gridpoints):     31292 (   17380392).
MG BCs: -ve charge blocks (gridpoints):      8347 (    1118595).
MG BCs:     Elided blocks (gridpoints):    169342 (  177797478).
MG BCs: Computational effort saved:  99.9798%.
MG BCs: Charge after coarse-graining:           -9.0009825.
MG DL_MG: Calling solver with defect correction order = 8
MG DL_MG: Solver finished
MG Hartree energy from (\int phi*rho dr):              1439.239945
MG Hartree energy from (\int eps (grad phi)^2 dr):     1438.591286
MG Discrepancy due to finite box and discretization:     -0.648659 (  -0.04507%)
MG Correction to account for finite box:                  0.473299
MG Remaining discrepancy, due to discretization:         -0.175360 (  -0.01218%)
      ideal mu1:      -0.771579119185
   10        -1.159409726175E+04     5.1394E-05     4.6499E-05    -6.0379E-02
Finished density kernel iterations (  10)

Writing density kernel to file "complex_13401.vacuum_dkn" ... done


>>> Density kernel optimised for the current NGWF basis:
     ~~~~~~~~~~~~~~~~~~~~~~~~~~~~~~~~~~~~~~~~~~~~~~~~~~~~~~~~~~~
     Total energy                =  -1.15940972617541E+04  Eh
     Estimated bandgap           =  -4.9614E-01  Eh
     RMS occupancy error         =   1.2070E-11
     [H,K] commutator            =   4.6499E-05
     Occupancy bounds            = [  0.000:  1.000]
     ~~~~~~~~~~~~~~~~~~~~~~~~~~~~~~~~~~~~~~~~~~~~~~~~~~~~~~~~~~~




################################################################################
########################### NGWF CG iteration  001 #############################
################################################################################
****** Reciprocal space K.E. preconditioning with k_zero =  3.5000 a0^-1 *******

>>> Checking for convergence of NGWFs:   NOT CONVERGED
  ========================================================================
         NGWF RMS gradient =  1.5627E-03 >  2.0000E-06  | above tolerance
  ========================================================================

>>> Improving NGWFs using line search:
============ Calculation of NGWF S^-1 using Hotelling algorithm ================ 
         Iteration  |  Frobenius norm and Maximum abs value    (of I-S*S_n^-1)   
               1       0.19258499E+00     0.51657622E-02
               2       0.85850827E-03     0.40156019E-04
               3       0.29711593E-07     0.24492021E-08
               4       0.13664632E-12     0.57731597E-14
================================================================================
MG BCs: +ve charge blocks (gridpoints):     30784 (   17326257).
MG BCs: -ve charge blocks (gridpoints):      8367 (    1118414).
MG BCs:     Elided blocks (gridpoints):    169852 (  177851794).
MG BCs: Computational effort saved:  99.9801%.
MG BCs: Charge after coarse-graining:           -9.0009855.
MG DL_MG: Calling solver with defect correction order = 8
MG DL_MG: Solver finished
MG Hartree energy from (\int phi*rho dr):              1407.763662
MG Hartree energy from (\int eps (grad phi)^2 dr):     1407.115762
MG Discrepancy due to finite box and discretization:     -0.647900 (  -0.04602%)
MG Correction to account for finite box:                  0.473237
MG Remaining discrepancy, due to discretization:         -0.174663 (  -0.01241%)
============ Calculation of NGWF S^-1 using Hotelling algorithm ================ 
         Iteration  |  Frobenius norm and Maximum abs value    (of I-S*S_n^-1)   
               1       0.18539098E+01     0.41909127E-01
               2       0.71346480E-01     0.24105150E-02
               3       0.14457622E-03     0.89666115E-05
               4       0.11660844E-08     0.12865775E-09
               5       0.11576956E-12     0.53290705E-14
================================================================================
------------------------------- NGWF line search -------------------------------
RMS gradient                =       0.00156268907512
Trial step length           =               0.122474
Gradient along search dir.  =       -271.22845445998
Functional at step 0        =  -11594.09726175409742
Functional at step 1        =  -11624.82650457171258
Functional predicted        =  -11704.91786437743031
Selected quadratic step     =               0.817175
--------------------------- NGWF line search finished --------------------------
                                               
Writing NGWFs to file "complex_13401.vacuum_tightbox_ngwfs"....  done

>>> Optimising kernel for current NGWFs:
   Initial electron number for spin 1:    7268.47754604
     Final electron number for spin 1:    7234.00000000

=================== Penalty functional idempotency correction ==================
 RMS occupancy error at iteration   1:  0.004242 (step -0.4863 Ne1=   7234.0000)
 RMS occupancy error at iteration   2:  0.000068 (step -0.5003 Ne1=   7234.0000)
            Final RMS occupancy error   :  0.000000 (Ne1=   7234.0000)
               Final occupancy bounds   : [  0.0000,  1.0000]
================================================================================

................................................................................
<<<<<<<<<<<<<< LNV (Original version) density kernel optimisation >>>>>>>>>>>>>>
~~~~~~~~~~~~~~~~~~~~~~~~~~~~~~~~~~~~~~~~~~~~~~~~~~~~~~~~~~~~~~~~~~~~~~~~~~~~~~~~
   iter  |      energy (Eh)       | rms gradient |  commutator  |   dE (Eh)
MG BCs: +ve charge blocks (gridpoints):     24791 (   17058264).
MG BCs: -ve charge blocks (gridpoints):      8503 (    1102161).
MG BCs:     Elided blocks (gridpoints):    175849 (  178136040).
MG BCs: Computational effort saved:  99.9830%.
MG BCs: Charge after coarse-graining:           -9.0006561.
MG DL_MG: Calling solver with defect correction order = 8
MG DL_MG: Solver finished
MG Hartree energy from (\int phi*rho dr):              1251.694499
MG Hartree energy from (\int eps (grad phi)^2 dr):     1251.046468
MG Discrepancy due to finite box and discretization:     -0.648031 (  -0.05177%)
MG Correction to account for finite box:                  0.472965
MG Remaining discrepancy, due to discretization:         -0.175065 (  -0.01399%)
      ideal mu1:      -0.711540765594
             Q0:  -11704.097819865448
             G0:     -10.141743893107
   RMS gradient:       0.000486571502
MG BCs: +ve charge blocks (gridpoints):     24874 (   17072285).
MG BCs: -ve charge blocks (gridpoints):      8486 (    1098735).
MG BCs:     Elided blocks (gridpoints):    175766 (  178125445).
MG BCs: Computational effort saved:  99.9830%.
MG BCs: Charge after coarse-graining:           -9.0006524.
MG DL_MG: Calling solver with defect correction order = 8
MG DL_MG: Solver finished
MG Hartree energy from (\int phi*rho dr):              1267.430199
MG Hartree energy from (\int eps (grad phi)^2 dr):     1266.777587
MG Discrepancy due to finite box and discretization:     -0.652612 (  -0.05149%)
MG Correction to account for finite box:                  0.471681
MG Remaining discrepancy, due to discretization:         -0.180930 (  -0.01428%)
     Trial step:       0.722618135666
             Q1:  -11703.379302330897
 Quadratic coef:       8.047125598994
 Linear coef   :      -7.328608064443
           Qmin:  -11705.766381375441
Quadratic minimum step length (  0.329048244085) accepted
    Initial Ne1:    7233.99962070
      Final Ne1:    7234.00000000

=================== Penalty functional idempotency correction ==================
 RMS occupancy error at iteration   1:  0.000361 (step -0.4986 Ne1=   7234.0000)
 RMS occupancy error at iteration   2:  0.000000 (step -0.5000 Ne1=   7234.0000)
            Final RMS occupancy error   :  0.000000 (Ne1=   7234.0000)
               Final occupancy bounds   : [  0.0000,  1.0000]
================================================================================

    1        -1.170409781987E+04     4.8657E-04     4.4023E-04
MG BCs: +ve charge blocks (gridpoints):     24824 (   17064772).
MG BCs: -ve charge blocks (gridpoints):      8492 (    1100616).
MG BCs:     Elided blocks (gridpoints):    175816 (  178131077).
MG BCs: Computational effort saved:  99.9830%.
MG BCs: Charge after coarse-graining:           -9.0006543.
MG DL_MG: Calling solver with defect correction order = 8
MG DL_MG: Solver finished
MG Hartree energy from (\int phi*rho dr):              1257.878108
MG Hartree energy from (\int eps (grad phi)^2 dr):     1257.228108
MG Discrepancy due to finite box and discretization:     -0.650000 (  -0.05167%)
MG Correction to account for finite box:                  0.472341
MG Remaining discrepancy, due to discretization:         -0.177659 (  -0.01412%)
      ideal mu1:      -0.718188705070
             Q0:  -11705.740471022087
             G0:      -1.006760740241
   RMS gradient:       0.000153964689
MG BCs: +ve charge blocks (gridpoints):     24829 (   17064337).
MG BCs: -ve charge blocks (gridpoints):      8494 (    1101476).
MG BCs:     Elided blocks (gridpoints):    175811 (  178130652).
MG BCs: Computational effort saved:  99.9830%.
MG BCs: Charge after coarse-graining:           -9.0006543.
MG DL_MG: Calling solver with defect correction order = 8
MG DL_MG: Solver finished
MG Hartree energy from (\int phi*rho dr):              1259.012163
MG Hartree energy from (\int eps (grad phi)^2 dr):     1258.362028
MG Discrepancy due to finite box and discretization:     -0.650135 (  -0.05164%)
MG Correction to account for finite box:                  0.472109
MG Remaining discrepancy, due to discretization:         -0.178026 (  -0.01414%)
     Trial step:       0.487623039534
             Q1:  -11705.951957443147
 Quadratic coef:       0.279433311180
 Linear coef   :      -0.490919732240
           Qmin:  -11705.956087927678
Quadratic minimum step length (  0.428337929705) accepted
    Initial Ne1:    7233.99995055
      Final Ne1:    7234.00000000

=================== Penalty functional idempotency correction ==================
 RMS occupancy error at iteration   1:  0.000150 (step -0.4992 Ne1=   7234.0000)
 RMS occupancy error at iteration   2:  0.000000 (step -0.5000 Ne1=   7234.0000)
            Final RMS occupancy error   :  0.000000 (Ne1=   7234.0000)
               Final occupancy bounds   : [  0.0000,  1.0000]
================================================================================

    2        -1.170574047102E+04     1.5396E-04     1.3930E-04    -1.6427E+00
MG BCs: +ve charge blocks (gridpoints):     24829 (   17064387).
MG BCs: -ve charge blocks (gridpoints):      8495 (    1101395).
MG BCs:     Elided blocks (gridpoints):    175811 (  178130683).
MG BCs: Computational effort saved:  99.9830%.
MG BCs: Charge after coarse-graining:           -9.0006543.
MG DL_MG: Calling solver with defect correction order = 8
MG DL_MG: Solver finished
MG Hartree energy from (\int phi*rho dr):              1258.874218
MG Hartree energy from (\int eps (grad phi)^2 dr):     1258.224100
MG Discrepancy due to finite box and discretization:     -0.650118 (  -0.05164%)
MG Correction to account for finite box:                  0.472138
MG Remaining discrepancy, due to discretization:         -0.177980 (  -0.01414%)
      ideal mu1:      -0.719262088564
             Q0:  -11705.956551583717
             G0:      -0.175209394452
   RMS gradient:       0.000063885572
MG BCs: +ve charge blocks (gridpoints):     24831 (   17063878).
MG BCs: -ve charge blocks (gridpoints):      8494 (    1101754).
MG BCs:     Elided blocks (gridpoints):    175809 (  178130833).
MG BCs: Computational effort saved:  99.9830%.
MG BCs: Charge after coarse-graining:           -9.0006543.
MG DL_MG: Calling solver with defect correction order = 8
MG DL_MG: Solver finished
MG Hartree energy from (\int phi*rho dr):              1258.438757
MG Hartree energy from (\int eps (grad phi)^2 dr):     1257.788880
MG Discrepancy due to finite box and discretization:     -0.649877 (  -0.05164%)
MG Correction to account for finite box:                  0.471912
MG Remaining discrepancy, due to discretization:         -0.177965 (  -0.01414%)
     Trial step:       0.457020178144
             Q1:  -11706.012750861235
 Quadratic coef:       0.023874951146
 Linear coef   :      -0.080074228665
           Qmin:  -11706.023691847764
Quadratic minimum step length (  0.766400275019) accepted
    Initial Ne1:    7233.99998476
      Final Ne1:    7234.00000000

=================== Penalty functional idempotency correction ==================
 RMS occupancy error at iteration   1:  0.000184 (step -0.4920 Ne1=   7234.0000)
 RMS occupancy error at iteration   2:  0.000002 (step -0.5000 Ne1=   7234.0000)
            Final RMS occupancy error   :  0.000000 (Ne1=   7234.0000)
               Final occupancy bounds   : [  0.0000,  1.0000]
================================================================================

    3        -1.170595655158E+04     6.3886E-05     5.7801E-05    -2.1608E-01
MG BCs: +ve charge blocks (gridpoints):     24833 (   17063517).
MG BCs: -ve charge blocks (gridpoints):      8494 (    1102035).
MG BCs:     Elided blocks (gridpoints):    175807 (  178130913).
MG BCs: Computational effort saved:  99.9830%.
MG BCs: Charge after coarse-graining:           -9.0006543.
MG DL_MG: Calling solver with defect correction order = 8
MG DL_MG: Solver finished
MG Hartree energy from (\int phi*rho dr):              1258.144069
MG Hartree energy from (\int eps (grad phi)^2 dr):     1257.494357
MG Discrepancy due to finite box and discretization:     -0.649712 (  -0.05164%)
MG Correction to account for finite box:                  0.471757
MG Remaining discrepancy, due to discretization:         -0.177955 (  -0.01414%)
      ideal mu1:      -0.718566076639
             Q0:  -11706.023706130218
             G0:      -0.080406954586
   RMS gradient:       0.000043304747
MG BCs: +ve charge blocks (gridpoints):     24834 (   17063337).
MG BCs: -ve charge blocks (gridpoints):      8496 (    1102022).
MG BCs:     Elided blocks (gridpoints):    175806 (  178131106).
MG BCs: Computational effort saved:  99.9830%.
MG BCs: Charge after coarse-graining:           -9.0006544.
MG DL_MG: Calling solver with defect correction order = 8
MG DL_MG: Solver finished
MG Hartree energy from (\int phi*rho dr):              1258.090241
MG Hartree energy from (\int eps (grad phi)^2 dr):     1257.440922
MG Discrepancy due to finite box and discretization:     -0.649318 (  -0.05161%)
MG Correction to account for finite box:                  0.471499
MG Remaining discrepancy, due to discretization:         -0.177819 (  -0.01413%)
     Trial step:       0.591828007295
             Q1:  -11706.053807409480
 Quadratic coef:       0.017485808443
 Linear coef   :      -0.047587087705
           Qmin:  -11706.056082827636
Quadratic minimum step length (  0.805320822931) accepted
    Initial Ne1:    7233.99999226
      Final Ne1:    7234.00000000

=================== Penalty functional idempotency correction ==================
 RMS occupancy error at iteration   1:  0.000397 (step -0.4772 Ne1=   7234.0000)
 RMS occupancy error at iteration   2:  0.000004 (step -0.5000 Ne1=   7234.0000)
            Final RMS occupancy error   :  0.000000 (Ne1=   7234.0000)
               Final occupancy bounds   : [  0.0000,  1.0000]
================================================================================

    4        -1.170602370613E+04     4.3305E-05     3.9180E-05    -6.7155E-02
MG BCs: +ve charge blocks (gridpoints):     24835 (   17063270).
MG BCs: -ve charge blocks (gridpoints):      8499 (    1102038).
MG BCs:     Elided blocks (gridpoints):    175805 (  178131157).
MG BCs: Computational effort saved:  99.9830%.
MG BCs: Charge after coarse-graining:           -9.0006544.
MG DL_MG: Calling solver with defect correction order = 8
MG DL_MG: Solver finished
MG Hartree energy from (\int phi*rho dr):              1258.072671
MG Hartree energy from (\int eps (grad phi)^2 dr):     1257.423496
MG Discrepancy due to finite box and discretization:     -0.649175 (  -0.05160%)
MG Correction to account for finite box:                  0.471405
MG Remaining discrepancy, due to discretization:         -0.177770 (  -0.01413%)
      ideal mu1:      -0.719091400177
             Q0:  -11706.055866500014
             G0:      -0.089699605057
   RMS gradient:       0.000045885835
MG BCs: +ve charge blocks (gridpoints):     24834 (   17064620).
MG BCs: -ve charge blocks (gridpoints):      8495 (    1101607).
MG BCs:     Elided blocks (gridpoints):    175806 (  178130238).
MG BCs: Computational effort saved:  99.9830%.
MG BCs: Charge after coarse-graining:           -9.0006541.
MG DL_MG: Calling solver with defect correction order = 8
MG DL_MG: Solver finished
MG Hartree energy from (\int phi*rho dr):              1258.999961
MG Hartree energy from (\int eps (grad phi)^2 dr):     1258.351448
MG Discrepancy due to finite box and discretization:     -0.648513 (  -0.05151%)
MG Correction to account for finite box:                  0.470841
MG Remaining discrepancy, due to discretization:         -0.177672 (  -0.01411%)
     Trial step:       0.690370493191
             Q1:  -11706.093246065080
 Quadratic coef:       0.024546395516
 Linear coef   :      -0.061925960582
           Qmin:  -11706.094923401377
Quadratic minimum step length (  0.870837755394) accepted
    Initial Ne1:    7233.99998839
      Final Ne1:    7234.00000000

=================== Penalty functional idempotency correction ==================
 RMS occupancy error at iteration   1:  0.001605 (step -0.4179 Ne1=   7234.0000)
 RMS occupancy error at iteration   2:  0.000040 (step -0.4993 Ne1=   7234.0000)
            Final RMS occupancy error   :  0.000000 (Ne1=   7234.0000)
               Final occupancy bounds   : [ -0.0000,  1.0000]
================================================================================

    5        -1.170605586650E+04     4.5886E-05     4.1515E-05    -3.2160E-02
MG BCs: +ve charge blocks (gridpoints):     24834 (   17065010).
MG BCs: -ve charge blocks (gridpoints):      8495 (    1101480).
MG BCs:     Elided blocks (gridpoints):    175806 (  178129975).
MG BCs: Computational effort saved:  99.9830%.
MG BCs: Charge after coarse-graining:           -9.0006540.
MG DL_MG: Calling solver with defect correction order = 8
MG DL_MG: Solver finished
MG Hartree energy from (\int phi*rho dr):              1259.245696
MG Hartree energy from (\int eps (grad phi)^2 dr):     1258.597332
MG Discrepancy due to finite box and discretization:     -0.648364 (  -0.05149%)
MG Correction to account for finite box:                  0.470718
MG Remaining discrepancy, due to discretization:         -0.177646 (  -0.01411%)
      ideal mu1:      -0.720791677191
             Q0:  -11706.094592286507
             G0:      -0.085549694331
   RMS gradient:       0.000044172168
MG BCs: +ve charge blocks (gridpoints):     24833 (   17065140).
MG BCs: -ve charge blocks (gridpoints):      8492 (    1101620).
MG BCs:     Elided blocks (gridpoints):    175807 (  178129705).
MG BCs: Computational effort saved:  99.9830%.
MG BCs: Charge after coarse-graining:           -9.0006539.
MG DL_MG: Calling solver with defect correction order = 8
MG DL_MG: Solver finished
MG Hartree energy from (\int phi*rho dr):              1259.057570
MG Hartree energy from (\int eps (grad phi)^2 dr):     1258.409741
MG Discrepancy due to finite box and discretization:     -0.647829 (  -0.05145%)
MG Correction to account for finite box:                  0.470150
MG Remaining discrepancy, due to discretization:         -0.177679 (  -0.01411%)
     Trial step:       0.775371324386
             Q1:  -11706.129622339853
 Quadratic coef:       0.031302726447
 Linear coef   :      -0.066332779794
           Qmin:  -11706.129733296370
Quadratic minimum step length (  0.821534434160) accepted
    Initial Ne1:    7234.00049299
      Final Ne1:    7234.00000000

=================== Penalty functional idempotency correction ==================
 RMS occupancy error at iteration   1:  0.002930 (step -0.3692 Ne1=   7234.0000)
 RMS occupancy error at iteration   2:  0.000102 (step -0.4976 Ne1=   7234.0000)
 RMS occupancy error at iteration   3:  0.000001 (step -0.5000 Ne1=   7234.0000)
            Final RMS occupancy error   :  0.000000 (Ne1=   7234.0000)
               Final occupancy bounds   : [  0.0000,  1.0000]
================================================================================

    6        -1.170609459229E+04     4.4172E-05     3.9965E-05    -3.8726E-02
MG BCs: +ve charge blocks (gridpoints):     24833 (   17065173).
MG BCs: -ve charge blocks (gridpoints):      8492 (    1101623).
MG BCs:     Elided blocks (gridpoints):    175807 (  178129669).
MG BCs: Computational effort saved:  99.9830%.
MG BCs: Charge after coarse-graining:           -9.0006539.
MG DL_MG: Calling solver with defect correction order = 8
MG DL_MG: Solver finished
MG Hartree energy from (\int phi*rho dr):              1259.046342
MG Hartree energy from (\int eps (grad phi)^2 dr):     1258.398542
MG Discrepancy due to finite box and discretization:     -0.647799 (  -0.05145%)
MG Correction to account for finite box:                  0.470118
MG Remaining discrepancy, due to discretization:         -0.177681 (  -0.01411%)
      ideal mu1:      -0.721132908084
             Q0:  -11706.131707243505
             G0:      -0.058742063895
   RMS gradient:       0.000037030958
MG BCs: +ve charge blocks (gridpoints):     24831 (   17063086).
MG BCs: -ve charge blocks (gridpoints):      8496 (    1102190).
MG BCs:     Elided blocks (gridpoints):    175809 (  178131189).
MG BCs: Computational effort saved:  99.9830%.
MG BCs: Charge after coarse-graining:           -9.0006544.
MG DL_MG: Calling solver with defect correction order = 8
MG DL_MG: Solver finished
MG Hartree energy from (\int phi*rho dr):              1257.972822
MG Hartree energy from (\int eps (grad phi)^2 dr):     1257.324960
MG Discrepancy due to finite box and discretization:     -0.647862 (  -0.05150%)
MG Correction to account for finite box:                  0.470129
MG Remaining discrepancy, due to discretization:         -0.177734 (  -0.01413%)
     Trial step:       0.798119190499
             Q1:  -11706.147434732178
 Quadratic coef:       0.031155679811
 Linear coef   :      -0.046883168484
           Qmin:  -11706.149344729674
Quadratic minimum step length (  0.600506179053) accepted
    Initial Ne1:    7233.99999987
      Final Ne1:    7234.00000000

=================== Penalty functional idempotency correction ==================
 RMS occupancy error at iteration   1:  0.000022 (step -0.4988 Ne1=   7234.0000)
            Final RMS occupancy error   :  0.000000 (Ne1=   7234.0000)
               Final occupancy bounds   : [ -0.0000,  1.0000]
================================================================================

    7        -1.170613170724E+04     3.7031E-05     3.3504E-05    -3.7115E-02
MG BCs: +ve charge blocks (gridpoints):     24831 (   17063593).
MG BCs: -ve charge blocks (gridpoints):      8497 (    1102034).
MG BCs:     Elided blocks (gridpoints):    175809 (  178130838).
MG BCs: Computational effort saved:  99.9830%.
MG BCs: Charge after coarse-graining:           -9.0006543.
MG DL_MG: Calling solver with defect correction order = 8
MG DL_MG: Solver finished
MG Hartree energy from (\int phi*rho dr):              1258.237020
MG Hartree energy from (\int eps (grad phi)^2 dr):     1257.589173
MG Discrepancy due to finite box and discretization:     -0.647847 (  -0.05149%)
MG Correction to account for finite box:                  0.470126
MG Remaining discrepancy, due to discretization:         -0.177721 (  -0.01412%)
      ideal mu1:      -0.720321937400
             Q0:  -11706.149347328930
             G0:      -0.040848431467
   RMS gradient:       0.000030876315
MG BCs: +ve charge blocks (gridpoints):     24832 (   17063625).
MG BCs: -ve charge blocks (gridpoints):      8498 (    1102000).
MG BCs:     Elided blocks (gridpoints):    175808 (  178130840).
MG BCs: Computational effort saved:  99.9830%.
MG BCs: Charge after coarse-graining:           -9.0006543.
MG DL_MG: Calling solver with defect correction order = 8
MG DL_MG: Solver finished
MG Hartree energy from (\int phi*rho dr):              1258.129590
MG Hartree energy from (\int eps (grad phi)^2 dr):     1257.481727
MG Discrepancy due to finite box and discretization:     -0.647863 (  -0.05149%)
[...]
MG Hartree energy from (\int eps (grad phi)^2 dr):     1216.329447
MG Discrepancy due to finite box and discretization:     -0.183349 (  -0.01507%)
MG Correction to account for finite box:                  0.006335
MG Remaining discrepancy, due to discretization:         -0.177013 (  -0.01455%)
     Trial step:       0.728747707405
             Q1:  -11740.647381554940
 Quadratic coef:       0.000000002463
 Linear coef   :      -0.000000007818
           Qmin:  -11740.647381555789
Quadratic minimum step length (  1.156619809496) accepted
    Initial Ne1:    7234.00000000
      Final Ne1:    7234.00000000

=================== Penalty functional idempotency correction ==================
 RMS occupancy error at iteration   1:  0.000000 (step -0.5000 Ne1=   7234.0000)
            Final RMS occupancy error   :  0.000000 (Ne1=   7234.0000)
               Final occupancy bounds   : [  0.0000,  1.0000]
================================================================================

    7        -1.174064738155E+04     1.5825E-08     1.4318E-08    -6.8685E-09

Reusing previously generated solute cavity.
MG BCs: +ve charge blocks (gridpoints):     29018 (   19264220).
MG BCs: -ve charge blocks (gridpoints):      8486 (    1069636).
MG BCs:     Elided blocks (gridpoints):    171622 (  175962609).
MG BCs: Computational effort saved:  99.9809%.
MG BCs: Charge after coarse-graining:           -9.0009552.
MG DL_MG: Calling solver with defect correction order = 8
MG DL_MG: Solver finished
MG Hartree energy from (\int phi*rho dr):              1216.512882
MG Hartree energy from (\int eps (grad phi)^2 dr):     1216.329533
MG Discrepancy due to finite box and discretization:     -0.183349 (  -0.01507%)
MG Correction to account for finite box:                  0.006335
MG Remaining discrepancy, due to discretization:         -0.177013 (  -0.01455%)
      ideal mu1:      -0.481210511927
             Q0:  -11740.647381552961
WARNING in lnv_denskernel_optimise_cg: positive line search gradient -
  resetting conjugate gradients
             G0:      -0.000000037773
   RMS gradient:       0.000000029695

Reusing previously generated solute cavity.
MG BCs: +ve charge blocks (gridpoints):     29018 (   19264214).
MG BCs: -ve charge blocks (gridpoints):      8486 (    1069637).
MG BCs:     Elided blocks (gridpoints):    171622 (  175962614).
MG BCs: Computational effort saved:  99.9809%.
MG BCs: Charge after coarse-graining:           -9.0009552.
MG DL_MG: Calling solver with defect correction order = 8
MG DL_MG: Solver finished
MG Hartree energy from (\int phi*rho dr):              1216.512547
MG Hartree energy from (\int eps (grad phi)^2 dr):     1216.329198
MG Discrepancy due to finite box and discretization:     -0.183349 (  -0.01507%)
MG Correction to account for finite box:                  0.006335
MG Remaining discrepancy, due to discretization:         -0.177013 (  -0.01455%)
     Trial step:       0.918087160628
             Q1:  -11740.647381531307
 Quadratic coef:       0.000000056332
 Linear coef   :      -0.000000034679
           Qmin:  -11740.647381558298
Quadratic minimum step length (  0.282593836721) accepted
    Initial Ne1:    7234.00000000
      Final Ne1:    7234.00000000

=================== Penalty functional idempotency correction ==================
 RMS occupancy error at iteration   1:  0.000000 (step -0.5000 Ne1=   7234.0000)
            Final RMS occupancy error   :  0.000000 (Ne1=   7234.0000)
               Final occupancy bounds   : [  0.0000,  1.0000]
================================================================================

    8        -1.174064738155E+04     2.9695E-08     2.6867E-08    -3.3760E-09

Reusing previously generated solute cavity.
MG BCs: +ve charge blocks (gridpoints):     29018 (   19264220).
MG BCs: -ve charge blocks (gridpoints):      8486 (    1069636).
MG BCs:     Elided blocks (gridpoints):    171622 (  175962609).
MG BCs: Computational effort saved:  99.9809%.
MG BCs: Charge after coarse-graining:           -9.0009552.
MG DL_MG: Calling solver with defect correction order = 8
MG DL_MG: Solver finished
MG Hartree energy from (\int phi*rho dr):              1216.512779
MG Hartree energy from (\int eps (grad phi)^2 dr):     1216.329430
MG Discrepancy due to finite box and discretization:     -0.183349 (  -0.01507%)
MG Correction to account for finite box:                  0.006335
MG Remaining discrepancy, due to discretization:         -0.177013 (  -0.01455%)
      ideal mu1:      -0.481210366419
             Q0:  -11740.647381556337
             G0:      -0.000000003036
   RMS gradient:       0.000000007797

Reusing previously generated solute cavity.
MG BCs: +ve charge blocks (gridpoints):     29018 (   19264219).
MG BCs: -ve charge blocks (gridpoints):      8486 (    1069636).
MG BCs:     Elided blocks (gridpoints):    171622 (  175962610).
MG BCs: Computational effort saved:  99.9809%.
MG BCs: Charge after coarse-graining:           -9.0009552.
MG DL_MG: Calling solver with defect correction order = 8
MG DL_MG: Solver finished
MG Hartree energy from (\int phi*rho dr):              1216.512719
MG Hartree energy from (\int eps (grad phi)^2 dr):     1216.329371
MG Discrepancy due to finite box and discretization:     -0.183349 (  -0.01507%)
MG Correction to account for finite box:                  0.006335
MG Remaining discrepancy, due to discretization:         -0.177013 (  -0.01455%)
     Trial step:       0.509358197309
             Q1:  -11740.647381556686
 Quadratic coef:       0.000000001197
 Linear coef   :      -0.000000001546
           Qmin:  -11740.647381556837
Quadratic minimum step length (  0.329006582439) accepted
    Initial Ne1:    7234.00000000
      Final Ne1:    7234.00000000

=================== Penalty functional idempotency correction ==================
 RMS occupancy error at iteration   1:  0.000000 (step -0.5000 Ne1=   7234.0000)
            Final RMS occupancy error   :  0.000000 (Ne1=   7234.0000)
               Final occupancy bounds   : [  0.0000,  1.0000]
================================================================================

    9        -1.174064738156E+04     7.7974E-09     7.0547E-09    -3.3760E-09

Reusing previously generated solute cavity.
MG BCs: +ve charge blocks (gridpoints):     29018 (   19264220).
MG BCs: -ve charge blocks (gridpoints):      8486 (    1069636).
MG BCs:     Elided blocks (gridpoints):    171622 (  175962609).
MG BCs: Computational effort saved:  99.9809%.
MG BCs: Charge after coarse-graining:           -9.0009552.
MG DL_MG: Calling solver with defect correction order = 8
MG DL_MG: Solver finished
MG Hartree energy from (\int phi*rho dr):              1216.512740
MG Hartree energy from (\int eps (grad phi)^2 dr):     1216.329392
MG Discrepancy due to finite box and discretization:     -0.183349 (  -0.01507%)
MG Correction to account for finite box:                  0.006335
MG Remaining discrepancy, due to discretization:         -0.177013 (  -0.01455%)
      ideal mu1:      -0.481210336852
   10        -1.174064738156E+04     5.9727E-09     5.4039E-09    -4.6566E-10
Finished density kernel iterations (  10)

Writing density kernel to file "complex_13401.dkn" ... done


>>> Density kernel optimised for the current NGWF basis:
     ~~~~~~~~~~~~~~~~~~~~~~~~~~~~~~~~~~~~~~~~~~~~~~~~~~~~~~~~~~~
     Total energy                =  -1.17406473815568E+04  Eh
     Estimated bandgap           =   8.4152E-02  Eh
     RMS occupancy error         =   5.4492E-16
     [H,K] commutator            =   5.4039E-09
     Occupancy bounds            = [  0.000:  1.000]
     ~~~~~~~~~~~~~~~~~~~~~~~~~~~~~~~~~~~~~~~~~~~~~~~~~~~~~~~~~~~




################################################################################
########################### NGWF CG iteration  004 #############################
################################################################################
****** Reciprocal space K.E. preconditioning with k_zero =  3.5000 a0^-1 *******

>>> Checking for convergence of NGWFs: 
           ........................................................
           |         *** NGWF optimisation converged ***          |
           | RMS NGWF gradient =    0.00000185577148              |
           | Criteria satisfied:                                  |
           | -> RMS NGWF gradient lower than set threshold.       |
           ========================================================

Reusing previously generated solute cavity.
MG BCs: +ve charge blocks (gridpoints):     29018 (   19264220).
MG BCs: -ve charge blocks (gridpoints):      8486 (    1069636).
MG BCs:     Elided blocks (gridpoints):    171622 (  175962609).
MG BCs: Computational effort saved:  99.9809%.
MG BCs: Charge after coarse-graining:           -9.0009552.
MG DL_MG: Calling solver with defect correction order = 8
MG DL_MG: Solver finished
MG Hartree energy from (\int phi*rho dr):              1216.512740
MG Hartree energy from (\int eps (grad phi)^2 dr):     1216.329392
MG Discrepancy due to finite box and discretization:     -0.183349 (  -0.01507%)
MG Correction to account for finite box:                  0.006335
MG Remaining discrepancy, due to discretization:         -0.177013 (  -0.01455%)

================================================================================
           ---------------- ENERGY COMPONENTS (Eh) ----------------
           | Kinetic                    :     8576.68438067097668 |
           | Pseudo. (local,OBC,corr'd) :    -5078.31361117342658 |
           | Pseudopotential (non-local):     1409.93939999007398 |
           | Hartree (molecular)        :     1216.51274037156577 |
           | Exchange-correlation       :    -3376.24591859729480 |
           | Ion-ion (open BC)          :   841893.77746471134014 |
           | Dispersion Correction      :       -3.32060109012860 |
           | Smeared ion non-self corr. :  -841845.35967130342033 |
           | Smeared ion self corr.     :   -14534.96330857570138 |
           | Solvent cavitation energy  :        2.28317509279903 |
           | Solute-solvent dis-rep en. :       -1.64143165359054 |
           | Total                      :   -11740.64738155688065 |
           --------------------------------------------------------
           ------ LOCAL ENERGY COMPONENTS FROM MATRIX TRACES ------
           | Pseudopotential (local)    :    -5078.31361117344022 |
           | Hartree                    :    -2001.93865781597378 |
           --------------------------------------------------------
           Integrated density           :     7233.99999999722604
           Integrated density tr(KS)    :     7234.00000000000091
================================================================================


                        <<<<< CALCULATION SUMMARY >>>>>                         
|ITER|    RMS GRADIENT   |     TOTAL ENERGY    |   step   |     Epredicted              
   0     0.00003923459010 -11740.58505778713152   0.628269 -11740.63876639519913        
   1     0.00000963653963 -11740.64683896873612   0.086840 -11740.64728680926601        
   2     0.00000419816902 -11740.64736413734499   0.015505 -11740.64737931276431        
   3     0.00000185577148 -11740.64738155680243  <-- CG                                 

=================== Finished the calculation in solvent ========================
= Adjusting the following parameters: 
= read_denskern: F
= read_tightbox_ngwfs: F
= maxit_pen: 0 (restored to user-specified value)
= restart read filename prefix: ""
= restart write filename prefix: ""
================================================================================

================================================================================
IS: Calculation in solvent completed (NGWFs converged).      

Individual components of total energy in solvent:     hartree           kcal/mol
- Usual non-electrostatic DFT terms:    -12957.80186536757719    -8131143.257145
- Electrostatic fixed charge energy:      1216.51274037156577      763373.253340
- Apolar cavitation energy:                  2.28317509279903        1432.713971
- Apolar dispersion-repulsion energy:       -1.64143165359054       -1030.013891
 -------------------------------------------------------------------------------
- Total energy in solvent:              -11740.64738155680243    -7367367.303725

Components of total energy in solvent:                hartree           kcal/mol
- Usual non-electrostatic DFT terms:    -12957.80186536757719    -8131143.257145
- Electrostatic energy:                   1216.51274037156577      763373.253340
- Apolar energy terms:                       0.64174343920849         402.700079
 -------------------------------------------------------------------------------
- Total energy in solvent:              -11740.64738155680243    -7367367.303725

Calculation of free energy of solvation:              hartree           kcal/mol
- Total energy in solvent:         (+)  -11740.64738155680243    -7367367.303725
- Total energy in vacuum:          (-)  -11736.81464429281186    -7364962.224833
 -------------------------------------------------------------------------------
- Total free energy of solvation:           -3.83273726399057       -2405.078893

Components of polar term in f.e. of solvation:        hartree           kcal/mol
- Electrostatic:                            -4.69346410482922       -2945.193128
- Change in nonelectrostatic DFT terms:      0.21898340162988         137.414156
 -------------------------------------------------------------------------------
- Polar term in f.e. of solvation:          -4.47448070319933       -2807.778972

Components of free energy of solvation:               hartree           kcal/mol
- Polar term in f.e. of solvation: (+)      -4.47448070319933       -2807.778972
- Apolar (cavitation, dis., rep.): (+)       0.64174343920849         402.700079
 -------------------------------------------------------------------------------
- Total free energy of solvation:           -3.83273726399085       -2405.078893
================================================================================


------------------------------ TIMING INFORMATION ------------------------------
AVERAGE TIME:   32865.040s on     30 node(s)                                    
TOTAL TIME:     32865.044s on     30 node(s)                                    
================= AVERAGE TIMINGS FROM ALL NODES (CUMULATIVE) ==================
|| TAG                                    #calls    cpu time   %total  Gflops ||
|| work_imbalance                       :     1        0.00s   0.000%  ------ ||
|| parallel_prepare_fd_halos_request    :  1821        0.04s   0.000%  ------ ||
|| sparse_set_to_garbage                :   164        0.05s   0.000%  ------ ||
|| parallel_prepare_fd_halos_alloc      :  1821        0.07s   0.000%  ------ ||
|| ngwfs_initialise_from_radial         :     1        0.23s   0.001%  ------ ||
|| basis_extract_function_from_box      :  6763        0.25s   0.001%  ------ ||
|| parallel_prepare_fd_halos_satisfy    :  1821        0.67s   0.002%  ------ ||
|| pseudopotentials_nonlocal_mat        :    28        0.87s   0.003%  ------ ||
|| restart_ngwfs_tightbox_input         :     1        1.30s   0.004%  ------ ||
|| parallel_prepare_fd_halos_comms_imbal:  1821        5.44s   0.017%  ------ ||
|| openbc_locps_radial                  :     1        6.75s   0.021%  ------ ||
|| density_init_guess_real              :     1       11.38s   0.035%  ------ ||
|| parallel_prepare_fd_halos_clear      :  1821       12.79s   0.039%  ------ ||
|| restart_kernel_read                  :     1       15.73s   0.048%  ------ ||
|| sparse_init                          :     2       23.39s   0.071%  ------ ||
|| projectors_func_ovlp_box             :    28       25.80s   0.078%  ------ ||
|| parallel_prepare_fd_halos_comms_wait :  1821       27.07s   0.082%  ------ ||
|| function_ops_brappd_ketppd           :    28       27.86s   0.085%  ------ ||
|| restart_kernel_write                 :    16       28.78s   0.088%  ------ ||
|| projectors_init_fftbox_recip         :   238       31.91s   0.097%  ------ ||
|| parallel_prepare_fd_halos            :  1821       46.11s   0.140%  ------ ||
|| palser_mano_kernel_optimise          :     1       46.95s   0.143%  ------ ||
|| basis_copy_function_to_box           : 109.5k      50.04s   0.152%  ------ ||
|| fourier_apply_box_pair               :  9601       60.35s   0.184% 490.523 ||
|| ngwf_gradient_coeffs                 :    15       66.23s   0.202%  ------ ||
|| restart_ngwfs_tightbox_output        :    13       74.71s   0.227%  ------ ||
|| sparse_embed_hotelling_invert_embed  :    28       94.59s   0.288%  ------ ||
|| pseudo_make_structure_factor         :     2      111.76s   0.340%  ------ ||
|| sparse_trace                         :  5284      135.33s   0.412%  ------ ||
|| finite_difference_derivative         :  1821      136.52s   0.415%  ------ ||
|| integrals_kinetic                    :    28      183.34s   0.558%  ------ ||
|| projectors_gradient_batch            :   210      257.91s   0.785%  ------ ||
|| fourier_apply_cell_backward          :  1215      260.89s   0.794%  64.328 ||
|| fourier_apply_cell_forward           :  1213      261.59s   0.796%  64.051 ||
|| basis_dot_function_with_box          : 17.08M     291.85s   0.888%  ------ ||
|| openbc_locps_on_grid                 :     2      346.22s   1.053%  ------ ||
|| kernel_purify                        :   463      350.03s   1.065%  ------ ||
|| lnv_gradient_norm                    :   150      521.60s   1.587%  ------ ||
|| hamiltonian_energy_components        :     4      568.37s   1.729%  ------ ||
|| basis_add_function_to_box            : 35.42M     614.06s   1.868%  ------ ||
|| xc_energy_potential                  :   303      623.89s   1.898%  ------ ||
|| kernel_fix                           :   150      671.99s   2.045%  ------ ||
|| ngwf_gradient_build_batch            :   210     1017.01s   3.094%  ------ ||
|| cell_grid_extract_box_real           : 57657     1097.12s   3.338%  ------ ||
|| cell_grid_deposit_box_real           : 68046     1167.26s   3.552%  ------ ||
|| integrals_locpot_mat_els_batch       :  2226     1233.85s   3.754%  ------ ||
|| ngwf_gradient_batch                  :   210     1360.80s   4.141%  ------ ||
|| density_batch_row_sums               :  4228     1399.59s   4.259%  ------ ||
|| ngwf_gradient_lnv                    :    15     1608.80s   4.895%  ------ ||
|| sparse_product                       :  6424     2277.00s   6.928%  ------ ||
|| density_fftbox_deposit_to_cell       : 66138     2291.26s   6.972%  ------ ||
|| multigrid_prepare_bound_cond         :   303     3260.56s   9.921%  ------ ||
|| potential_apply_to_ngwf_batch        :  2226     4324.49s  13.158%  ------ ||
|| density_fftbox_interpolate_multiply  : 66138     4880.44s  14.850%  ------ ||
|| integrals_locpot_dbl_grid            :   159     5566.07s  16.936%  ------ ||
|| fourier_apply_box                    : 228.4k    5865.77s  17.848% 581.954 ||
|| dl_mg_solver_calls                   :   303     7364.21s  22.407%  ------ ||
|| density_batch_interp_deposit         :  4228     7821.48s  23.799%  ------ ||
|| density_on_dbl_grid                  :   302    10072.81s  30.649%  ------ ||
|| multigrid_calculate_hartree          :   303    10808.22s  32.887%  ------ ||
|| hamiltonian_lhxc_calculate           :   298    21341.44s  64.937%  ------ ||
|| lnv_denskernel_optimise_cg           :    15    27929.31s  84.982%  ------ ||
|| ngwf_cg_optimise                     :     2    31592.41s  96.128%  ------ ||
|| total_time                           :     1    32865.04s 100.000%  ------ ||
================================================================================
Overhead of generating timer report: 
- 0 ms averaging over threads,
- 5 ms ensuring consistency across MPI ranks,
- 0 ms printing in order.

Job completed: 23-01-2020 01:57 (-0000)

