 +---------------------------------------------------------------+
 |                                                               |
 |        ####### #     # ####### ####### ####### ######         |
 |        #     # ##    # #          #    #       #     #        |
 |        #     # # #   # #          #    #       #     #        |
 |        #     # #  #  # #####      #    #####   ######         |
 |        #     # #   # # #          #    #       #              |
 |        #     # #    ## #          #    #       #              |
 |        ####### #     # #######    #    ####### #              |
 |                                                               |
 |        Linear-Scaling Ab Initio Total Energy Program          |
 |                                                               |
 |          Release for academic collaborators of ODG            |
 |                                             Version 5.3.2.6.  |
 |                                                               |
 +---------------------------------------------------------------+
 |                                                               |
 |  Authors:                                                     |
 |  Jacek Dziedzic, Peter D. Haynes, Nicholas D. M. Hine,        |
 |  Arash. A. Mostofi, Mike C. Payne and Chris-Kriton Skylaris   |
 |                                                               |
 |  Contributors:                                                |
 |  J. Aarons, L. Andrinopoulos, P. W. Avraam, R. A. Bell,       |
 |  A. Bhandari, G. A. Bramley, R. J. Charlton, S. J. Clark,     |
 |  R. J. Clements, G. C. Constantinescu, F. Corsetti,           |
 |  N. Corsini, O. Dieguez, S. M. M. Dubois, K. K. B. Duff,      |
 |  J. M. Escartin, A. Greco, H. Helal, Q. O. Hill, L. P. Lee,   |
 |  J.-H. Li, E. B. Linscott, G. Moynihan, D. D. O`Regan,        |
 |  O. K. Okan, M. J. S. Phipps, C. J. Pickard,                  |
 |  J. C. A. Prentice, M. I. J. Probert, L. E. Ratcliff,         |
 |  M. Robinson, A. Ruiz Serrano, J. S. Spencer, E. W. Tait,     |
 |  G. Teobaldi, D. Turban, V. Vitale, K. A. Wilkinson,          |
 |  C. Weber, J. C. Womack, N. Yeung and T. J. Zuehlsdorff       |
 |                                                               |
 |                                   Copyright (c) 2004-2019     |
 |                                                               |
 |  Please cite:                                                 |
 |  "Introducing ONETEP: Linear-scaling density functional       |
 |   simulations on parallel computers".                         |
 |   C.-K. Skylaris, P. D. Haynes, A. A. Mostofi, M. C. Payne.   |
 |   J. Chem. Phys. 122 084119 (2005).                           |
 |                                                               |
 |          in all publications arising from your use of ONETEP. |
 |                                                               |
 +---------------------------------------------------------------+
 |                                                               |
 |   ONETEP is based on developments described in the following  |
 |   publications:                                               |
 |                                                               |
 |  "Nonorthogonal generalized Wannier function pseudopotential  |
 |   plane-wave method".                                         |
 |   C.-K. Skylaris, A. A. Mostofi, P. D. Haynes, O. Dieguez,    |
 |   M. C. Payne.                                                |
 |   Phys. Rev. B 66 035119 (2002).                              |
 |                                                               |
 |  "Preconditioned iterative minimization for linear-scaling    |
 |   electronic structure calculations".                         |
 |   A. A. Mostofi, P. D. Haynes, C.-K. Skylaris, M. C. Payne.   |
 |   J. Chem. Phys. 119(17), pp.8842-8848 (2003).                |
 |                                                               |
 |  "Total-energy calculations on a real space grid with         |
 |   localized functions and a plane-wave basis".                |
 |   A. A. Mostofi, C.-K. Skylaris, P. D. Haynes, M. C. Payne.   |
 |   Comput. Phys. Commun. 147, pp.788-802 (2002).               |
 |                                                               |
 |  "Accurate kinetic energy evaluation in electronic structure  |
 |   calculations with localized functions on real space grids"  |
 |   C.-K. Skylaris, A. A. Mostofi, P. D. Haynes, C. J. Pickard, |
 |   M. C. Payne.                                                |
 |   Comput. Phys. Commun. 140, pp.315-322 (2001).               |
 |                                                               |
 |  "Accurate ionic forces and geometry optimization in linear-  |
 |   scaling density-functional theory with local orbitals"      |
 |   N. D. M. Hine, M. Robinson, P. D. Haynes, C.-K. Skylaris,   |
 |   M. C. Payne, and A. A. Mostofi.                             |
 |   Phys. Rev. B 83 195102 (2011).                              |
 |                                                               |
 +---------------------------------------------------------------+

Job started: 14-06-2020 12:11 (+0100)
 
Reading parameters from file "complex_14541.dat" ...... done

If your calculation crashes here, before "Checking processes and threads..."
is displayed, then your stack size is insufficient.
If so, use "ulimit -s unlimited" at runtime.
You can disable this check with "check_stack_size F".

Checking processes and threads...
   Determining the default number of threads...
      No default threads set at compilation time: defaulting to 1.
      OpenMP library call suggests 4 threads.
      Hybrid MPI-OpenMP compilation detected.
      Number of MPI processes > 1.
      OMP_NUM_THREADS environment variable present and
      its value matches the one obtained from the OpenMP library call.
      Using this value as default.
      Default threads: 4
      Default applies to threads_max and threads_num_fftboxes.
      Settings in the input file override this default.
   ... done

   Running with 60 MPI processes.
   There are 6 MPI processes running on the same node as the root process.
   Each MPI process is using: 
               1 threads for simulation cell FFTs.
               1 threads for parallel FFT box operations.
               4 threads for loops over batched FFT box operations.
               4 threads in other parallel regions.
... done

Basic input checks...... done

Reading geometry and species blocks from file "complex_14541.dat" ...
  <species_atomic_set> block not found: NGWF initialisation set to SOLVE
IS: Dielectric excluded regions:
    - NONE.
    
  Number of PPD points along a3 set to 1.  This is 
  the default value, it may have been provided also in the input file.
... done
 Writing xyz coordinates to file "complex_14541.xyz" ... done


--------------------------------------------------------------------------------
---------------------------------- INPUT FILE ----------------------------------
--------------------------------------------------------------------------------

cutoff_energy       : 800 eV                                                    
xc_functional PBE                                                               
task SINGLEPOINT                                                                
write_xyz true                                                                  
output_detail VERBOSE                                                           
ngwf_threshold_orig : 0.000002                                                  
kernel_cutoff       : 1000                                                      
k_zero              : 3.5                                                       
elec_cg_max 0                                                                   
occ_mix 1.0                                                                     
dispersion 1                                                                    
maxit_ngwf_cg 40                                                                
minit_lnv 10                                                                    
maxit_lnv 10                                                                    
write_denskern T                                                                
write_tightbox_ngwfs T                                                          
charge 9                                                                        
is_implicit_solvent T                                                           
is_auto_solvation T                                                             
is_include_apolar T                                                             
is_smeared_ion_rep T                                                            
is_solvent_surf_tension 4.7624E-5 Ha/bohr**2                                    
is_apolar_scaling_factor 0.281075                                               
is_solvation_beta 1.3                                                           
is_density_threshold 0.00035                                                    
is_bulk_permittivity 78.54                                                      
is_dielectric_model fix_initial                                                 
is_smeared_ion_width 0.8                                                        
mg_defco_fd_order 8                                                             
is_bc_coarseness 10                                                             
is_bc_surface_coarseness 1                                                      
fine_grid_scale 2.0                                                             
%block species                                                                  
N   N   7 4 8.0                                                                 
H   H   1 1 8.0                                                                 
C   C   6 4 8.0                                                                 
S   S  16 9 8.0                                                                 
O   O   8 4 8.0                                                                 
%endblock species                                                               
%block species_pot                                                              
N   N_00.recpot                                                                 
H   H_04.recpot                                                                 
C   C_01.recpot                                                                 
S   S_00.recpot                                                                 
O   O_02.recpot                                                                 
%endblock species_pot                                                           
%block lattice_cart                                                             
137.614   0.000   0.000                                                         
0.000 142.646   0.000                                                           
0.000   0.000   160.855                                                         
%endblock lattice_cart                                                          
%block positions_abs                                                            
     Hash =   000004073454812356488749
%endblock positions_abs                                                         

--------------------------------------------------------------------------------
-------------------------------- END INPUT FILE --------------------------------
--------------------------------------------------------------------------------


 
 ESDF WARNING(1): "kernelcutoff" (esdf_physical) has no units. Assume "bohr".
 ESDF WARNING(2): "kzero" (esdf_physical) has no units. Assume "1/bohr".
 ESDF WARNING(3
 ): "issmearedionwidth" (esdf_physical) has no units. Assume "bohr".
<<<<<<<<<<<<<<<<<<<<<<<<<<<<<<<<< Full system >>>>>>>>>>>>>>>>>>>>>>>>>>>>>>>>>>
<<<<<<<<<<<<<<<<<<<<<<<<< Pseudopotential information >>>>>>>>>>>>>>>>>>>>>>>>>>
File: N_00.recpot [ 2001 points up to Gmax=  52.9 (1/bohr)]
  Atomic number:  7;  ionic charge:  5.000000
    Shell 1: l = 0; rc = 1.48 bohr
File: H_04.recpot [ 2001 points up to Gmax=  52.9 (1/bohr)]
  Atomic number:  1;  ionic charge:  1.000000
    Local potential
File: C_01.recpot [ 2001 points up to Gmax=  52.9 (1/bohr)]
  Atomic number:  6;  ionic charge:  4.000000
    Shell 1: l = 0; rc = 1.48 bohr
File: S_00.recpot [ 2001 points up to Gmax=  52.9 (1/bohr)]
  Atomic number: 16;  ionic charge:  6.000000
    Shell 1: l = 0; rc = 1.90 bohr
    Shell 2: l = 2; rc = 1.84 bohr
File: O_02.recpot [ 2001 points up to Gmax=  52.9 (1/bohr)]
  Atomic number:  8;  ionic charge:  6.000000
    Shell 1: l = 0; rc = 1.31 bohr
<<<<<<<<<<<<<<<<<<<<<<<<<<<<<<<<<<<<<<<<>>>>>>>>>>>>>>>>>>>>>>>>>>>>>>>>>>>>>>>>

-------------------------- Atom counting information ---------------------------
Symbol    Natoms    Nngwfs    Nprojs
  N        236       944       236
  H       1319      1319         0
  C        817      3268       817
  S          6        54        36
  O        240       960       240
.......   ......    ......    ......
Totals:   2618      6545      1329
--------------------------------------------------------------------------------

=============================== PSINC grid sizes ===============================
                      Simulation cell:  273 x 286 x 320
                              FFT-box:   99 x 105 x  99
                                  PPD:    7 x  11 x   1
Grid space d1=  0.504080586081a0 (KE cutoff=  29.89538Eh = 813.49465eV)
Grid space d2=  0.498762237762a0 (KE cutoff=  30.53633Eh = 830.93588eV)
Grid space d3=  0.502671875000a0 (KE cutoff=  30.06317Eh = 818.06059eV)
================================================================================

********************* Fourier parallelisation information **********************
       Coarse grid (whole simulation cell) dimensions:    273   286   320
          Real-space ('12') slabs/node (min max mean):      5     6     5
         Recip-space ('23') slabs/node (min max mean):      2     3     2
********************************************************************************

********************* Fourier parallelisation information **********************
       Double grid (whole simulation cell) dimensions:    546   572   640
          Real-space ('12') slabs/node (min max mean):     10    11    10
         Recip-space ('23') slabs/node (min max mean):      4     5     4
********************************************************************************
ONETEP fine grid is 546 x 572 x 640 gridpoints, 137.6140 x 142.6460 x 160.8550 bohr.
FD multigrid is     545 x 569 x 633 gridpoints, 137.3620 x 141.8979 x 159.0956 bohr.


Calculating local pseudopotential in open BC on a radial grid ...
Discrepancy between calculated realspace psloc and -Z/x on [5a0,255.264a0]:
max |rel. diff| # avg |rel. diff| #  avg rel. diff #  f # pseudopotential file
 0.000296759711    0.000009439468   0.000000085927   54  'N_00.recpot'
 0.000490027943    0.000021572324  -0.000000031900   54  'H_04.recpot'
 0.000320795249    0.000014598087   0.000000111901   54  'C_01.recpot'
 0.000388730920    0.000016096375   0.000000514750   54  'S_00.recpot'
 0.000828383344    0.000035421288   0.000000087443   54  'O_02.recpot'
... done

Atom SCF Calculation for N  : Z (AE atom) =   7 : Z (PS atom) =   5
Config String:
Orbitals (num,occ):  2     2.00 3.00
Orbitals   (num,l):  2        0    1
Real-space Grid (nr,dr,rmax): 1203    0.0066555740    8.0000000000
Spherical Bessel Basis (nsws,lmax,cutoff):   47    1  176.3951722778
Confining potential (l,width,scale):  0    3.0000000000  100.0000000000
Confining potential (l,width,scale):  1    3.0000000000  100.0000000000
  1         -4.7312375307   -3.4155304497    7.0523828109   -1.9351020946
  2         -9.7309464766   -2.0532547791    8.2966052865   -2.2494486027
  3         -9.6627394379   -2.1124926340    8.2327997121   -2.2369778124
  4         -9.6814993499   -2.1215521045    8.2229805960   -2.2365178421
  5         -9.6843326483   -2.1250939529    8.2191374534   -2.2362718126
  6         -9.6859628709   -2.1267894855    8.2172963573   -2.2362066344
  7         -9.6867347035   -2.1276425665    8.2163697352   -2.2361903369
  8         -9.6870802100   -2.1280764625    8.2158983890   -2.2361891460
  9         -9.6872290423   -2.1282977424    8.2156580222   -2.2361920435
 10         -9.6872901988   -2.1284107021    8.2155353368   -2.2361953393
 11         -9.6873135296   -2.1284684031    8.2154726809   -2.2361979819
 12         -9.6873212476   -2.1284978948    8.2154406648   -2.2361998431
 13         -9.6873229586   -2.1285129774    8.2154242957   -2.2362010676
 14         -9.6873226456   -2.1285206957    8.2154159216   -2.2362018403
 15         -9.6873218534   -2.1285246479    8.2154116349   -2.2362023142
 16         -9.6873212599   -2.1285262679    8.2154098784   -2.2362025420
 17         -9.6873207834   -2.1285272564    8.2154088068   -2.2362026955
 18         -9.6873204210   -2.1285278596    8.2154081529   -2.2362027982
 19         -9.6873201550   -2.1285282280    8.2154077538   -2.2362028667
 20         -9.6873199645   -2.1285284529    8.2154075102   -2.2362029121
 21         -9.6873198305   -2.1285285903    8.2154073614   -2.2362029421
 22         -9.6873197377   -2.1285286742    8.2154072705   -2.2362029618
Atom SCF converged after  22 iterations to a total energy of     -9.68731974

Atom SCF Calculation for H  : Z (AE atom) =   1 : Z (PS atom) =   1
Config String:
Orbitals (num,occ):  1     1.00
Orbitals   (num,l):  1        0
Real-space Grid (nr,dr,rmax): 1203    0.0066555740    8.0000000000
Spherical Bessel Basis (nsws,lmax,cutoff):   47    0  176.3951722778
Confining potential (l,width,scale):  0    3.0000000000  100.0000000000
  1         -0.3194257691   -0.2393854593    0.2820953124   -0.2424203209
  2         -0.3951823392   -0.2377116493    0.2886404059   -0.2475147891
  3         -0.4317044583   -0.2352244387    0.2921333887   -0.2514046172
  4         -0.4470703708   -0.2341892222    0.2934391879   -0.2531009782
  5         -0.4532132900   -0.2338556667    0.2938388426   -0.2537313520
  6         -0.4556579251   -0.2337612552    0.2939448584   -0.2539550462
  7         -0.4566418315   -0.2337377355    0.2939680120   -0.2540342273
  8         -0.4570437922   -0.2337331116    0.2939708287   -0.2540627372
  9         -0.4572102946   -0.2337328328    0.2939698291   -0.2540732650
 10         -0.4572800424   -0.2337332404    0.2939687193   -0.2540772588
 11         -0.4573095100   -0.2337335791    0.2939680317   -0.2540788122
 12         -0.4573220379   -0.2337337762    0.2939676699   -0.2540794294
 13         -0.4573273880   -0.2337338775    0.2939674931   -0.2540796787
 14         -0.4573296803   -0.2337339266    0.2939674099   -0.2540797808
 15         -0.4573306647   -0.2337339495    0.2939673718   -0.2540798230
 16         -0.4573310882   -0.2337339601    0.2939673545   -0.2540798406
 17         -0.4573312706   -0.2337339649    0.2939673467   -0.2540798479
 18         -0.4573313493   -0.2337339670    0.2939673433   -0.2540798510
Atom SCF converged after  18 iterations to a total energy of     -0.45733135

Atom SCF Calculation for C  : Z (AE atom) =   6 : Z (PS atom) =   4
Config String:
Orbitals (num,occ):  2     2.00 2.00
Orbitals   (num,l):  2        0    1
Real-space Grid (nr,dr,rmax): 1203    0.0066555740    8.0000000000
Spherical Bessel Basis (nsws,lmax,cutoff):   47    1  176.3951722778
Confining potential (l,width,scale):  0    3.0000000000  100.0000000000
Confining potential (l,width,scale):  1    3.0000000000  100.0000000000
  1         -5.2976922011   -1.3069684169    4.5135249990   -1.4493313817
  2         -5.3721716256   -1.3429755895    4.4750154450   -1.4361613026
  3         -5.3809959565   -1.3617365618    4.4541655428   -1.4305930207
  4         -5.3918938866   -1.3667928461    4.4484735100   -1.4294652294
  5         -5.3956096428   -1.3688539142    4.4461376126   -1.4290734646
  6         -5.3968271862   -1.3696852393    4.4451910874   -1.4289366866
  7         -5.3972028401   -1.3700178062    4.4448112275   -1.4288900460
  8         -5.3973067903   -1.3701500158    4.4446598370   -1.4288749220
  9         -5.3973286940   -1.3702023868    4.4445997329   -1.4288704293
 10         -5.3973289850   -1.3702230869    4.4445759233   -1.4288693188
 11         -5.3973254264   -1.3702312560    4.4445665049   -1.4288691775
 12         -5.3973224003   -1.3702344755    4.4445627836   -1.4288692549
 13         -5.3973208708   -1.3702354890    4.4445616088   -1.4288693270
 14         -5.3973198783   -1.3702360102    4.4445610034   -1.4288693814
 15         -5.3973192535   -1.3702362780    4.4445606917   -1.4288694190
 16         -5.3973188684   -1.3702364155    4.4445605313   -1.4288694437
 17         -5.3973186349   -1.3702364860    4.4445604489   -1.4288694595
 18         -5.3973184951   -1.3702365221    4.4445604065   -1.4288694693
 19         -5.3973184122   -1.3702365405    4.4445603848   -1.4288694753
Atom SCF converged after  19 iterations to a total energy of     -5.39731841

Atom SCF Calculation for S  : Z (AE atom) =  16 : Z (PS atom) =   6
Config String:
Orbitals (num,occ):  3     2.00 4.00 0.00
Orbitals   (num,l):  3        0    1    2
Real-space Grid (nr,dr,rmax): 1203    0.0066555740    8.0000000000
Spherical Bessel Basis (nsws,lmax,cutoff):   47    2  176.3951722778
Confining potential (l,width,scale):  0    3.0000000000  100.0000000000
Confining potential (l,width,scale):  1    3.0000000000  100.0000000000
Confining potential (l,width,scale):  2    3.0000000000  100.0000000000
  1        -12.4735062396   -1.0328741412   10.1554312477   -2.4512393157
  2         -9.9458301913   -2.4607392455    8.3041325857   -2.0306994528
  3        -10.1450417646   -2.2931184565    8.4831893826   -2.0812538287
  4        -10.1528335592   -2.2733105793    8.5050388867   -2.0896035179
  5        -10.1571940363   -2.2633716629    8.5160794258   -2.0939370707
  6        -10.1594380571   -2.2584938667    8.5215163935   -2.0961289008
  7        -10.1605856507   -2.2561081821    8.5241804044   -2.0972291378
  8        -10.1611799191   -2.2549395235    8.5254868240   -2.0977806248
  9        -10.1614918752   -2.2543658586    8.5261285885   -2.0980571586
 10        -10.1616572884   -2.2540839121    8.5264441898   -2.0981959233
 11        -10.1617455602   -2.2539453058    8.5265994231   -2.0982656006
 12        -10.1617928447   -2.2538772062    8.5266757320   -2.0983006047
 13        -10.1618182292   -2.2538437891    8.5267131983   -2.0983181961
 14        -10.1618318741   -2.2538274201    8.5267315620   -2.0983270391
 15        -10.1618392144   -2.2538194197    8.5267405433   -2.0983314852
 16        -10.1618431651   -2.2538155200    8.5267449245   -2.0983337210
 17        -10.1618452923   -2.2538136252    8.5267470551   -2.0983348455
 18        -10.1618464380   -2.2538127080    8.5267480875   -2.0983354110
 19        -10.1618470552   -2.2538122659    8.5267485856   -2.0983356955
 20        -10.1618473878   -2.2538120540    8.5267488248   -2.0983358386
 21        -10.1618475670   -2.2538119530    8.5267489389   -2.0983359106
 22        -10.1618476637   -2.2538119053    8.5267489929   -2.0983359468
Atom SCF converged after  22 iterations to a total energy of    -10.16184766

Atom SCF Calculation for O  : Z (AE atom) =   8 : Z (PS atom) =   6
Config String:
Orbitals (num,occ):  2     2.00 4.00
Orbitals   (num,l):  2        0    1
Real-space Grid (nr,dr,rmax): 1203    0.0066555740    8.0000000000
Spherical Bessel Basis (nsws,lmax,cutoff):   47    1  176.3951722778
Confining potential (l,width,scale):  0    3.0000000000  100.0000000000
Confining potential (l,width,scale):  1    3.0000000000  100.0000000000
  1         -1.8735052164   -7.5539365035   10.1554312477   -2.4512393157
  2        -16.0318313751   -3.1285771268   13.6395848164   -3.2358799643
  3        -15.9524020423   -3.0762819706   13.6967272503   -3.2536856837
  4        -15.8521515939   -3.0781493909   13.6951909330   -3.2561700440
  5        -15.8357139793   -3.0748501933   13.6988803334   -3.2580493133
  6        -15.8246052853   -3.0740779781   13.6997881576   -3.2588327446
  7        -15.8189019501   -3.0737449687   13.7001869911   -3.2592378801
  8        -15.8159785510   -3.0736026016   13.7003615168   -3.2594475790
  9        -15.8144776168   -3.0735437994   13.7004360379   -3.2595560735
 10        -15.8137058024   -3.0735207882   13.7004667348   -3.2596122456
 11        -15.8133083127   -3.0735125946   13.7004786868   -3.2596413656
 12        -15.8131032938   -3.0735102195   13.7004828997   -3.2596564858
 13        -15.8129973902   -3.0735099286   13.7004840891   -3.2596643505
 14        -15.8129426040   -3.0735102506   13.7004842061   -3.2596684489
 15        -15.8129142203   -3.0735106556   13.7004840157   -3.2596705887
 16        -15.8128994940   -3.0735109855   13.7004837906   -3.2596717080
 17        -15.8128918425   -3.0735112169   13.7004836103   -3.2596722946
 18        -15.8128878614   -3.0735113674   13.7004834848   -3.2596726026
 19        -15.8128857871   -3.0735114608   13.7004834035   -3.2596727646
 20        -15.8128847048   -3.0735115170   13.7004833533   -3.2596728500
 21        -15.8128841394   -3.0735115501   13.7004833231   -3.2596728951
 22        -15.8128838436   -3.0735115693   13.7004833054   -3.2596729190
 23        -15.8128836887   -3.0735115802   13.7004832951   -3.2596729316
 24        -15.8128836074   -3.0735115864   13.7004832893   -3.2596729383
Atom SCF converged after  24 iterations to a total energy of    -15.81288361

========================== Calculation in vacuum ==============================
= Adjusting the following parameters: 
= is_implicit_solvent: F
= is_include_apolar: F
= write_denskern: T
= write_tightbox_ngwfs: T
= restart read filename prefix: ""
= restart write filename prefix: "vacuum_"
===============================================================================

Determining parallel strategy ...
... using space-filling curve
... NGWF load balancing: max    110;  min    109;  average    109
... Projector load balancing: max     26;  min     21;  average     22
... done
Calculating direct Ion-Ion energy ...
Ion-Ion Energy        :    843839.18715101457201
======================= Empirical dispersion information =======================
Model : Elstner
Dispersion Correction Energy: -0.33281324E+01 Hartree
================================================================================
Basis initialisation ...... NGWF spheres initialised
... Projector spheres initialised
... NGWF tight boxes initialised
... Tight-boxes gathered
... NGWF basis size (local,global):     935519  56370803
... Nonlocal pseudopotential projector initialisation
... done

========================== Sparse matrix information ===========================
                        Overlap matrix filling:   6.89%
                        Density kernel filling: 100.00%
              NGWF-Proj overlap matrix filling:   1.79%
                    Hamiltonian matrix filling:   7.79%
                  NGWF diagonal matrix filling:   0.05%
                             KS matrix filling: 100.00% 
                           KSKS matrix filling: 100.00% 
================================================================================

Sparse matrix initialisation ... done

Generating smeared ion density ... done
Smeared ion self correction:     -14534.963309
Smeared ion non-self correction: -843790.744534
NGWF initialisation ...... done
============ Calculation of NGWF S^-1 using Hotelling algorithm ================ 
         Iteration  |  Frobenius norm and Maximum abs value    (of I-S*S_n^-1)   
               1       0.78731928E+02     0.98269942E+00
               2       0.76883315E+02     0.96583982E+00
               3       0.73887768E+02     0.93336500E+00
               4       0.69626312E+02     0.87292522E+00
               5       0.64314647E+02     0.76929647E+00
               6       0.58341119E+02     0.70394475E+00
               7       0.52328144E+02     0.67084442E+00
               8       0.46771033E+02     0.64286259E+00
               9       0.40713805E+02     0.60262470E+00
              10       0.32469814E+02     0.53298694E+00
              11       0.21900678E+02     0.42079509E+00
              12       0.11246447E+02     0.27881939E+00
              13       0.37277003E+01     0.13209828E+00
              14       0.59504888E+00     0.40487924E-01
              15       0.29982964E-01     0.42708642E-02
              16       0.20112682E-03     0.49696476E-04
              17       0.20398564E-07     0.68374207E-08
              18       0.98069532E-13     0.53290705E-14
================================================================================
Calculating local pseudopotential in open BC on the fine real space grid ...
... done

MG BCs: +ve charge blocks (gridpoints):     20355 (   16026366).
MG BCs: -ve charge blocks (gridpoints):      8154 (    1101792).
MG BCs:     Elided blocks (gridpoints):    180285 (  179168307).
MG BCs: Computational effort saved:  99.9855%.
MG BCs: Charge after coarse-graining:           -9.0002211.
MG DL_MG: Calling solver with defect correction order = 8
MG DL_MG: Solver finished
MG Hartree energy from (\int phi*rho dr):              1471.748619
MG Hartree energy from (\int eps (grad phi)^2 dr):     1471.136800
MG Discrepancy due to finite box and discretization:     -0.611819 (  -0.04157%)
MG Correction to account for finite box:                  0.464344
MG Remaining discrepancy, due to discretization:         -0.147475 (  -0.01002%)
Up spin density kernel initialisation ... 
======= Optimisation of K by Palser-Manolopoulos canonical purification ======== 
         Iteration  |  Band structure energy |    c_n   
               1       -2606.36656142768697    0.5268035
               2       -2783.45717952937321    0.5170519
               3       -2964.97400851520388    0.5155296
               4       -3116.37342846754473    0.5292537
               5       -3209.30951582891339    0.5652765
               6       -3248.16495099987333    0.6100551
               7       -3261.39314100448291    0.6219032
               8       -3267.13897237998390    0.6217520
               9       -3269.91403265021927    0.6374000
              10       -3271.06220786879885    0.6568274
              11       -3271.52673077860072    0.6598380
              12       -3271.74110526091545    0.6317928
              13       -3271.85603369135060    0.5553986
              14       -3271.92256242015719    0.4281881
              15       -3271.94148992629835    0.3585618
              16       -3271.94330107476253    0.3571456
              17       -3271.94447397087333    0.3485818
              18       -3271.94507289709236    0.3709930
              19       -3271.94538350204402    0.4242879
              20       -3271.94558561931626    0.4730644
              21       -3271.94568134814017    0.4964542
              22       -3271.94572128088703    0.4999375
              23       -3271.94576159109693    0.5000000
              24       -3271.94580937197043    0.5000000
              25       -3271.94585262379769    0.5000000
              26       -3271.94587488304114    0.5000000
              27       -3271.94587876622063    0.5000000
              28       -3271.94587886037880    0.5000000
Termination criterion satisfied: band energy change below threshold.
Final occupancy bounds: [    0.00000000006923:    0.99999999999080]
Closest occupancy to 0.5:     0.99999999999350
================================================================================
... done

Writing density kernel to file "complex_14541.vacuum_dkn" ... done

>>> Optimising kernel for current NGWFs:
   Initial electron number for spin 1:    7234.00000000
     Final electron number for spin 1:    7234.00000000

=================== Penalty functional idempotency correction ==================
 RMS occupancy error at iteration   1:  0.000000 (step -0.5000 Ne1=   7234.0000)
            Final RMS occupancy error   :  0.000000 (Ne1=   7234.0000)
               Final occupancy bounds   : [ -0.0000,  1.0000]
================================================================================

................................................................................
<<<<<<<<<<<<<< LNV (Original version) density kernel optimisation >>>>>>>>>>>>>>
~~~~~~~~~~~~~~~~~~~~~~~~~~~~~~~~~~~~~~~~~~~~~~~~~~~~~~~~~~~~~~~~~~~~~~~~~~~~~~~~
   iter  |      energy (Eh)       | rms gradient |  commutator  |   dE (Eh)
MG BCs: +ve charge blocks (gridpoints):     31119 (   17126746).
MG BCs: -ve charge blocks (gridpoints):      8446 (    1135180).
MG BCs:     Elided blocks (gridpoints):    169514 (  178034539).
MG BCs: Computational effort saved:  99.9798%.
MG BCs: Charge after coarse-graining:           -9.0009672.
MG DL_MG: Calling solver with defect correction order = 8
MG DL_MG: Solver finished
MG Hartree energy from (\int phi*rho dr):              1428.006158
MG Hartree energy from (\int eps (grad phi)^2 dr):     1427.344283
MG Discrepancy due to finite box and discretization:     -0.661875 (  -0.04635%)
MG Correction to account for finite box:                  0.472372
MG Remaining discrepancy, due to discretization:         -0.189503 (  -0.01327%)
      ideal mu1:      -0.685559584179
             Q0:  -11565.801006063120
             G0:    -148.828490146301
   RMS gradient:       0.001863946261
MG BCs: +ve charge blocks (gridpoints):     31098 (   17204969).
MG BCs: -ve charge blocks (gridpoints):      8366 (    1114629).
MG BCs:     Elided blocks (gridpoints):    169537 (  177976867).
MG BCs: Computational effort saved:  99.9799%.
MG BCs: Charge after coarse-graining:           -9.0009901.
MG DL_MG: Calling solver with defect correction order = 8
MG DL_MG: Solver finished
MG Hartree energy from (\int phi*rho dr):              1452.038787
MG Hartree energy from (\int eps (grad phi)^2 dr):     1451.394311
MG Discrepancy due to finite box and discretization:     -0.644475 (  -0.04438%)
MG Correction to account for finite box:                  0.470556
MG Remaining discrepancy, due to discretization:         -0.173919 (  -0.01198%)
     Trial step:       0.500000000000
             Q1:  -11577.988427022705
 Quadratic coef:      62.226824113566
 Linear coef   :     -74.414245073151
           Qmin:  -11588.048163734629
Quadratic minimum step length (  0.298963695051) accepted
    Initial Ne1:    7234.00000000
      Final Ne1:    7234.00000000

=================== Penalty functional idempotency correction ==================
 RMS occupancy error at iteration   1:  0.003512 (step -0.4881 Ne1=   7234.0000)
 RMS occupancy error at iteration   2:  0.000029 (step -0.5001 Ne1=   7234.0000)
            Final RMS occupancy error   :  0.000000 (Ne1=   7234.0000)
               Final occupancy bounds   : [  0.0000,  1.0000]
================================================================================

    1        -1.156580100606E+04     1.8639E-03     1.6864E-03
MG BCs: +ve charge blocks (gridpoints):     31110 (   17174656).
MG BCs: -ve charge blocks (gridpoints):      8404 (    1123276).
MG BCs:     Elided blocks (gridpoints):    169522 (  177998533).
MG BCs: Computational effort saved:  99.9799%.
MG BCs: Charge after coarse-graining:           -9.0009810.
MG DL_MG: Calling solver with defect correction order = 8
MG DL_MG: Solver finished
MG Hartree energy from (\int phi*rho dr):              1434.333415
MG Hartree energy from (\int eps (grad phi)^2 dr):     1433.682920
MG Discrepancy due to finite box and discretization:     -0.650495 (  -0.04535%)
MG Correction to account for finite box:                  0.471135
MG Remaining discrepancy, due to discretization:         -0.179359 (  -0.01250%)
      ideal mu1:      -0.734603337177
             Q0:  -11588.469480135245
             G0:     -12.910718239828
   RMS gradient:       0.000545207870
MG BCs: +ve charge blocks (gridpoints):     31109 (   17190739).
MG BCs: -ve charge blocks (gridpoints):      8388 (    1117972).
MG BCs:     Elided blocks (gridpoints):    169523 (  177987754).
MG BCs: Computational effort saved:  99.9799%.
MG BCs: Charge after coarse-graining:           -9.0009846.
MG DL_MG: Calling solver with defect correction order = 8
MG DL_MG: Solver finished
MG Hartree energy from (\int phi*rho dr):              1439.314607
MG Hartree energy from (\int eps (grad phi)^2 dr):     1438.668161
MG Discrepancy due to finite box and discretization:     -0.646446 (  -0.04491%)
MG Correction to account for finite box:                  0.470201
MG Remaining discrepancy, due to discretization:         -0.176245 (  -0.01225%)
     Trial step:       0.386628823971
             Q1:  -11591.491713092080
 Quadratic coef:       1.969422852857
 Linear coef   :      -4.991655809692
           Qmin:  -11591.632415368565
Quadratic minimum step length (  0.489970453164) accepted
    Initial Ne1:    7233.99986332
      Final Ne1:    7234.00000000

=================== Penalty functional idempotency correction ==================
 RMS occupancy error at iteration   1:  0.001912 (step -0.4924 Ne1=   7234.0000)
 RMS occupancy error at iteration   2:  0.000015 (step -0.5002 Ne1=   7234.0000)
            Final RMS occupancy error   :  0.000000 (Ne1=   7234.0000)
               Final occupancy bounds   : [  0.0000,  1.0000]
================================================================================

    2        -1.158846948014E+04     5.4521E-04     4.9328E-04    -2.2668E+01
MG BCs: +ve charge blocks (gridpoints):     31113 (   17194958).
MG BCs: -ve charge blocks (gridpoints):      8382 (    1116575).
MG BCs:     Elided blocks (gridpoints):    169519 (  177984932).
MG BCs: Computational effort saved:  99.9799%.
MG BCs: Charge after coarse-graining:           -9.0009857.
MG DL_MG: Calling solver with defect correction order = 8
MG DL_MG: Solver finished
MG Hartree energy from (\int phi*rho dr):              1440.704050
MG Hartree energy from (\int eps (grad phi)^2 dr):     1440.058609
MG Discrepancy due to finite box and discretization:     -0.645441 (  -0.04480%)
MG Correction to account for finite box:                  0.469968
MG Remaining discrepancy, due to discretization:         -0.175474 (  -0.01218%)
      ideal mu1:      -0.761437106136
             Q0:  -11591.673912137281
             G0:      -2.125975540438
   RMS gradient:       0.000221252668
MG BCs: +ve charge blocks (gridpoints):     31104 (   17194226).
MG BCs: -ve charge blocks (gridpoints):      8385 (    1117644).
MG BCs:     Elided blocks (gridpoints):    169528 (  177984595).
MG BCs: Computational effort saved:  99.9799%.
MG BCs: Charge after coarse-graining:           -9.0009853.
MG DL_MG: Calling solver with defect correction order = 8
MG DL_MG: Solver finished
MG Hartree energy from (\int phi*rho dr):              1438.390753
MG Hartree energy from (\int eps (grad phi)^2 dr):     1437.745852
MG Discrepancy due to finite box and discretization:     -0.644900 (  -0.04483%)
MG Correction to account for finite box:                  0.469645
MG Remaining discrepancy, due to discretization:         -0.175256 (  -0.01218%)
     Trial step:       0.435243265413
             Q1:  -11592.233012380195
 Quadratic coef:       0.366216293494
 Linear coef   :      -0.925316536409
           Qmin:  -11592.258410088192
Quadratic minimum step length (  0.549863288447) accepted
    Initial Ne1:    7233.99987848
      Final Ne1:    7234.00000000

=================== Penalty functional idempotency correction ==================
 RMS occupancy error at iteration   1:  0.000783 (step -0.4940 Ne1=   7234.0000)
 RMS occupancy error at iteration   2:  0.000011 (step -0.5005 Ne1=   7234.0000)
            Final RMS occupancy error   :  0.000000 (Ne1=   7234.0000)
               Final occupancy bounds   : [  0.0000,  1.0000]
================================================================================

    3        -1.159167391214E+04     2.2125E-04     2.0018E-04    -3.2044E+00
MG BCs: +ve charge blocks (gridpoints):     31109 (   17194158).
MG BCs: -ve charge blocks (gridpoints):      8390 (    1117841).
MG BCs:     Elided blocks (gridpoints):    169523 (  177984466).
MG BCs: Computational effort saved:  99.9799%.
MG BCs: Charge after coarse-graining:           -9.0009852.
MG DL_MG: Calling solver with defect correction order = 8
MG DL_MG: Solver finished
MG Hartree energy from (\int phi*rho dr):              1437.793886
MG Hartree energy from (\int eps (grad phi)^2 dr):     1437.149114
MG Discrepancy due to finite box and discretization:     -0.644772 (  -0.04484%)
MG Correction to account for finite box:                  0.469561
MG Remaining discrepancy, due to discretization:         -0.175211 (  -0.01219%)
      ideal mu1:      -0.762076339884
             Q0:  -11592.264031000901
             G0:      -0.663000148082
   RMS gradient:       0.000123779797
MG BCs: +ve charge blocks (gridpoints):     31108 (   17195332).
MG BCs: -ve charge blocks (gridpoints):      8386 (    1117610).
MG BCs:     Elided blocks (gridpoints):    169524 (  177983523).
MG BCs: Computational effort saved:  99.9799%.
MG BCs: Charge after coarse-graining:           -9.0009853.
MG DL_MG: Calling solver with defect correction order = 8
MG DL_MG: Solver finished
MG Hartree energy from (\int phi*rho dr):              1439.135092
MG Hartree energy from (\int eps (grad phi)^2 dr):     1438.490373
MG Discrepancy due to finite box and discretization:     -0.644720 (  -0.04480%)
MG Correction to account for finite box:                  0.469420
MG Remaining discrepancy, due to discretization:         -0.175300 (  -0.01218%)
     Trial step:       0.489207822091
             Q1:  -11592.447200917406
 Quadratic coef:       0.141174941984
 Linear coef   :      -0.324344858489
           Qmin:  -11592.450323953726
Quadratic minimum step length (  0.561969566262) accepted
    Initial Ne1:    7233.99984119
      Final Ne1:    7234.00000000

=================== Penalty functional idempotency correction ==================
 RMS occupancy error at iteration   1:  0.000625 (step -0.4779 Ne1=   7234.0000)
 RMS occupancy error at iteration   2:  0.000019 (step -0.5004 Ne1=   7234.0000)
            Final RMS occupancy error   :  0.000000 (Ne1=   7234.0000)
               Final occupancy bounds   : [  0.0000,  1.0000]
================================================================================

    4        -1.159226403100E+04     1.2378E-04     1.1199E-04    -5.9012E-01
MG BCs: +ve charge blocks (gridpoints):     31108 (   17195487).
MG BCs: -ve charge blocks (gridpoints):      8387 (    1117602).
MG BCs:     Elided blocks (gridpoints):    169524 (  177983376).
MG BCs: Computational effort saved:  99.9799%.
MG BCs: Charge after coarse-graining:           -9.0009853.
MG DL_MG: Calling solver with defect correction order = 8
MG DL_MG: Solver finished
MG Hartree energy from (\int phi*rho dr):              1439.337011
MG Hartree energy from (\int eps (grad phi)^2 dr):     1438.692298
MG Discrepancy due to finite box and discretization:     -0.644713 (  -0.04479%)
MG Correction to account for finite box:                  0.469399
MG Remaining discrepancy, due to discretization:         -0.175314 (  -0.01218%)
      ideal mu1:      -0.762092531615
             Q0:  -11592.450906378799
             G0:      -0.377273288532
   RMS gradient:       0.000093765625
MG BCs: +ve charge blocks (gridpoints):     31110 (   17195565).
MG BCs: -ve charge blocks (gridpoints):      8385 (    1117334).
MG BCs:     Elided blocks (gridpoints):    169522 (  177983566).
MG BCs: Computational effort saved:  99.9799%.
MG BCs: Charge after coarse-graining:           -9.0009853.
MG DL_MG: Calling solver with defect correction order = 8
MG DL_MG: Solver finished
MG Hartree energy from (\int phi*rho dr):              1439.830269
MG Hartree energy from (\int eps (grad phi)^2 dr):     1439.185409
MG Discrepancy due to finite box and discretization:     -0.644860 (  -0.04479%)
MG Correction to account for finite box:                  0.469362
MG Remaining discrepancy, due to discretization:         -0.175498 (  -0.01219%)
     Trial step:       0.524328053410
             Q1:  -11592.586529189488
 Quadratic coef:       0.062192158290
 Linear coef   :      -0.197814968979
           Qmin:  -11592.608204191853
Quadratic minimum step length (  0.833866684101) accepted
    Initial Ne1:    7233.99952131
      Final Ne1:    7234.00000000

=================== Penalty functional idempotency correction ==================
 RMS occupancy error at iteration   1:  0.002097 (step -0.4006 Ne1=   7234.0000)
 RMS occupancy error at iteration   2:  0.000133 (step -0.4990 Ne1=   7234.0000)
 RMS occupancy error at iteration   3:  0.000001 (step -0.5000 Ne1=   7234.0000)
            Final RMS occupancy error   :  0.000000 (Ne1=   7234.0000)
               Final occupancy bounds   : [  0.0000,  1.0000]
================================================================================

    5        -1.159245090638E+04     9.3766E-05     8.4835E-05    -1.8688E-01
MG BCs: +ve charge blocks (gridpoints):     31116 (   17195535).
MG BCs: -ve charge blocks (gridpoints):      8384 (    1117323).
MG BCs:     Elided blocks (gridpoints):    169516 (  177983607).
MG BCs: Computational effort saved:  99.9799%.
MG BCs: Charge after coarse-graining:           -9.0009853.
MG DL_MG: Calling solver with defect correction order = 8
MG DL_MG: Solver finished
MG Hartree energy from (\int phi*rho dr):              1440.130785
MG Hartree energy from (\int eps (grad phi)^2 dr):     1439.485843
MG Discrepancy due to finite box and discretization:     -0.644942 (  -0.04478%)
MG Correction to account for finite box:                  0.469333
MG Remaining discrepancy, due to discretization:         -0.175609 (  -0.01219%)
      ideal mu1:      -0.761615244477
             Q0:  -11592.601595931221
             G0:      -0.456463936941
   RMS gradient:       0.000105137396
MG BCs: +ve charge blocks (gridpoints):     31111 (   17194004).
MG BCs: -ve charge blocks (gridpoints):      8384 (    1118080).
MG BCs:     Elided blocks (gridpoints):    169521 (  177984381).
MG BCs: Computational effort saved:  99.9799%.
MG BCs: Charge after coarse-graining:           -9.0009851.
MG DL_MG: Calling solver with defect correction order = 8
MG DL_MG: Solver finished
MG Hartree energy from (\int phi*rho dr):              1437.744401
MG Hartree energy from (\int eps (grad phi)^2 dr):     1437.099713
MG Discrepancy due to finite box and discretization:     -0.644688 (  -0.04484%)
MG Correction to account for finite box:                  0.469136
MG Remaining discrepancy, due to discretization:         -0.175552 (  -0.01221%)
     Trial step:       0.661225903363
             Q1:  -11592.769084655913
 Quadratic coef:       0.134337054364
 Linear coef   :      -0.301825779056
           Qmin:  -11592.771129946490
Quadratic minimum step length (  0.742814498799) accepted
    Initial Ne1:    7233.99946385
      Final Ne1:    7234.00000000

=================== Penalty functional idempotency correction ==================
 RMS occupancy error at iteration   1:  0.006538 (step -0.2887 Ne1=   7234.0000)
 RMS occupancy error at iteration   2:  0.000660 (step -0.4886 Ne1=   7234.0000)
 RMS occupancy error at iteration   3:  0.000027 (step -0.5015 Ne1=   7234.0000)
            Final RMS occupancy error   :  0.000000 (Ne1=   7234.0000)
               Final occupancy bounds   : [  0.0000,  1.0000]
================================================================================

    6        -1.159260159593E+04     1.0514E-04     9.5124E-05    -1.5069E-01
MG BCs: +ve charge blocks (gridpoints):     31112 (   17193797).
MG BCs: -ve charge blocks (gridpoints):      8384 (    1118194).
MG BCs:     Elided blocks (gridpoints):    169520 (  177984474).
MG BCs: Computational effort saved:  99.9799%.
MG BCs: Charge after coarse-graining:           -9.0009850.
MG DL_MG: Calling solver with defect correction order = 8
MG DL_MG: Solver finished
MG Hartree energy from (\int phi*rho dr):              1437.486277
MG Hartree energy from (\int eps (grad phi)^2 dr):     1436.841578
MG Discrepancy due to finite box and discretization:     -0.644699 (  -0.04485%)
MG Correction to account for finite box:                  0.469152
MG Remaining discrepancy, due to discretization:         -0.175547 (  -0.01221%)
      ideal mu1:      -0.760665028754
             Q0:  -11592.778033213806
             G0:      -0.516031746107
   RMS gradient:       0.000109756073
MG BCs: +ve charge blocks (gridpoints):     31109 (   17195511).
MG BCs: -ve charge blocks (gridpoints):      8383 (    1117469).
MG BCs:     Elided blocks (gridpoints):    169523 (  177983485).
MG BCs: Computational effort saved:  99.9799%.
MG BCs: Charge after coarse-graining:           -9.0009854.
MG DL_MG: Calling solver with defect correction order = 8
MG DL_MG: Solver finished
MG Hartree energy from (\int phi*rho dr):              1438.957326
MG Hartree energy from (\int eps (grad phi)^2 dr):     1438.313034
MG Discrepancy due to finite box and discretization:     -0.644293 (  -0.04477%)
MG Correction to account for finite box:                  0.469081
MG Remaining discrepancy, due to discretization:         -0.175212 (  -0.01218%)
     Trial step:       0.700833923265
             Q1:  -11592.978240995435
 Quadratic coef:       0.161444771526
 Linear coef   :      -0.361652553154
           Qmin:  -11592.980567752345
Quadratic minimum step length (  0.784969297211) accepted
    Initial Ne1:    7233.99961365
      Final Ne1:    7234.00000000

=================== Penalty functional idempotency correction ==================
 RMS occupancy error at iteration   1:  0.000441 (step -0.4792 Ne1=   7234.0000)
 RMS occupancy error at iteration   2:  0.000005 (step -0.4999 Ne1=   7234.0000)
            Final RMS occupancy error   :  0.000000 (Ne1=   7234.0000)
               Final occupancy bounds   : [ -0.0000,  1.0000]
================================================================================

    7        -1.159277803321E+04     1.0976E-04     9.9302E-05    -1.7644E-01
MG BCs: +ve charge blocks (gridpoints):     31108 (   17195678).
MG BCs: -ve charge blocks (gridpoints):      8382 (    1117395).
MG BCs:     Elided blocks (gridpoints):    169524 (  177983392).
MG BCs: Computational effort saved:  99.9799%.
MG BCs: Charge after coarse-graining:           -9.0009855.
MG DL_MG: Calling solver with defect correction order = 8
MG DL_MG: Solver finished
MG Hartree energy from (\int phi*rho dr):              1439.135117
MG Hartree energy from (\int eps (grad phi)^2 dr):     1438.490872
MG Discrepancy due to finite box and discretization:     -0.644245 (  -0.04477%)
MG Correction to account for finite box:                  0.469072
MG Remaining discrepancy, due to discretization:         -0.175172 (  -0.01217%)
      ideal mu1:      -0.761919514023
             Q0:  -11592.979980609845
             G0:      -0.548214964257
   RMS gradient:       0.000113450872
MG BCs: +ve charge blocks (gridpoints):     31110 (   17195684).
MG BCs: -ve charge blocks (gridpoints):      8385 (    1117112).
MG BCs:     Elided blocks (gridpoints):    169522 (  177983669).
MG BCs: Computational effort saved:  99.9799%.
MG BCs: Charge after coarse-graining:           -9.0009856.
MG DL_MG: Calling solver with defect correction order = 8
MG DL_MG: Solver finished
MG Hartree energy from (\int phi*rho dr):              1439.154325
MG Hartree energy from (\int eps (grad phi)^2 dr):     1438.510363
MG Discrepancy due to finite box and discretization:     -0.643962 (  -0.04475%)
MG Correction to account for finite box:                  0.468957
MG Remaining discrepancy, due to discretization:         -0.175005 (  -0.01216%)
     Trial step:       0.741709587512
             Q1:  -11593.192397138570
 Quadratic coef:       0.194199766283
 Linear coef   :      -0.406616295007
           Qmin:  -11593.192824340980
Quadratic minimum step length (  0.776497341416) accepted
    Initial Ne1:    7233.99960097
      Final Ne1:    7234.00000000

=================== Penalty functional idempotency correction ==================
 RMS occupancy error at iteration   1:  0.002780 (step -0.3940 Ne1=   7234.0000)
 RMS occupancy error at iteration   2:  0.000139 (step -0.4962 Ne1=   7234.0000)
 RMS occupancy error at iteration   3:  0.000001 (step -0.5000 Ne1=   7234.0000)
            Final RMS occupancy error   :  0.000000 (Ne1=   7234.0000)
               Final occupancy bounds   : [  0.0000,  1.0000]
================================================================================

    8        -1.159297998061E+04     1.1345E-04     1.0265E-04    -2.0195E-01
MG BCs: +ve charge blocks (gridpoints):     31110 (   17195663).
MG BCs: -ve charge blocks (gridpoints):      8384 (    1117104).
MG BCs:     Elided blocks (gridpoints):    169522 (  177983698).
MG BCs: Computational effort saved:  99.9799%.
MG BCs: Charge after coarse-graining:           -9.0009857.
MG DL_MG: Calling solver with defect correction order = 8
MG DL_MG: Solver finished
MG Hartree energy from (\int phi*rho dr):              1439.167164
MG Hartree energy from (\int eps (grad phi)^2 dr):     1438.523214
MG Discrepancy due to finite box and discretization:     -0.643950 (  -0.04474%)
MG Correction to account for finite box:                  0.468951
MG Remaining discrepancy, due to discretization:         -0.174999 (  -0.01216%)
      ideal mu1:      -0.761538118131
             Q0:  -11593.193741166964
             G0:      -0.469339986846
   RMS gradient:       0.000103615639
MG BCs: +ve charge blocks (gridpoints):     31108 (   17194632).
MG BCs: -ve charge blocks (gridpoints):      8382 (    1117659).
MG BCs:     Elided blocks (gridpoints):    169524 (  177984174).
MG BCs: Computational effort saved:  99.9799%.
MG BCs: Charge after coarse-graining:           -9.0009854.
MG DL_MG: Calling solver with defect correction order = 8
MG DL_MG: Solver finished
MG Hartree energy from (\int phi*rho dr):              1437.907054
MG Hartree energy from (\int eps (grad phi)^2 dr):     1437.263218
MG Discrepancy due to finite box and discretization:     -0.643836 (  -0.04478%)
MG Correction to account for finite box:                  0.468817
MG Remaining discrepancy, due to discretization:         -0.175019 (  -0.01217%)
     Trial step:       0.758904159170
             Q1:  -11593.337275463156
 Quadratic coef:       0.212649771891
 Linear coef   :      -0.356184068082
           Qmin:  -11593.342891444940
Quadratic minimum step length (  0.635574560683) accepted
    Initial Ne1:    7233.99972744
      Final Ne1:    7234.00000000

=================== Penalty functional idempotency correction ==================
 RMS occupancy error at iteration   1:  0.004521 (step -0.3511 Ne1=   7234.0000)
 RMS occupancy error at iteration   2:  0.000299 (step -0.4959 Ne1=   7234.0000)
 RMS occupancy error at iteration   3:  0.000007 (step -0.5004 Ne1=   7234.0000)
            Final RMS occupancy error   :  0.000000 (Ne1=   7234.0000)
               Final occupancy bounds   : [  0.0000,  1.0000]
================================================================================

    9        -1.159319374117E+04     1.0362E-04     9.3747E-05    -2.1376E-01
MG BCs: +ve charge blocks (gridpoints):     31107 (   17194739).
MG BCs: -ve charge blocks (gridpoints):      8382 (    1117596).
MG BCs:     Elided blocks (gridpoints):    169525 (  177984130).
MG BCs: Computational effort saved:  99.9799%.
MG BCs: Charge after coarse-graining:           -9.0009855.
MG DL_MG: Calling solver with defect correction order = 8
MG DL_MG: Solver finished
MG Hartree energy from (\int phi*rho dr):              1438.106422
MG Hartree energy from (\int eps (grad phi)^2 dr):     1437.462580
MG Discrepancy due to finite box and discretization:     -0.643842 (  -0.04477%)
MG Correction to account for finite box:                  0.468837
MG Remaining discrepancy, due to discretization:         -0.175005 (  -0.01217%)
      ideal mu1:      -0.760469113987
   10        -1.159335790023E+04     8.1668E-05     7.3889E-05    -1.6416E-01
Finished density kernel iterations (  10)

Writing density kernel to file "complex_14541.vacuum_dkn" ... done


>>> Density kernel optimised for the current NGWF basis:
     ~~~~~~~~~~~~~~~~~~~~~~~~~~~~~~~~~~~~~~~~~~~~~~~~~~~~~~~~~~~
     Total energy                =  -1.15933579002281E+04  Eh
     Estimated bandgap           =  -4.5391E-01  Eh
     RMS occupancy error         =   1.6181E-09
     [H,K] commutator            =   7.3889E-05
     Occupancy bounds            = [  0.000:  1.000]
     ~~~~~~~~~~~~~~~~~~~~~~~~~~~~~~~~~~~~~~~~~~~~~~~~~~~~~~~~~~~




################################################################################
########################### NGWF CG iteration  001 #############################
################################################################################
****** Reciprocal space K.E. preconditioning with k_zero =  3.5000 a0^-1 *******

>>> Checking for convergence of NGWFs:   NOT CONVERGED
  ========================================================================
         NGWF RMS gradient =  1.5636E-03 >  2.0000E-06  | above tolerance
  ========================================================================

>>> Improving NGWFs using line search:
============ Calculation of NGWF S^-1 using Hotelling algorithm ================ 
         Iteration  |  Frobenius norm and Maximum abs value    (of I-S*S_n^-1)   
               1       0.19321328E+00     0.49847460E-02
               2       0.86319139E-03     0.42102810E-04
               3       0.29884012E-07     0.29513179E-08
               4       0.12868700E-12     0.59952043E-14
================================================================================
MG BCs: +ve charge blocks (gridpoints):     30640 (   17137437).
MG BCs: -ve charge blocks (gridpoints):      8408 (    1117659).
MG BCs:     Elided blocks (gridpoints):    169994 (  178041369).
MG BCs: Computational effort saved:  99.9801%.
MG BCs: Charge after coarse-graining:           -9.0009850.
MG DL_MG: Calling solver with defect correction order = 8
MG DL_MG: Solver finished
MG Hartree energy from (\int phi*rho dr):              1406.625583
MG Hartree energy from (\int eps (grad phi)^2 dr):     1405.982481
MG Discrepancy due to finite box and discretization:     -0.643102 (  -0.04572%)
MG Correction to account for finite box:                  0.468769
MG Remaining discrepancy, due to discretization:         -0.174333 (  -0.01239%)
============ Calculation of NGWF S^-1 using Hotelling algorithm ================ 
         Iteration  |  Frobenius norm and Maximum abs value    (of I-S*S_n^-1)   
               1       0.18590411E+01     0.43936900E-01
               2       0.71717917E-01     0.28262082E-02
               3       0.14659322E-03     0.13284524E-04
               4       0.12540012E-08     0.30461054E-09
               5       0.11310070E-12     0.57731597E-14
================================================================================
------------------------------- NGWF line search -------------------------------
RMS gradient                =       0.00156361525311
Trial step length           =               0.122474
Gradient along search dir.  =       -271.55005428859
Functional at step 0        =  -11593.35790022811852
Functional at step 1        =  -11624.12418611277826
Functional predicted        =  -11704.33693034938551
Selected quadratic step     =               0.817374
--------------------------- NGWF line search finished --------------------------
                                               
Writing NGWFs to file "complex_14541.vacuum_tightbox_ngwfs"....  done

>>> Optimising kernel for current NGWFs:
   Initial electron number for spin 1:    7268.50253372
     Final electron number for spin 1:    7234.00000000

=================== Penalty functional idempotency correction ==================
 RMS occupancy error at iteration   1:  0.004238 (step -0.4864 Ne1=   7234.0000)
 RMS occupancy error at iteration   2:  0.000068 (step -0.5003 Ne1=   7234.0000)
            Final RMS occupancy error   :  0.000000 (Ne1=   7234.0000)
               Final occupancy bounds   : [  0.0000,  1.0000]
================================================================================

................................................................................
<<<<<<<<<<<<<< LNV (Original version) density kernel optimisation >>>>>>>>>>>>>>
~~~~~~~~~~~~~~~~~~~~~~~~~~~~~~~~~~~~~~~~~~~~~~~~~~~~~~~~~~~~~~~~~~~~~~~~~~~~~~~~
   iter  |      energy (Eh)       | rms gradient |  commutator  |   dE (Eh)
MG BCs: +ve charge blocks (gridpoints):     24472 (   16884527).
MG BCs: -ve charge blocks (gridpoints):      8565 (    1100945).
MG BCs:     Elided blocks (gridpoints):    176168 (  178310993).
MG BCs: Computational effort saved:  99.9832%.
MG BCs: Charge after coarse-graining:           -9.0006460.
MG DL_MG: Calling solver with defect correction order = 8
MG DL_MG: Solver finished
MG Hartree energy from (\int phi*rho dr):              1250.494776
MG Hartree energy from (\int eps (grad phi)^2 dr):     1249.851424
MG Discrepancy due to finite box and discretization:     -0.643351 (  -0.05145%)
MG Correction to account for finite box:                  0.468438
MG Remaining discrepancy, due to discretization:         -0.174914 (  -0.01399%)
      ideal mu1:      -0.702241426545
             Q0:  -11703.515044313041
             G0:     -10.092895584551
   RMS gradient:       0.000485398287
MG BCs: +ve charge blocks (gridpoints):     24526 (   16897491).
MG BCs: -ve charge blocks (gridpoints):      8554 (    1097936).
MG BCs:     Elided blocks (gridpoints):    176114 (  178301038).
MG BCs: Computational effort saved:  99.9831%.
MG BCs: Charge after coarse-graining:           -9.0006428.
MG DL_MG: Calling solver with defect correction order = 8
MG DL_MG: Solver finished
MG Hartree energy from (\int phi*rho dr):              1265.125387
MG Hartree energy from (\int eps (grad phi)^2 dr):     1264.476642
MG Discrepancy due to finite box and discretization:     -0.648745 (  -0.05128%)
MG Correction to account for finite box:                  0.468181
MG Remaining discrepancy, due to discretization:         -0.180564 (  -0.01427%)
     Trial step:       0.694507147238
             Q1:  -11703.227002365165
 Quadratic coef:       7.297630067675
 Linear coef   :      -7.009588119800
           Qmin:  -11705.198273154239
Quadratic minimum step length (  0.333547261457) accepted
    Initial Ne1:    7233.99962179
      Final Ne1:    7234.00000000

=================== Penalty functional idempotency correction ==================
 RMS occupancy error at iteration   1:  0.000369 (step -0.4985 Ne1=   7234.0000)
 RMS occupancy error at iteration   2:  0.000000 (step -0.5000 Ne1=   7234.0000)
            Final RMS occupancy error   :  0.000000 (Ne1=   7234.0000)
               Final occupancy bounds   : [  0.0000,  1.0000]
================================================================================

    1        -1.170351504431E+04     4.8540E-04     4.3917E-04
MG BCs: +ve charge blocks (gridpoints):     24506 (   16890866).
MG BCs: -ve charge blocks (gridpoints):      8559 (    1099522).
MG BCs:     Elided blocks (gridpoints):    176134 (  178306077).
MG BCs: Computational effort saved:  99.9832%.
MG BCs: Charge after coarse-graining:           -9.0006444.
MG DL_MG: Calling solver with defect correction order = 8
MG DL_MG: Solver finished
MG Hartree energy from (\int phi*rho dr):              1256.654490
MG Hartree energy from (\int eps (grad phi)^2 dr):     1256.008637
MG Discrepancy due to finite box and discretization:     -0.645853 (  -0.05139%)
MG Correction to account for finite box:                  0.468293
MG Remaining discrepancy, due to discretization:         -0.177560 (  -0.01413%)
      ideal mu1:      -0.708369337363
             Q0:  -11705.173399078776
             G0:      -1.059776159620
   RMS gradient:       0.000157863655
MG BCs: +ve charge blocks (gridpoints):     24504 (   16890214).
MG BCs: -ve charge blocks (gridpoints):      8557 (    1100524).
MG BCs:     Elided blocks (gridpoints):    176136 (  178305727).
MG BCs: Computational effort saved:  99.9832%.
MG BCs: Charge after coarse-graining:           -9.0006444.
MG DL_MG: Calling solver with defect correction order = 8
MG DL_MG: Solver finished
MG Hartree energy from (\int phi*rho dr):              1257.545821
MG Hartree energy from (\int eps (grad phi)^2 dr):     1256.899643
MG Discrepancy due to finite box and discretization:     -0.646179 (  -0.05138%)
MG Correction to account for finite box:                  0.468259
MG Remaining discrepancy, due to discretization:         -0.177919 (  -0.01415%)
     Trial step:       0.481301316250
             Q1:  -11705.400869640755
 Quadratic coef:       0.282601098577
 Linear coef   :      -0.510071660555
           Qmin:  -11705.403558391859
Quadratic minimum step length (  0.434354577605) accepted
    Initial Ne1:    7233.99994789
      Final Ne1:    7234.00000000

=================== Penalty functional idempotency correction ==================
 RMS occupancy error at iteration   1:  0.000170 (step -0.4988 Ne1=   7234.0000)
 RMS occupancy error at iteration   2:  0.000000 (step -0.5000 Ne1=   7234.0000)
            Final RMS occupancy error   :  0.000000 (Ne1=   7234.0000)
               Final occupancy bounds   : [  0.0000,  1.0000]
================================================================================

    2        -1.170517339908E+04     1.5786E-04     1.4283E-04    -1.6584E+00
MG BCs: +ve charge blocks (gridpoints):     24505 (   16890278).
MG BCs: -ve charge blocks (gridpoints):      8557 (    1100435).
MG BCs:     Elided blocks (gridpoints):    176135 (  178305752).
MG BCs: Computational effort saved:  99.9832%.
MG BCs: Charge after coarse-graining:           -9.0006444.
MG DL_MG: Calling solver with defect correction order = 8
MG DL_MG: Solver finished
MG Hartree energy from (\int phi*rho dr):              1257.458624
MG Hartree energy from (\int eps (grad phi)^2 dr):     1256.812478
MG Discrepancy due to finite box and discretization:     -0.646146 (  -0.05139%)
MG Correction to account for finite box:                  0.468263
MG Remaining discrepancy, due to discretization:         -0.177883 (  -0.01415%)
      ideal mu1:      -0.709236439548
             Q0:  -11705.404083611793
             G0:      -0.209577577033
   RMS gradient:       0.000069868773
MG BCs: +ve charge blocks (gridpoints):     24504 (   16889842).
MG BCs: -ve charge blocks (gridpoints):      8555 (    1100781).
MG BCs:     Elided blocks (gridpoints):    176136 (  178305842).
MG BCs: Computational effort saved:  99.9832%.
MG BCs: Charge after coarse-graining:           -9.0006444.
MG DL_MG: Calling solver with defect correction order = 8
MG DL_MG: Solver finished
MG Hartree energy from (\int phi*rho dr):              1257.006178
MG Hartree energy from (\int eps (grad phi)^2 dr):     1256.360099
MG Discrepancy due to finite box and discretization:     -0.646079 (  -0.05140%)
MG Correction to account for finite box:                  0.468216
MG Remaining discrepancy, due to discretization:         -0.177863 (  -0.01415%)
     Trial step:       0.457225797523
             Q1:  -11705.473709274083
 Quadratic coef:       0.026198612512
 Linear coef   :      -0.095824274802
           Qmin:  -11705.491705538692
Quadratic minimum step length (  0.836176542730) accepted
    Initial Ne1:    7233.99998032
      Final Ne1:    7234.00000000

=================== Penalty functional idempotency correction ==================
 RMS occupancy error at iteration   1:  0.000316 (step -0.4869 Ne1=   7234.0000)
 RMS occupancy error at iteration   2:  0.000003 (step -0.5000 Ne1=   7234.0000)
            Final RMS occupancy error   :  0.000000 (Ne1=   7234.0000)
               Final occupancy bounds   : [  0.0000,  1.0000]
================================================================================

    3        -1.170540408361E+04     6.9869E-05     6.3214E-05    -2.3068E-01
MG BCs: +ve charge blocks (gridpoints):     24503 (   16889487).
MG BCs: -ve charge blocks (gridpoints):      8554 (    1101064).
MG BCs:     Elided blocks (gridpoints):    176137 (  178305914).
MG BCs: Computational effort saved:  99.9832%.
MG BCs: Charge after coarse-graining:           -9.0006444.
MG DL_MG: Calling solver with defect correction order = 8
MG DL_MG: Solver finished
MG Hartree energy from (\int phi*rho dr):              1256.631763
MG Hartree energy from (\int eps (grad phi)^2 dr):     1255.985738
MG Discrepancy due to finite box and discretization:     -0.646025 (  -0.05141%)
MG Correction to account for finite box:                  0.468177
MG Remaining discrepancy, due to discretization:         -0.177847 (  -0.01415%)
      ideal mu1:      -0.708920616349
             Q0:  -11705.491675708909
             G0:      -0.117300756723
   RMS gradient:       0.000052290015
MG BCs: +ve charge blocks (gridpoints):     24504 (   16889595).
MG BCs: -ve charge blocks (gridpoints):      8555 (    1101021).
MG BCs:     Elided blocks (gridpoints):    176136 (  178305849).
MG BCs: Computational effort saved:  99.9832%.
MG BCs: Charge after coarse-graining:           -9.0006444.
MG DL_MG: Calling solver with defect correction order = 8
MG DL_MG: Solver finished
MG Hartree energy from (\int phi*rho dr):              1256.626116
MG Hartree energy from (\int eps (grad phi)^2 dr):     1255.980340
MG Discrepancy due to finite box and discretization:     -0.645776 (  -0.05139%)
MG Correction to account for finite box:                  0.468097
MG Remaining discrepancy, due to discretization:         -0.177679 (  -0.01414%)
     Trial step:       0.618321507486
             Q1:  -11705.539501611725
 Quadratic coef:       0.024703677909
 Linear coef   :      -0.072529580726
           Qmin:  -11705.544912114634
Quadratic minimum step length (  0.907690746636) accepted
    Initial Ne1:    7233.99998573
      Final Ne1:    7234.00000000

=================== Penalty functional idempotency correction ==================
 RMS occupancy error at iteration   1:  0.000776 (step -0.4652 Ne1=   7234.0000)
 RMS occupancy error at iteration   2:  0.000014 (step -0.5000 Ne1=   7234.0000)
            Final RMS occupancy error   :  0.000000 (Ne1=   7234.0000)
               Final occupancy bounds   : [  0.0000,  1.0000]
================================================================================

    4        -1.170549167571E+04     5.2290E-05     4.7310E-05    -8.7592E-02
MG BCs: +ve charge blocks (gridpoints):     24506 (   16889581).
MG BCs: -ve charge blocks (gridpoints):      8555 (    1101036).
MG BCs:     Elided blocks (gridpoints):    176134 (  178305848).
MG BCs: Computational effort saved:  99.9832%.
MG BCs: Charge after coarse-graining:           -9.0006444.
MG DL_MG: Calling solver with defect correction order = 8
MG DL_MG: Solver finished
MG Hartree energy from (\int phi*rho dr):              1256.627582
MG Hartree energy from (\int eps (grad phi)^2 dr):     1255.981923
MG Discrepancy due to finite box and discretization:     -0.645658 (  -0.05138%)
MG Correction to account for finite box:                  0.468058
MG Remaining discrepancy, due to discretization:         -0.177600 (  -0.01413%)
      ideal mu1:      -0.710282883256
             Q0:  -11705.544767915155
             G0:      -0.145815327061
   RMS gradient:       0.000058150629
MG BCs: +ve charge blocks (gridpoints):     24503 (   16891888).
MG BCs: -ve charge blocks (gridpoints):      8549 (    1100230).
MG BCs:     Elided blocks (gridpoints):    176137 (  178304347).
MG BCs: Computational effort saved:  99.9832%.
MG BCs: Charge after coarse-graining:           -9.0006440.
MG DL_MG: Calling solver with defect correction order = 8
MG DL_MG: Solver finished
MG Hartree energy from (\int phi*rho dr):              1257.900577
MG Hartree energy from (\int eps (grad phi)^2 dr):     1257.255238
MG Discrepancy due to finite box and discretization:     -0.645339 (  -0.05130%)
MG Correction to account for finite box:                  0.467853
MG Remaining discrepancy, due to discretization:         -0.177486 (  -0.01411%)
     Trial step:       0.749162673117
             Q1:  -11705.606208675192
 Quadratic coef:       0.047798640166
 Linear coef   :      -0.109239400202
           Qmin:  -11705.607182068126
Quadratic minimum step length (  0.856071226938) accepted
    Initial Ne1:    7233.99994275
      Final Ne1:    7234.00000000

=================== Penalty functional idempotency correction ==================
 RMS occupancy error at iteration   1:  0.002502 (step -0.4045 Ne1=   7234.0000)
 RMS occupancy error at iteration   2:  0.000093 (step -0.4989 Ne1=   7234.0000)
 RMS occupancy error at iteration   3:  0.000001 (step -0.5000 Ne1=   7234.0000)
            Final RMS occupancy error   :  0.000000 (Ne1=   7234.0000)
               Final occupancy bounds   : [  0.0000,  1.0000]
================================================================================

    5        -1.170554476792E+04     5.8151E-05     5.2612E-05    -5.3092E-02
MG BCs: +ve charge blocks (gridpoints):     24504 (   16892185).
MG BCs: -ve charge blocks (gridpoints):      8549 (    1100147).
MG BCs:     Elided blocks (gridpoints):    176136 (  178304133).
MG BCs: Computational effort saved:  99.9832%.
MG BCs: Charge after coarse-graining:           -9.0006439.
MG DL_MG: Calling solver with defect correction order = 8
MG DL_MG: Solver finished
MG Hartree energy from (\int phi*rho dr):              1258.085069
MG Hartree energy from (\int eps (grad phi)^2 dr):     1257.439767
MG Discrepancy due to finite box and discretization:     -0.645302 (  -0.05129%)
MG Correction to account for finite box:                  0.467833
MG Remaining discrepancy, due to discretization:         -0.177469 (  -0.01411%)
      ideal mu1:      -0.713310757771
             Q0:  -11705.608241412439
             G0:      -0.158082675562
   RMS gradient:       0.000058961094
MG BCs: +ve charge blocks (gridpoints):     24506 (   16892378).
MG BCs: -ve charge blocks (gridpoints):      8549 (    1100320).
MG BCs:     Elided blocks (gridpoints):    176134 (  178303767).
MG BCs: Computational effort saved:  99.9832%.
MG BCs: Charge after coarse-graining:           -9.0006439.
MG DL_MG: Calling solver with defect correction order = 8
MG DL_MG: Solver finished
MG Hartree energy from (\int phi*rho dr):              1257.735342
MG Hartree energy from (\int eps (grad phi)^2 dr):     1257.090269
MG Discrepancy due to finite box and discretization:     -0.645072 (  -0.05129%)
MG Correction to account for finite box:                  0.467544
MG Remaining discrepancy, due to discretization:         -0.177529 (  -0.01411%)
     Trial step:       0.800834944761
             Q1:  -11705.681326771504
 Quadratic coef:       0.053512771687
 Linear coef   :      -0.126598130751
           Qmin:  -11705.683116466584
Quadratic minimum step length (  0.947289813737) accepted
    Initial Ne1:    7233.99993475
      Final Ne1:    7234.00000000

=================== Penalty functional idempotency correction ==================
 RMS occupancy error at iteration   1:  0.005894 (step -0.3236 Ne1=   7234.0000)
 RMS occupancy error at iteration   2:  0.000365 (step -0.4878 Ne1=   7234.0000)
 RMS occupancy error at iteration   3:  0.000008 (step -0.5004 Ne1=   7234.0000)
            Final RMS occupancy error   :  0.000000 (Ne1=   7234.0000)
               Final occupancy bounds   : [  0.0000,  1.0000]
================================================================================

    6        -1.170560824141E+04     5.8961E-05     5.3345E-05    -6.3473E-02
MG BCs: +ve charge blocks (gridpoints):     24506 (   16892398).
MG BCs: -ve charge blocks (gridpoints):      8549 (    1100323).
MG BCs:     Elided blocks (gridpoints):    176134 (  178303744).
MG BCs: Computational effort saved:  99.9832%.
MG BCs: Charge after coarse-graining:           -9.0006439.
MG DL_MG: Calling solver with defect correction order = 8
MG DL_MG: Solver finished
MG Hartree energy from (\int phi*rho dr):              1257.667159
MG Hartree energy from (\int eps (grad phi)^2 dr):     1257.022081
MG Discrepancy due to finite box and discretization:     -0.645078 (  -0.05129%)
MG Correction to account for finite box:                  0.467543
MG Remaining discrepancy, due to discretization:         -0.177535 (  -0.01412%)
      ideal mu1:      -0.714751827969
             Q0:  -11705.690086097340
             G0:      -0.160977099691
   RMS gradient:       0.000061301683
MG BCs: +ve charge blocks (gridpoints):     24504 (   16889151).
MG BCs: -ve charge blocks (gridpoints):      8552 (    1101253).
MG BCs:     Elided blocks (gridpoints):    176136 (  178306061).
MG BCs: Computational effort saved:  99.9832%.
MG BCs: Charge after coarse-graining:           -9.0006445.
MG DL_MG: Calling solver with defect correction order = 8
MG DL_MG: Solver finished
MG Hartree energy from (\int phi*rho dr):              1256.057981
MG Hartree energy from (\int eps (grad phi)^2 dr):     1255.412914
MG Discrepancy due to finite box and discretization:     -0.645067 (  -0.05136%)
MG Correction to account for finite box:                  0.467453
MG Remaining discrepancy, due to discretization:         -0.177614 (  -0.01414%)
     Trial step:       0.870989543942
             Q1:  -11705.759606838808
 Quadratic coef:       0.070688629177
 Linear coef   :      -0.140209370645
           Qmin:  -11705.759611662645
Quadratic minimum step length (  0.863794483042) accepted
    Initial Ne1:    7233.99995646
      Final Ne1:    7234.00000000

=================== Penalty functional idempotency correction ==================
 RMS occupancy error at iteration   1:  0.000331 (step -0.4740 Ne1=   7234.0000)
 RMS occupancy error at iteration   2:  0.000002 (step -0.5000 Ne1=   7234.0000)
            Final RMS occupancy error   :  0.000000 (Ne1=   7234.0000)
               Final occupancy bounds   : [  0.0000,  1.0000]
================================================================================

    7        -1.170569008610E+04     6.1302E-05     5.5463E-05    -8.1845E-02
MG BCs: +ve charge blocks (gridpoints):     24504 (   16889159).
MG BCs: -ve charge blocks (gridpoints):      8552 (    1101254).
MG BCs:     Elided blocks (gridpoints):    176136 (  178306052).
MG BCs: Computational effort saved:  99.9832%.
MG BCs: Charge after coarse-graining:           -9.0006445.
MG DL_MG: Calling solver with defect correction order = 8
MG DL_MG: Solver finished
MG Hartree energy from (\int phi*rho dr):              1256.071185
MG Hartree energy from (\int eps (grad phi)^2 dr):     1255.426116
MG Discrepancy due to finite box and discretization:     -0.645068 (  -0.05136%)
MG Correction to account for finite box:                  0.467455
MG Remaining discrepancy, due to discretization:         -0.177613 (  -0.01414%)
      ideal mu1:      -0.713737066465
             Q0:  -11705.759337762487
             G0:      -0.244893990848
   RMS gradient:       0.000075906223
MG BCs: +ve charge blocks (gridpoints):     24508 (   16888916).
MG BCs: -ve charge blocks (gridpoints):      8552 (    1101277).
MG BCs:     Elided blocks (gridpoints):    176132 (  178306272).
MG BCs: Computational effort saved:  99.9832%.
MG BCs: Charge after coarse-graining:           -9.0006446.
[...]
MG Discrepancy due to finite box and discretization:     -0.183345 (  -0.01509%)
MG Correction to account for finite box:                  0.006374
MG Remaining discrepancy, due to discretization:         -0.176971 (  -0.01456%)
     Trial step:       0.769122327949
             Q1:  -11740.624169196351
 Quadratic coef:       0.000000003271
 Linear coef   :      -0.000000006879
           Qmin:  -11740.624169196361
Quadratic minimum step length (  0.808904466861) accepted
    Initial Ne1:    7234.00000000
      Final Ne1:    7234.00000000

=================== Penalty functional idempotency correction ==================
 RMS occupancy error at iteration   1:  0.000000 (step -0.5000 Ne1=   7234.0000)
            Final RMS occupancy error   :  0.000000 (Ne1=   7234.0000)
               Final occupancy bounds   : [  0.0000,  1.0000]
================================================================================

    7        -1.174062416919E+04     1.4450E-08     1.3074E-08    -5.4715E-09

Reusing previously generated solute cavity.
MG BCs: +ve charge blocks (gridpoints):     28791 (   19041211).
MG BCs: -ve charge blocks (gridpoints):      8538 (    1069150).
MG BCs:     Elided blocks (gridpoints):    171849 (  176186104).
MG BCs: Computational effort saved:  99.9810%.
MG BCs: Charge after coarse-graining:           -9.0009451.
MG DL_MG: Calling solver with defect correction order = 8
MG DL_MG: Solver finished
MG Hartree energy from (\int phi*rho dr):              1215.185895
MG Hartree energy from (\int eps (grad phi)^2 dr):     1215.002549
MG Discrepancy due to finite box and discretization:     -0.183345 (  -0.01509%)
MG Correction to account for finite box:                  0.006374
MG Remaining discrepancy, due to discretization:         -0.176971 (  -0.01456%)
      ideal mu1:      -0.481086634326
             Q0:  -11740.624169196235
             G0:      -0.000000004891
   RMS gradient:       0.000000016366

Reusing previously generated solute cavity.
MG BCs: +ve charge blocks (gridpoints):     28791 (   19041212).
MG BCs: -ve charge blocks (gridpoints):      8538 (    1069150).
MG BCs:     Elided blocks (gridpoints):    171849 (  176186103).
MG BCs: Computational effort saved:  99.9810%.
MG BCs: Charge after coarse-graining:           -9.0009451.
MG DL_MG: Calling solver with defect correction order = 8
MG DL_MG: Solver finished
MG Hartree energy from (\int phi*rho dr):              1215.185954
MG Hartree energy from (\int eps (grad phi)^2 dr):     1215.002609
MG Discrepancy due to finite box and discretization:     -0.183345 (  -0.01509%)
MG Correction to account for finite box:                  0.006374
MG Remaining discrepancy, due to discretization:         -0.176971 (  -0.01456%)
     Trial step:       0.788762630099
             Q1:  -11740.624169197166
 Quadratic coef:       0.000000002927
 Linear coef   :      -0.000000003858
           Qmin:  -11740.624169197506
Quadratic minimum step length (  0.519882821025) accepted
    Initial Ne1:    7234.00000000
      Final Ne1:    7234.00000000

=================== Penalty functional idempotency correction ==================
 RMS occupancy error at iteration   1:  0.000000 (step -0.5000 Ne1=   7234.0000)
            Final RMS occupancy error   :  0.000000 (Ne1=   7234.0000)
               Final occupancy bounds   : [  0.0000,  1.0000]
================================================================================

    8        -1.174062416920E+04     1.6366E-08     1.4807E-08    -3.4925E-09

Reusing previously generated solute cavity.
MG BCs: +ve charge blocks (gridpoints):     28791 (   19041211).
MG BCs: -ve charge blocks (gridpoints):      8538 (    1069150).
MG BCs:     Elided blocks (gridpoints):    171849 (  176186104).
MG BCs: Computational effort saved:  99.9810%.
MG BCs: Charge after coarse-graining:           -9.0009451.
MG DL_MG: Calling solver with defect correction order = 8
MG DL_MG: Solver finished
MG Hartree energy from (\int phi*rho dr):              1215.185934
MG Hartree energy from (\int eps (grad phi)^2 dr):     1215.002589
MG Discrepancy due to finite box and discretization:     -0.183345 (  -0.01509%)
MG Correction to account for finite box:                  0.006374
MG Remaining discrepancy, due to discretization:         -0.176971 (  -0.01456%)
      ideal mu1:      -0.481086635113
             Q0:  -11740.624169197516
             G0:      -0.000000009628
   RMS gradient:       0.000000014451

Reusing previously generated solute cavity.
MG BCs: +ve charge blocks (gridpoints):     28791 (   19041211).
MG BCs: -ve charge blocks (gridpoints):      8538 (    1069150).
MG BCs:     Elided blocks (gridpoints):    171849 (  176186104).
MG BCs: Computational effort saved:  99.9810%.
MG BCs: Charge after coarse-graining:           -9.0009451.
MG DL_MG: Calling solver with defect correction order = 8
MG DL_MG: Solver finished
MG Hartree energy from (\int phi*rho dr):              1215.185815
MG Hartree energy from (\int eps (grad phi)^2 dr):     1215.002470
MG Discrepancy due to finite box and discretization:     -0.183345 (  -0.01509%)
MG Correction to account for finite box:                  0.006374
MG Remaining discrepancy, due to discretization:         -0.176971 (  -0.01456%)
     Trial step:       0.640362507690
             Q1:  -11740.624169197166
 Quadratic coef:       0.000000006516
 Linear coef   :      -0.000000006166
           Qmin:  -11740.624169198974
Quadratic minimum step length (  0.302981458848) accepted
    Initial Ne1:    7234.00000000
      Final Ne1:    7234.00000000

=================== Penalty functional idempotency correction ==================
 RMS occupancy error at iteration   1:  0.000000 (step -0.5000 Ne1=   7234.0000)
            Final RMS occupancy error   :  0.000000 (Ne1=   7234.0000)
               Final occupancy bounds   : [  0.0000,  1.0000]
================================================================================

    9        -1.174062416920E+04     1.4451E-08     1.3074E-08    -1.2806E-09

Reusing previously generated solute cavity.
MG BCs: +ve charge blocks (gridpoints):     28791 (   19041211).
MG BCs: -ve charge blocks (gridpoints):      8538 (    1069150).
MG BCs:     Elided blocks (gridpoints):    171849 (  176186104).
MG BCs: Computational effort saved:  99.9810%.
MG BCs: Charge after coarse-graining:           -9.0009451.
MG DL_MG: Calling solver with defect correction order = 8
MG DL_MG: Solver finished
MG Hartree energy from (\int phi*rho dr):              1215.185877
MG Hartree energy from (\int eps (grad phi)^2 dr):     1215.002532
MG Discrepancy due to finite box and discretization:     -0.183345 (  -0.01509%)
MG Correction to account for finite box:                  0.006374
MG Remaining discrepancy, due to discretization:         -0.176971 (  -0.01456%)
      ideal mu1:      -0.481086572764
   10        -1.174062416920E+04     8.1483E-09     7.3722E-09    -1.0477E-09
Finished density kernel iterations (  10)

Writing density kernel to file "complex_14541.dkn" ... done


>>> Density kernel optimised for the current NGWF basis:
     ~~~~~~~~~~~~~~~~~~~~~~~~~~~~~~~~~~~~~~~~~~~~~~~~~~~~~~~~~~~
     Total energy                =  -1.17406241691986E+04  Eh
     Estimated bandgap           =   8.2416E-02  Eh
     RMS occupancy error         =   3.6256E-16
     [H,K] commutator            =   7.3722E-09
     Occupancy bounds            = [  0.000:  1.000]
     ~~~~~~~~~~~~~~~~~~~~~~~~~~~~~~~~~~~~~~~~~~~~~~~~~~~~~~~~~~~




################################################################################
########################### NGWF CG iteration  004 #############################
################################################################################
****** Reciprocal space K.E. preconditioning with k_zero =  3.5000 a0^-1 *******

>>> Checking for convergence of NGWFs: 
           ........................................................
           |         *** NGWF optimisation converged ***          |
           | RMS NGWF gradient =    0.00000185923308              |
           | Criteria satisfied:                                  |
           | -> RMS NGWF gradient lower than set threshold.       |
           ========================================================

Reusing previously generated solute cavity.
MG BCs: +ve charge blocks (gridpoints):     28791 (   19041211).
MG BCs: -ve charge blocks (gridpoints):      8538 (    1069150).
MG BCs:     Elided blocks (gridpoints):    171849 (  176186104).
MG BCs: Computational effort saved:  99.9810%.
MG BCs: Charge after coarse-graining:           -9.0009451.
MG DL_MG: Calling solver with defect correction order = 8
MG DL_MG: Solver finished
MG Hartree energy from (\int phi*rho dr):              1215.185877
MG Hartree energy from (\int eps (grad phi)^2 dr):     1215.002532
MG Discrepancy due to finite box and discretization:     -0.183345 (  -0.01509%)
MG Correction to account for finite box:                  0.006374
MG Remaining discrepancy, due to discretization:         -0.176971 (  -0.01456%)

================================================================================
           ---------------- ENERGY COMPONENTS (Eh) ----------------
           | Kinetic                    :     8580.94072468842569 |
           | Pseudo. (local,OBC,corr'd) :    -5080.05274446460862 |
           | Pseudopotential (non-local):     1409.84440030861242 |
           | Hartree (molecular)        :     1215.18587746798994 |
           | Exchange-correlation       :    -3377.33122657816421 |
           | Ion-ion (open BC)          :   843839.18715101457201 |
           | Dispersion Correction      :       -3.32813238420519 |
           | Smeared ion non-self corr. :  -843790.74453397549223 |
           | Smeared ion self corr.     :   -14534.96330857569956 |
           | Solvent cavitation energy  :        2.26851658799715 |
           | Solute-solvent dis-rep en. :       -1.63089328802585 |
           | Total                      :   -11740.62416919865063 |
           --------------------------------------------------------
           ------ LOCAL ENERGY COMPONENTS FROM MATRIX TRACES ------
           | Pseudopotential (local)    :    -5080.05274446462317 |
           | Hartree                    :    -2001.98044078786938 |
           --------------------------------------------------------
           Integrated density           :     7233.99999999896681
           Integrated density tr(KS)    :     7234.00000000000000
================================================================================


                        <<<<< CALCULATION SUMMARY >>>>>                         
|ITER|    RMS GRADIENT   |     TOTAL ENERGY    |   step   |     Epredicted              
   0     0.00004124384118 -11740.55401637661271   0.644060 -11740.61485849427481        
   1     0.00000903246065 -11740.62375732453074   0.074938 -11740.62409684987688        
   2     0.00000407288618 -11740.62415406655055   0.014394 -11740.62416732653583        
   3     0.00000185923308 -11740.62416919856332  <-- CG                                 

=================== Finished the calculation in solvent ========================
= Adjusting the following parameters: 
= read_denskern: F
= read_tightbox_ngwfs: F
= maxit_pen: 0 (restored to user-specified value)
= restart read filename prefix: ""
= restart write filename prefix: ""
================================================================================

================================================================================
IS: Calculation in solvent completed (NGWFs converged).      

Individual components of total energy in solvent:     hartree           kcal/mol
- Usual non-electrostatic DFT terms:    -12956.44766996652470    -8130293.486719
- Electrostatic fixed charge energy:      1215.18587746798994      762540.634315
- Apolar cavitation energy:                  2.26851658799715        1423.515620
- Apolar dispersion-repulsion energy:       -1.63089328802585       -1023.400967
 -------------------------------------------------------------------------------
- Total energy in solvent:              -11740.62416919856332    -7367352.737751

Components of total energy in solvent:                hartree           kcal/mol
- Usual non-electrostatic DFT terms:    -12956.44766996652470    -8130293.486719
- Electrostatic energy:                   1215.18587746798994      762540.634315
- Apolar energy terms:                       0.63762329997130         400.114653
 -------------------------------------------------------------------------------
- Total energy in solvent:              -11740.62416919856332    -7367352.737751

Calculation of free energy of solvation:              hartree           kcal/mol
- Total energy in solvent:         (+)  -11740.62416919856332    -7367352.737751
- Total energy in vacuum:          (-)  -11736.62869052658789    -7364845.537085
 -------------------------------------------------------------------------------
- Total free energy of solvation:           -3.99547867197543       -2507.200666

Components of polar term in f.e. of solvation:        hartree           kcal/mol
- Electrostatic:                            -4.70816655434669       -2954.419054
- Change in nonelectrostatic DFT terms:      0.07506458239914          47.103736
 -------------------------------------------------------------------------------
- Polar term in f.e. of solvation:          -4.63310197194755       -2907.315319

Components of free energy of solvation:               hartree           kcal/mol
- Polar term in f.e. of solvation: (+)      -4.63310197194755       -2907.315319
- Apolar (cavitation, dis., rep.): (+)       0.63762329997130         400.114653
 -------------------------------------------------------------------------------
- Total free energy of solvation:           -3.99547867197626       -2507.200666
================================================================================


------------------------------ TIMING INFORMATION ------------------------------
AVERAGE TIME:   33203.883s on     60 node(s)                                    
TOTAL TIME:     33203.883s on     60 node(s)                                    
================= AVERAGE TIMINGS FROM ALL NODES (CUMULATIVE) ==================
|| TAG                                    #calls    cpu time   %total  Gflops ||
|| work_imbalance                       :     1        0.00s   0.000%  ------ ||
|| sparse_set_to_garbage                :   182        0.03s   0.000%  ------ ||
|| parallel_prepare_fd_halos_request    :  1947        0.03s   0.000%  ------ ||
|| ngwfs_initialise_from_radial         :     1        0.11s   0.000%  ------ ||
|| basis_extract_function_from_box      :  3599        0.15s   0.000%  ------ ||
|| parallel_prepare_fd_halos_satisfy    :  1947        0.64s   0.002%  ------ ||
|| parallel_prepare_fd_halos_alloc      :  1947        0.67s   0.002%  ------ ||
|| pseudopotentials_nonlocal_mat        :    31        2.26s   0.007%  ------ ||
|| density_init_guess_real              :     1        3.57s   0.011%  ------ ||
|| openbc_locps_radial                  :     1        4.66s   0.014%  ------ ||
|| parallel_prepare_fd_halos_comms_imbal:  1947       10.54s   0.032%  ------ ||
|| restart_ngwfs_tightbox_input         :     1       13.12s   0.040%  ------ ||
|| restart_kernel_read                  :     1       13.41s   0.040%  ------ ||
|| parallel_prepare_fd_halos_clear      :  1947       18.94s   0.057%  ------ ||
|| sparse_init                          :     2       21.71s   0.065%  ------ ||
|| parallel_prepare_fd_halos_comms_wait :  1947       28.07s   0.085%  ------ ||
|| projectors_func_ovlp_box             :    31       28.08s   0.085%  ------ ||
|| function_ops_brappd_ketppd           :    31       34.18s   0.103%  ------ ||
|| projectors_init_fftbox_recip         :   143       34.58s   0.104%  ------ ||
|| palser_mano_kernel_optimise          :     1       37.02s   0.112%  ------ ||
|| basis_copy_function_to_box           : 58577       44.15s   0.133%  ------ ||
|| ngwf_gradient_coeffs                 :    16       48.08s   0.145%  ------ ||
|| pseudo_make_structure_factor         :     2       54.02s   0.163%  ------ ||
|| fourier_apply_box_pair               :  5195       54.23s   0.163% 590.766 ||
|| parallel_prepare_fd_halos            :  1947       58.91s   0.177%  ------ ||
|| sparse_embed_hotelling_invert_embed  :    31       77.02s   0.232%  ------ ||
|| restart_kernel_write                 :    17      136.96s   0.412%  ------ ||
|| integrals_kinetic                    :    31      161.95s   0.488%  ------ ||
|| projectors_gradient_batch            :   112      162.13s   0.488%  ------ ||
|| finite_difference_derivative         :  1947      166.74s   0.502%  ------ ||
|| fourier_apply_cell_backward          :  1299      176.85s   0.533% 101.458 ||
|| basis_dot_function_with_box          : 9.160M     178.46s   0.537%  ------ ||
|| sparse_trace                         :  5635      216.24s   0.651%  ------ ||
|| fourier_apply_cell_forward           :  1297      234.94s   0.708%  76.255 ||
|| openbc_locps_on_grid                 :     2      269.38s   0.811%  ------ ||
|| kernel_purify                        :   495      289.86s   0.873%  ------ ||
|| lnv_gradient_norm                    :   160      415.88s   1.253%  ------ ||
|| basis_add_function_to_box            : 19.04M     438.22s   1.320%  ------ ||
|| xc_energy_potential                  :   324      475.69s   1.433%  ------ ||
|| hamiltonian_energy_components        :     4      510.95s   1.539%  ------ ||
|| kernel_fix                           :   160      572.43s   1.724%  ------ ||
|| integrals_locpot_mat_els_batch       :  1183      802.42s   2.417%  ------ ||
|| ngwf_gradient_build_batch            :   112      812.84s   2.448%  ------ ||
|| ngwf_gradient_batch                  :   112     1151.75s   3.469%  ------ ||
|| density_batch_row_sums               :  2261     1197.05s   3.605%  ------ ||
|| ngwf_gradient_lnv                    :    16     1306.84s   3.936%  ------ ||
|| cell_grid_deposit_box_real           : 37520     1467.58s   4.420%  ------ ||
|| cell_grid_extract_box_real           : 41086     1630.45s   4.910%  ------ ||
|| sparse_product                       :  6851     1861.56s   5.606%  ------ ||
|| restart_ngwfs_tightbox_output        :    14     2054.87s   6.189%  ------ ||
|| density_fftbox_deposit_to_cell       : 35530     2263.41s   6.817%  ------ ||
|| density_fftbox_interpolate_multiply  : 35530     3843.58s  11.576%  ------ ||
|| potential_apply_to_ngwf_batch        :  1183     3996.48s  12.036%  ------ ||
|| multigrid_prepare_bound_cond         :   324     4528.68s  13.639%  ------ ||
|| fourier_apply_box                    : 122.3k    4720.48s  14.217% 773.769 ||
|| integrals_locpot_dbl_grid            :   169     4820.68s  14.518%  ------ ||
|| density_batch_interp_deposit         :  2261     7137.27s  21.495%  ------ ||
|| dl_mg_solver_calls                   :   324     7395.74s  22.274%  ------ ||
|| density_on_dbl_grid                  :   323     8732.02s  26.298%  ------ ||
|| multigrid_calculate_hartree          :   324    12148.28s  36.587%  ------ ||
|| hamiltonian_lhxc_calculate           :   319    21280.11s  64.089%  ------ ||
|| lnv_denskernel_optimise_cg           :    16    26963.91s  81.207%  ------ ||
|| ngwf_cg_optimise                     :     2    32256.94s  97.148%  ------ ||
|| total_time                           :     1    33203.88s 100.000%  ------ ||
================================================================================
Overhead of generating timer report: 
- 0 ms averaging over threads,
- 15 ms ensuring consistency across MPI ranks,
- 0 ms printing in order.

Job completed: 14-06-2020 21:24 (+0100)

Application 40851543 resources: utime ~6728293s, stime ~221692s, Rss ~3826148, inblocks ~318445101, outblocks ~68239614
