 +---------------------------------------------------------------+
 |                                                               |
 |        ####### #     # ####### ####### ####### ######         |
 |        #     # ##    # #          #    #       #     #        |
 |        #     # # #   # #          #    #       #     #        |
 |        #     # #  #  # #####      #    #####   ######         |
 |        #     # #   # # #          #    #       #              |
 |        #     # #    ## #          #    #       #              |
 |        ####### #     # #######    #    ####### #              |
 |                                                               |
 |        Linear-Scaling Ab Initio Total Energy Program          |
 |                                                               |
 |          Release for academic collaborators of ODG            |
 |                                             Version 5.3.2.6.  |
 |                                                               |
 +---------------------------------------------------------------+
 |                                                               |
 |  Authors:                                                     |
 |  Jacek Dziedzic, Peter D. Haynes, Nicholas D. M. Hine,        |
 |  Arash. A. Mostofi, Mike C. Payne and Chris-Kriton Skylaris   |
 |                                                               |
 |  Contributors:                                                |
 |  J. Aarons, L. Andrinopoulos, P. W. Avraam, R. A. Bell,       |
 |  A. Bhandari, G. A. Bramley, R. J. Charlton, S. J. Clark,     |
 |  R. J. Clements, G. C. Constantinescu, F. Corsetti,           |
 |  N. Corsini, O. Dieguez, S. M. M. Dubois, K. K. B. Duff,      |
 |  J. M. Escartin, A. Greco, H. Helal, Q. O. Hill, L. P. Lee,   |
 |  J.-H. Li, E. B. Linscott, G. Moynihan, D. D. O`Regan,        |
 |  O. K. Okan, M. J. S. Phipps, C. J. Pickard,                  |
 |  J. C. A. Prentice, M. I. J. Probert, L. E. Ratcliff,         |
 |  M. Robinson, A. Ruiz Serrano, J. S. Spencer, E. W. Tait,     |
 |  G. Teobaldi, D. Turban, V. Vitale, K. A. Wilkinson,          |
 |  C. Weber, J. C. Womack, N. Yeung and T. J. Zuehlsdorff       |
 |                                                               |
 |                                   Copyright (c) 2004-2019     |
 |                                                               |
 |  Please cite:                                                 |
 |  "Introducing ONETEP: Linear-scaling density functional       |
 |   simulations on parallel computers".                         |
 |   C.-K. Skylaris, P. D. Haynes, A. A. Mostofi, M. C. Payne.   |
 |   J. Chem. Phys. 122 084119 (2005).                           |
 |                                                               |
 |          in all publications arising from your use of ONETEP. |
 |                                                               |
 +---------------------------------------------------------------+
 |                                                               |
 |   ONETEP is based on developments described in the following  |
 |   publications:                                               |
 |                                                               |
 |  "Nonorthogonal generalized Wannier function pseudopotential  |
 |   plane-wave method".                                         |
 |   C.-K. Skylaris, A. A. Mostofi, P. D. Haynes, O. Dieguez,    |
 |   M. C. Payne.                                                |
 |   Phys. Rev. B 66 035119 (2002).                              |
 |                                                               |
 |  "Preconditioned iterative minimization for linear-scaling    |
 |   electronic structure calculations".                         |
 |   A. A. Mostofi, P. D. Haynes, C.-K. Skylaris, M. C. Payne.   |
 |   J. Chem. Phys. 119(17), pp.8842-8848 (2003).                |
 |                                                               |
 |  "Total-energy calculations on a real space grid with         |
 |   localized functions and a plane-wave basis".                |
 |   A. A. Mostofi, C.-K. Skylaris, P. D. Haynes, M. C. Payne.   |
 |   Comput. Phys. Commun. 147, pp.788-802 (2002).               |
 |                                                               |
 |  "Accurate kinetic energy evaluation in electronic structure  |
 |   calculations with localized functions on real space grids"  |
 |   C.-K. Skylaris, A. A. Mostofi, P. D. Haynes, C. J. Pickard, |
 |   M. C. Payne.                                                |
 |   Comput. Phys. Commun. 140, pp.315-322 (2001).               |
 |                                                               |
 |  "Accurate ionic forces and geometry optimization in linear-  |
 |   scaling density-functional theory with local orbitals"      |
 |   N. D. M. Hine, M. Robinson, P. D. Haynes, C.-K. Skylaris,   |
 |   M. C. Payne, and A. A. Mostofi.                             |
 |   Phys. Rev. B 83 195102 (2011).                              |
 |                                                               |
 +---------------------------------------------------------------+

Job started: 09-05-2020 16:33 (+0100)
 
Reading parameters from file "complex_6941.dat" ...... done

If your calculation crashes here, before "Checking processes and threads..."
is displayed, then your stack size is insufficient.
If so, use "ulimit -s unlimited" at runtime.
You can disable this check with "check_stack_size F".

Checking processes and threads...
   Determining the default number of threads...
      No default threads set at compilation time: defaulting to 1.
      OpenMP library call suggests 4 threads.
      Hybrid MPI-OpenMP compilation detected.
      Number of MPI processes > 1.
      OMP_NUM_THREADS environment variable present and
      its value matches the one obtained from the OpenMP library call.
      Using this value as default.
      Default threads: 4
      Default applies to threads_max and threads_num_fftboxes.
      Settings in the input file override this default.
   ... done

   Running with 60 MPI processes.
   There are 6 MPI processes running on the same node as the root process.
   Each MPI process is using: 
               1 threads for simulation cell FFTs.
               1 threads for parallel FFT box operations.
               4 threads for loops over batched FFT box operations.
               4 threads in other parallel regions.
... done

Basic input checks...... done

Reading geometry and species blocks from file "complex_6941.dat" ...
  <species_atomic_set> block not found: NGWF initialisation set to SOLVE
IS: Dielectric excluded regions:
    - NONE.
    
  Number of PPD points along a3 set to 1.  This is 
  the default value, it may have been provided also in the input file.
... done
 Writing xyz coordinates to file "complex_6941.xyz" ... done


--------------------------------------------------------------------------------
---------------------------------- INPUT FILE ----------------------------------
--------------------------------------------------------------------------------

cutoff_energy       : 800 eV                                                    
xc_functional PBE                                                               
task SINGLEPOINT                                                                
write_xyz true                                                                  
output_detail VERBOSE                                                           
ngwf_threshold_orig : 0.000002                                                  
kernel_cutoff       : 1000                                                      
k_zero              : 3.5                                                       
elec_cg_max 0                                                                   
occ_mix 1.0                                                                     
dispersion 1                                                                    
maxit_ngwf_cg 40                                                                
minit_lnv 10                                                                    
maxit_lnv 10                                                                    
write_denskern T                                                                
write_tightbox_ngwfs T                                                          
charge 9                                                                        
is_implicit_solvent T                                                           
is_auto_solvation T                                                             
is_include_apolar T                                                             
is_smeared_ion_rep T                                                            
is_solvent_surf_tension 4.7624E-5 Ha/bohr**2                                    
is_apolar_scaling_factor 0.281075                                               
is_solvation_beta 1.3                                                           
is_density_threshold 0.00035                                                    
is_bulk_permittivity 78.54                                                      
is_dielectric_model fix_initial                                                 
is_smeared_ion_width 0.8                                                        
mg_defco_fd_order 8                                                             
is_bc_coarseness 10                                                             
is_bc_surface_coarseness 1                                                      
fine_grid_scale 2.0                                                             
%block species                                                                  
N   N   7 4 8.0                                                                 
H   H   1 1 8.0                                                                 
C   C   6 4 8.0                                                                 
S   S  16 9 8.0                                                                 
O   O   8 4 8.0                                                                 
%endblock species                                                               
%block species_pot                                                              
N   N_00.recpot                                                                 
H   H_04.recpot                                                                 
C   C_01.recpot                                                                 
S   S_00.recpot                                                                 
O   O_02.recpot                                                                 
%endblock species_pot                                                           
%block lattice_cart                                                             
137.614   0.000   0.000                                                         
0.000 142.646   0.000                                                           
0.000   0.000   160.855                                                         
%endblock lattice_cart                                                          
%block positions_abs                                                            
     Hash =   000004361263227923447915
%endblock positions_abs                                                         

--------------------------------------------------------------------------------
-------------------------------- END INPUT FILE --------------------------------
--------------------------------------------------------------------------------


 
 ESDF WARNING(1): "kernelcutoff" (esdf_physical) has no units. Assume "bohr".
 ESDF WARNING(2): "kzero" (esdf_physical) has no units. Assume "1/bohr".
 ESDF WARNING(3
 ): "issmearedionwidth" (esdf_physical) has no units. Assume "bohr".
<<<<<<<<<<<<<<<<<<<<<<<<<<<<<<<<< Full system >>>>>>>>>>>>>>>>>>>>>>>>>>>>>>>>>>
<<<<<<<<<<<<<<<<<<<<<<<<< Pseudopotential information >>>>>>>>>>>>>>>>>>>>>>>>>>
File: N_00.recpot [ 2001 points up to Gmax=  52.9 (1/bohr)]
  Atomic number:  7;  ionic charge:  5.000000
    Shell 1: l = 0; rc = 1.48 bohr
File: H_04.recpot [ 2001 points up to Gmax=  52.9 (1/bohr)]
  Atomic number:  1;  ionic charge:  1.000000
    Local potential
File: C_01.recpot [ 2001 points up to Gmax=  52.9 (1/bohr)]
  Atomic number:  6;  ionic charge:  4.000000
    Shell 1: l = 0; rc = 1.48 bohr
File: S_00.recpot [ 2001 points up to Gmax=  52.9 (1/bohr)]
  Atomic number: 16;  ionic charge:  6.000000
    Shell 1: l = 0; rc = 1.90 bohr
    Shell 2: l = 2; rc = 1.84 bohr
File: O_02.recpot [ 2001 points up to Gmax=  52.9 (1/bohr)]
  Atomic number:  8;  ionic charge:  6.000000
    Shell 1: l = 0; rc = 1.31 bohr
<<<<<<<<<<<<<<<<<<<<<<<<<<<<<<<<<<<<<<<<>>>>>>>>>>>>>>>>>>>>>>>>>>>>>>>>>>>>>>>>

-------------------------- Atom counting information ---------------------------
Symbol    Natoms    Nngwfs    Nprojs
  N        236       944       236
  H       1319      1319         0
  C        817      3268       817
  S          6        54        36
  O        240       960       240
.......   ......    ......    ......
Totals:   2618      6545      1329
--------------------------------------------------------------------------------

=============================== PSINC grid sizes ===============================
                      Simulation cell:  273 x 286 x 320
                              FFT-box:   99 x 105 x  99
                                  PPD:    7 x  11 x   1
Grid space d1=  0.504080586081a0 (KE cutoff=  29.89538Eh = 813.49465eV)
Grid space d2=  0.498762237762a0 (KE cutoff=  30.53633Eh = 830.93588eV)
Grid space d3=  0.502671875000a0 (KE cutoff=  30.06317Eh = 818.06059eV)
================================================================================

********************* Fourier parallelisation information **********************
       Coarse grid (whole simulation cell) dimensions:    273   286   320
          Real-space ('12') slabs/node (min max mean):      5     6     5
         Recip-space ('23') slabs/node (min max mean):      2     3     2
********************************************************************************

********************* Fourier parallelisation information **********************
       Double grid (whole simulation cell) dimensions:    546   572   640
          Real-space ('12') slabs/node (min max mean):     10    11    10
         Recip-space ('23') slabs/node (min max mean):      4     5     4
********************************************************************************
ONETEP fine grid is 546 x 572 x 640 gridpoints, 137.6140 x 142.6460 x 160.8550 bohr.
FD multigrid is     545 x 569 x 633 gridpoints, 137.3620 x 141.8979 x 159.0956 bohr.


Calculating local pseudopotential in open BC on a radial grid ...
Discrepancy between calculated realspace psloc and -Z/x on [5a0,255.264a0]:
max |rel. diff| # avg |rel. diff| #  avg rel. diff #  f # pseudopotential file
 0.000296759711    0.000009439468   0.000000085927   54  'N_00.recpot'
 0.000490027943    0.000021572324  -0.000000031900   54  'H_04.recpot'
 0.000320795249    0.000014598087   0.000000111901   54  'C_01.recpot'
 0.000388730920    0.000016096375   0.000000514750   54  'S_00.recpot'
 0.000828383344    0.000035421288   0.000000087443   54  'O_02.recpot'
... done

Atom SCF Calculation for N  : Z (AE atom) =   7 : Z (PS atom) =   5
Config String:
Orbitals (num,occ):  2     2.00 3.00
Orbitals   (num,l):  2        0    1
Real-space Grid (nr,dr,rmax): 1203    0.0066555740    8.0000000000
Spherical Bessel Basis (nsws,lmax,cutoff):   47    1  176.3951722778
Confining potential (l,width,scale):  0    3.0000000000  100.0000000000
Confining potential (l,width,scale):  1    3.0000000000  100.0000000000
  1         -4.7312375307   -3.4155304497    7.0523828109   -1.9351020946
  2         -9.7309464766   -2.0532547791    8.2966052865   -2.2494486027
  3         -9.6627394379   -2.1124926340    8.2327997121   -2.2369778124
  4         -9.6814993499   -2.1215521045    8.2229805960   -2.2365178421
  5         -9.6843326483   -2.1250939529    8.2191374534   -2.2362718126
  6         -9.6859628709   -2.1267894855    8.2172963573   -2.2362066344
  7         -9.6867347035   -2.1276425665    8.2163697352   -2.2361903369
  8         -9.6870802100   -2.1280764625    8.2158983890   -2.2361891460
  9         -9.6872290423   -2.1282977424    8.2156580222   -2.2361920435
 10         -9.6872901988   -2.1284107021    8.2155353368   -2.2361953393
 11         -9.6873135296   -2.1284684031    8.2154726809   -2.2361979819
 12         -9.6873212476   -2.1284978948    8.2154406648   -2.2361998431
 13         -9.6873229586   -2.1285129774    8.2154242957   -2.2362010676
 14         -9.6873226456   -2.1285206957    8.2154159216   -2.2362018403
 15         -9.6873218534   -2.1285246479    8.2154116349   -2.2362023142
 16         -9.6873212599   -2.1285262679    8.2154098784   -2.2362025420
 17         -9.6873207834   -2.1285272564    8.2154088068   -2.2362026955
 18         -9.6873204210   -2.1285278596    8.2154081529   -2.2362027982
 19         -9.6873201550   -2.1285282280    8.2154077538   -2.2362028667
 20         -9.6873199645   -2.1285284529    8.2154075102   -2.2362029121
 21         -9.6873198305   -2.1285285903    8.2154073614   -2.2362029421
 22         -9.6873197377   -2.1285286742    8.2154072705   -2.2362029618
Atom SCF converged after  22 iterations to a total energy of     -9.68731974

Atom SCF Calculation for H  : Z (AE atom) =   1 : Z (PS atom) =   1
Config String:
Orbitals (num,occ):  1     1.00
Orbitals   (num,l):  1        0
Real-space Grid (nr,dr,rmax): 1203    0.0066555740    8.0000000000
Spherical Bessel Basis (nsws,lmax,cutoff):   47    0  176.3951722778
Confining potential (l,width,scale):  0    3.0000000000  100.0000000000
  1         -0.3194257691   -0.2393854593    0.2820953124   -0.2424203209
  2         -0.3951823392   -0.2377116493    0.2886404059   -0.2475147891
  3         -0.4317044583   -0.2352244387    0.2921333887   -0.2514046172
  4         -0.4470703708   -0.2341892222    0.2934391879   -0.2531009782
  5         -0.4532132900   -0.2338556667    0.2938388426   -0.2537313520
  6         -0.4556579251   -0.2337612552    0.2939448584   -0.2539550462
  7         -0.4566418315   -0.2337377355    0.2939680120   -0.2540342273
  8         -0.4570437922   -0.2337331116    0.2939708287   -0.2540627372
  9         -0.4572102946   -0.2337328328    0.2939698291   -0.2540732650
 10         -0.4572800424   -0.2337332404    0.2939687193   -0.2540772588
 11         -0.4573095100   -0.2337335791    0.2939680317   -0.2540788122
 12         -0.4573220379   -0.2337337762    0.2939676699   -0.2540794294
 13         -0.4573273880   -0.2337338775    0.2939674931   -0.2540796787
 14         -0.4573296803   -0.2337339266    0.2939674099   -0.2540797808
 15         -0.4573306647   -0.2337339495    0.2939673718   -0.2540798230
 16         -0.4573310882   -0.2337339601    0.2939673545   -0.2540798406
 17         -0.4573312706   -0.2337339649    0.2939673467   -0.2540798479
 18         -0.4573313493   -0.2337339670    0.2939673433   -0.2540798510
Atom SCF converged after  18 iterations to a total energy of     -0.45733135

Atom SCF Calculation for C  : Z (AE atom) =   6 : Z (PS atom) =   4
Config String:
Orbitals (num,occ):  2     2.00 2.00
Orbitals   (num,l):  2        0    1
Real-space Grid (nr,dr,rmax): 1203    0.0066555740    8.0000000000
Spherical Bessel Basis (nsws,lmax,cutoff):   47    1  176.3951722778
Confining potential (l,width,scale):  0    3.0000000000  100.0000000000
Confining potential (l,width,scale):  1    3.0000000000  100.0000000000
  1         -5.2976922011   -1.3069684169    4.5135249990   -1.4493313817
  2         -5.3721716256   -1.3429755895    4.4750154450   -1.4361613026
  3         -5.3809959565   -1.3617365618    4.4541655428   -1.4305930207
  4         -5.3918938866   -1.3667928461    4.4484735100   -1.4294652294
  5         -5.3956096428   -1.3688539142    4.4461376126   -1.4290734646
  6         -5.3968271862   -1.3696852393    4.4451910874   -1.4289366866
  7         -5.3972028401   -1.3700178062    4.4448112275   -1.4288900460
  8         -5.3973067903   -1.3701500158    4.4446598370   -1.4288749220
  9         -5.3973286940   -1.3702023868    4.4445997329   -1.4288704293
 10         -5.3973289850   -1.3702230869    4.4445759233   -1.4288693188
 11         -5.3973254264   -1.3702312560    4.4445665049   -1.4288691775
 12         -5.3973224003   -1.3702344755    4.4445627836   -1.4288692549
 13         -5.3973208708   -1.3702354890    4.4445616088   -1.4288693270
 14         -5.3973198783   -1.3702360102    4.4445610034   -1.4288693814
 15         -5.3973192535   -1.3702362780    4.4445606917   -1.4288694190
 16         -5.3973188684   -1.3702364155    4.4445605313   -1.4288694437
 17         -5.3973186349   -1.3702364860    4.4445604489   -1.4288694595
 18         -5.3973184951   -1.3702365221    4.4445604065   -1.4288694693
 19         -5.3973184122   -1.3702365405    4.4445603848   -1.4288694753
Atom SCF converged after  19 iterations to a total energy of     -5.39731841

Atom SCF Calculation for S  : Z (AE atom) =  16 : Z (PS atom) =   6
Config String:
Orbitals (num,occ):  3     2.00 4.00 0.00
Orbitals   (num,l):  3        0    1    2
Real-space Grid (nr,dr,rmax): 1203    0.0066555740    8.0000000000
Spherical Bessel Basis (nsws,lmax,cutoff):   47    2  176.3951722778
Confining potential (l,width,scale):  0    3.0000000000  100.0000000000
Confining potential (l,width,scale):  1    3.0000000000  100.0000000000
Confining potential (l,width,scale):  2    3.0000000000  100.0000000000
  1        -12.4735062396   -1.0328741412   10.1554312477   -2.4512393157
  2         -9.9458301913   -2.4607392455    8.3041325857   -2.0306994528
  3        -10.1450417646   -2.2931184565    8.4831893826   -2.0812538287
  4        -10.1528335592   -2.2733105793    8.5050388867   -2.0896035179
  5        -10.1571940363   -2.2633716629    8.5160794258   -2.0939370707
  6        -10.1594380571   -2.2584938667    8.5215163935   -2.0961289008
  7        -10.1605856507   -2.2561081821    8.5241804044   -2.0972291378
  8        -10.1611799191   -2.2549395235    8.5254868240   -2.0977806248
  9        -10.1614918752   -2.2543658586    8.5261285885   -2.0980571586
 10        -10.1616572884   -2.2540839121    8.5264441898   -2.0981959233
 11        -10.1617455602   -2.2539453058    8.5265994231   -2.0982656006
 12        -10.1617928447   -2.2538772062    8.5266757320   -2.0983006047
 13        -10.1618182292   -2.2538437891    8.5267131983   -2.0983181961
 14        -10.1618318741   -2.2538274201    8.5267315620   -2.0983270391
 15        -10.1618392144   -2.2538194197    8.5267405433   -2.0983314852
 16        -10.1618431651   -2.2538155200    8.5267449245   -2.0983337210
 17        -10.1618452923   -2.2538136252    8.5267470551   -2.0983348455
 18        -10.1618464380   -2.2538127080    8.5267480875   -2.0983354110
 19        -10.1618470552   -2.2538122659    8.5267485856   -2.0983356955
 20        -10.1618473878   -2.2538120540    8.5267488248   -2.0983358386
 21        -10.1618475670   -2.2538119530    8.5267489389   -2.0983359106
 22        -10.1618476637   -2.2538119053    8.5267489929   -2.0983359468
Atom SCF converged after  22 iterations to a total energy of    -10.16184766

Atom SCF Calculation for O  : Z (AE atom) =   8 : Z (PS atom) =   6
Config String:
Orbitals (num,occ):  2     2.00 4.00
Orbitals   (num,l):  2        0    1
Real-space Grid (nr,dr,rmax): 1203    0.0066555740    8.0000000000
Spherical Bessel Basis (nsws,lmax,cutoff):   47    1  176.3951722778
Confining potential (l,width,scale):  0    3.0000000000  100.0000000000
Confining potential (l,width,scale):  1    3.0000000000  100.0000000000
  1         -1.8735052164   -7.5539365035   10.1554312477   -2.4512393157
  2        -16.0318313751   -3.1285771268   13.6395848164   -3.2358799643
  3        -15.9524020423   -3.0762819706   13.6967272503   -3.2536856837
  4        -15.8521515939   -3.0781493909   13.6951909330   -3.2561700440
  5        -15.8357139793   -3.0748501933   13.6988803334   -3.2580493133
  6        -15.8246052853   -3.0740779781   13.6997881576   -3.2588327446
  7        -15.8189019501   -3.0737449687   13.7001869911   -3.2592378801
  8        -15.8159785510   -3.0736026016   13.7003615168   -3.2594475790
  9        -15.8144776168   -3.0735437994   13.7004360379   -3.2595560735
 10        -15.8137058024   -3.0735207882   13.7004667348   -3.2596122456
 11        -15.8133083127   -3.0735125946   13.7004786868   -3.2596413656
 12        -15.8131032938   -3.0735102195   13.7004828997   -3.2596564858
 13        -15.8129973902   -3.0735099286   13.7004840891   -3.2596643505
 14        -15.8129426040   -3.0735102506   13.7004842061   -3.2596684489
 15        -15.8129142203   -3.0735106556   13.7004840157   -3.2596705887
 16        -15.8128994940   -3.0735109855   13.7004837906   -3.2596717080
 17        -15.8128918425   -3.0735112169   13.7004836103   -3.2596722946
 18        -15.8128878614   -3.0735113674   13.7004834848   -3.2596726026
 19        -15.8128857871   -3.0735114608   13.7004834035   -3.2596727646
 20        -15.8128847048   -3.0735115170   13.7004833533   -3.2596728500
 21        -15.8128841394   -3.0735115501   13.7004833231   -3.2596728951
 22        -15.8128838436   -3.0735115693   13.7004833054   -3.2596729190
 23        -15.8128836887   -3.0735115802   13.7004832951   -3.2596729316
 24        -15.8128836074   -3.0735115864   13.7004832893   -3.2596729383
Atom SCF converged after  24 iterations to a total energy of    -15.81288361

========================== Calculation in vacuum ==============================
= Adjusting the following parameters: 
= is_implicit_solvent: F
= is_include_apolar: F
= write_denskern: T
= write_tightbox_ngwfs: T
= restart read filename prefix: ""
= restart write filename prefix: "vacuum_"
===============================================================================

Determining parallel strategy ...
... using space-filling curve
... NGWF load balancing: max    110;  min    109;  average    109
... Projector load balancing: max     26;  min     21;  average     22
... done
Calculating direct Ion-Ion energy ...
Ion-Ion Energy        :    836305.06336563895456
======================= Empirical dispersion information =======================
Model : Elstner
Dispersion Correction Energy: -0.32730442E+01 Hartree
================================================================================
Basis initialisation ...... NGWF spheres initialised
... Projector spheres initialised
... NGWF tight boxes initialised
... Tight-boxes gathered
... NGWF basis size (local,global):     940471  56365315
... Nonlocal pseudopotential projector initialisation
... done

========================== Sparse matrix information ===========================
                        Overlap matrix filling:   6.73%
                        Density kernel filling: 100.00%
              NGWF-Proj overlap matrix filling:   1.77%
                    Hamiltonian matrix filling:   7.61%
                  NGWF diagonal matrix filling:   0.05%
                             KS matrix filling: 100.00% 
                           KSKS matrix filling: 100.00% 
================================================================================

Sparse matrix initialisation ... done

Generating smeared ion density ... done
Smeared ion self correction:     -14534.963309
Smeared ion non-self correction: -836256.772846
NGWF initialisation ...... done
============ Calculation of NGWF S^-1 using Hotelling algorithm ================ 
         Iteration  |  Frobenius norm and Maximum abs value    (of I-S*S_n^-1)   
               1       0.78937053E+02     0.98433229E+00
               2       0.77236185E+02     0.96903489E+00
               3       0.74429164E+02     0.93948593E+00
               4       0.70343919E+02     0.88448200E+00
               5       0.65154144E+02     0.78873959E+00
               6       0.59234083E+02     0.70898416E+00
               7       0.53168933E+02     0.67316434E+00
               8       0.47550128E+02     0.64661347E+00
               9       0.41668933E+02     0.61031857E+00
              10       0.33787724E+02     0.54696676E+00
              11       0.23463476E+02     0.44274589E+00
              12       0.12633282E+02     0.30926119E+00
              13       0.45449415E+01     0.15423316E+00
              14       0.84228820E+00     0.41477996E-01
              15       0.54717139E-01     0.48138940E-02
              16       0.57220435E-03     0.71994271E-04
              17       0.11761967E-06     0.16542610E-07
              18       0.11146252E-12     0.62172489E-14
================================================================================
Calculating local pseudopotential in open BC on the fine real space grid ...
... done

MG BCs: +ve charge blocks (gridpoints):     20901 (   16395896).
MG BCs: -ve charge blocks (gridpoints):      8150 (    1102146).
MG BCs:     Elided blocks (gridpoints):    179739 (  178798423).
MG BCs: Computational effort saved:  99.9852%.
MG BCs: Charge after coarse-graining:           -9.0002331.
MG DL_MG: Calling solver with defect correction order = 8
MG DL_MG: Solver finished
MG Hartree energy from (\int phi*rho dr):              1472.122177
MG Hartree energy from (\int eps (grad phi)^2 dr):     1471.509977
MG Discrepancy due to finite box and discretization:     -0.612199 (  -0.04159%)
MG Correction to account for finite box:                  0.464667
MG Remaining discrepancy, due to discretization:         -0.147532 (  -0.01002%)
Up spin density kernel initialisation ... 
======= Optimisation of K by Palser-Manolopoulos canonical purification ======== 
         Iteration  |  Band structure energy |    c_n   
               1       -2597.50222011661617    0.5266957
               2       -2774.25508373541106    0.5169586
               3       -2955.25584363216922    0.5154713
               4       -3106.13551971122570    0.5292241
               5       -3198.68673160483695    0.5652153
               6       -3237.34239990495189    0.6100662
               7       -3250.49345257590494    0.6220748
               8       -3256.20162125229945    0.6207686
               9       -3258.97357780308175    0.6340143
              10       -3260.13269614979527    0.6594708
              11       -3260.58495448828853    0.6839814
              12       -3260.77531106924516    0.6965023
              13       -3260.86782885023604    0.6838659
              14       -3260.92136635648649    0.6354792
              15       -3260.95751824290664    0.5734441
              16       -3260.97905979627740    0.5239776
              17       -3260.98743643328453    0.4998807
              18       -3260.98923889949629    0.4976247
              19       -3260.98944232754548    0.4998626
              20       -3260.98945074213134    0.5000009
              21       -3260.98945076097061    0.5000009
Termination criterion satisfied: band energy change below threshold.
Final occupancy bounds: [    0.00000000000000:    0.99999999999999]
Closest occupancy to 0.5:     1.00000000000000
================================================================================
... done

Writing density kernel to file "complex_6941.vacuum_dkn" ... done

>>> Optimising kernel for current NGWFs:
   Initial electron number for spin 1:    7234.00000000
     Final electron number for spin 1:    7234.00000000

=================== Penalty functional idempotency correction ==================
 RMS occupancy error at iteration   1:  0.000000 (step -0.5000 Ne1=   7234.0000)
            Final RMS occupancy error   :  0.000000 (Ne1=   7234.0000)
               Final occupancy bounds   : [ -0.0000,  1.0000]
================================================================================

................................................................................
<<<<<<<<<<<<<< LNV (Original version) density kernel optimisation >>>>>>>>>>>>>>
~~~~~~~~~~~~~~~~~~~~~~~~~~~~~~~~~~~~~~~~~~~~~~~~~~~~~~~~~~~~~~~~~~~~~~~~~~~~~~~~
   iter  |      energy (Eh)       | rms gradient |  commutator  |   dE (Eh)
MG BCs: +ve charge blocks (gridpoints):     31410 (   17496132).
MG BCs: -ve charge blocks (gridpoints):      8460 (    1136746).
MG BCs:     Elided blocks (gridpoints):    169222 (  177663587).
MG BCs: Computational effort saved:  99.9797%.
MG BCs: Charge after coarse-graining:           -9.0009708.
MG DL_MG: Calling solver with defect correction order = 8
MG DL_MG: Solver finished
MG Hartree energy from (\int phi*rho dr):              1426.028668
MG Hartree energy from (\int eps (grad phi)^2 dr):     1425.370698
MG Discrepancy due to finite box and discretization:     -0.657971 (  -0.04614%)
MG Correction to account for finite box:                  0.468962
MG Remaining discrepancy, due to discretization:         -0.189009 (  -0.01325%)
      ideal mu1:      -0.705597423123
             Q0:  -11569.504773886525
             G0:    -142.819957116364
   RMS gradient:       0.001825932834
MG BCs: +ve charge blocks (gridpoints):     31392 (   17580231).
MG BCs: -ve charge blocks (gridpoints):      8376 (    1115839).
MG BCs:     Elided blocks (gridpoints):    169243 (  177600395).
MG BCs: Computational effort saved:  99.9797%.
MG BCs: Charge after coarse-graining:           -9.0009923.
MG DL_MG: Calling solver with defect correction order = 8
MG DL_MG: Solver finished
MG Hartree energy from (\int phi*rho dr):              1452.043587
MG Hartree energy from (\int eps (grad phi)^2 dr):     1451.401004
MG Discrepancy due to finite box and discretization:     -0.642583 (  -0.04425%)
MG Correction to account for finite box:                  0.469057
MG Remaining discrepancy, due to discretization:         -0.173526 (  -0.01195%)
     Trial step:       0.500000000000
             Q1:  -11580.533273197361
 Quadratic coef:      60.381479247346
 Linear coef   :     -71.409978558182
           Qmin:  -11590.617974081535
Quadratic minimum step length (  0.295661763542) accepted
    Initial Ne1:    7234.00000000
      Final Ne1:    7234.00000000

=================== Penalty functional idempotency correction ==================
 RMS occupancy error at iteration   1:  0.003328 (step -0.4887 Ne1=   7234.0000)
 RMS occupancy error at iteration   2:  0.000025 (step -0.5001 Ne1=   7234.0000)
            Final RMS occupancy error   :  0.000000 (Ne1=   7234.0000)
               Final occupancy bounds   : [  0.0000,  1.0000]
================================================================================

    1        -1.156950477389E+04     1.8259E-03     1.6520E-03
MG BCs: +ve charge blocks (gridpoints):     31414 (   17547771).
MG BCs: -ve charge blocks (gridpoints):      8404 (    1124656).
MG BCs:     Elided blocks (gridpoints):    169221 (  177624038).
MG BCs: Computational effort saved:  99.9797%.
MG BCs: Charge after coarse-graining:           -9.0009831.
MG DL_MG: Calling solver with defect correction order = 8
MG DL_MG: Solver finished
MG Hartree energy from (\int phi*rho dr):              1433.504989
MG Hartree energy from (\int eps (grad phi)^2 dr):     1432.857032
MG Discrepancy due to finite box and discretization:     -0.647957 (  -0.04520%)
MG Correction to account for finite box:                  0.468919
MG Remaining discrepancy, due to discretization:         -0.179038 (  -0.01249%)
      ideal mu1:      -0.748599183726
             Q0:  -11591.011490565259
             G0:     -11.692023649654
   RMS gradient:       0.000518955537
MG BCs: +ve charge blocks (gridpoints):     31403 (   17565859).
MG BCs: -ve charge blocks (gridpoints):      8381 (    1119183).
MG BCs:     Elided blocks (gridpoints):    169232 (  177611423).
MG BCs: Computational effort saved:  99.9797%.
MG BCs: Charge after coarse-graining:           -9.0009867.
MG DL_MG: Calling solver with defect correction order = 8
MG DL_MG: Solver finished
MG Hartree energy from (\int phi*rho dr):              1438.931061
MG Hartree energy from (\int eps (grad phi)^2 dr):     1438.286525
MG Discrepancy due to finite box and discretization:     -0.644536 (  -0.04479%)
MG Correction to account for finite box:                  0.468640
MG Remaining discrepancy, due to discretization:         -0.175896 (  -0.01222%)
     Trial step:       0.384487817455
             Q1:  -11593.757412648876
 Quadratic coef:       1.749518571067
 Linear coef   :      -4.495440654683
           Qmin:  -11593.899283100587
Quadratic minimum step length (  0.493976512853) accepted
    Initial Ne1:    7233.99991165
      Final Ne1:    7234.00000000

=================== Penalty functional idempotency correction ==================
 RMS occupancy error at iteration   1:  0.001751 (step -0.4934 Ne1=   7234.0000)
 RMS occupancy error at iteration   2:  0.000009 (step -0.5001 Ne1=   7234.0000)
            Final RMS occupancy error   :  0.000000 (Ne1=   7234.0000)
               Final occupancy bounds   : [  0.0000,  1.0000]
================================================================================

    2        -1.159101149057E+04     5.1896E-04     4.6953E-04    -2.1507E+01
MG BCs: +ve charge blocks (gridpoints):     31404 (   17570932).
MG BCs: -ve charge blocks (gridpoints):      8377 (    1117570).
MG BCs:     Elided blocks (gridpoints):    169231 (  177607963).
MG BCs: Computational effort saved:  99.9797%.
MG BCs: Charge after coarse-graining:           -9.0009878.
MG DL_MG: Calling solver with defect correction order = 8
MG DL_MG: Solver finished
MG Hartree energy from (\int phi*rho dr):              1440.516850
MG Hartree energy from (\int eps (grad phi)^2 dr):     1439.873215
MG Discrepancy due to finite box and discretization:     -0.643635 (  -0.04468%)
MG Correction to account for finite box:                  0.468571
MG Remaining discrepancy, due to discretization:         -0.175064 (  -0.01215%)
      ideal mu1:      -0.772076247063
             Q0:  -11593.933981789509
             G0:      -1.826529961256
   RMS gradient:       0.000205237782
MG BCs: +ve charge blocks (gridpoints):     31412 (   17570146).
MG BCs: -ve charge blocks (gridpoints):      8379 (    1118522).
MG BCs:     Elided blocks (gridpoints):    169223 (  177607797).
MG BCs: Computational effort saved:  99.9797%.
MG BCs: Charge after coarse-graining:           -9.0009876.
MG DL_MG: Calling solver with defect correction order = 8
MG DL_MG: Solver finished
MG Hartree energy from (\int phi*rho dr):              1438.312607
MG Hartree energy from (\int eps (grad phi)^2 dr):     1437.669309
MG Discrepancy due to finite box and discretization:     -0.643298 (  -0.04473%)
MG Correction to account for finite box:                  0.468406
MG Remaining discrepancy, due to discretization:         -0.174892 (  -0.01216%)
     Trial step:       0.435807240992
             Q1:  -11594.391420834116
 Quadratic coef:       0.338575938396
 Linear coef   :      -0.796014983004
           Qmin:  -11594.401853086098
Quadratic minimum step length (  0.512306183325) accepted
    Initial Ne1:    7233.99996320
      Final Ne1:    7234.00000000

=================== Penalty functional idempotency correction ==================
 RMS occupancy error at iteration   1:  0.000573 (step -0.4977 Ne1=   7234.0000)
 RMS occupancy error at iteration   2:  0.000001 (step -0.5000 Ne1=   7234.0000)
            Final RMS occupancy error   :  0.000000 (Ne1=   7234.0000)
               Final occupancy bounds   : [  0.0000,  1.0000]
================================================================================

    3        -1.159393398179E+04     2.0524E-04     1.8569E-04    -2.9225E+00
MG BCs: +ve charge blocks (gridpoints):     31413 (   17569971).
MG BCs: -ve charge blocks (gridpoints):      8382 (    1118750).
MG BCs:     Elided blocks (gridpoints):    169222 (  177607744).
MG BCs: Computational effort saved:  99.9797%.
MG BCs: Charge after coarse-graining:           -9.0009875.
MG DL_MG: Calling solver with defect correction order = 8
MG DL_MG: Solver finished
MG Hartree energy from (\int phi*rho dr):              1437.933700
MG Hartree energy from (\int eps (grad phi)^2 dr):     1437.290452
MG Discrepancy due to finite box and discretization:     -0.643248 (  -0.04473%)
MG Correction to account for finite box:                  0.468378
MG Remaining discrepancy, due to discretization:         -0.174870 (  -0.01216%)
      ideal mu1:      -0.773002694900
             Q0:  -11594.406041829730
             G0:      -0.427600276167
   RMS gradient:       0.000099415255
MG BCs: +ve charge blocks (gridpoints):     31412 (   17570895).
MG BCs: -ve charge blocks (gridpoints):      8381 (    1118581).
MG BCs:     Elided blocks (gridpoints):    169223 (  177606989).
MG BCs: Computational effort saved:  99.9797%.
MG BCs: Charge after coarse-graining:           -9.0009875.
MG DL_MG: Calling solver with defect correction order = 8
MG DL_MG: Solver finished
MG Hartree energy from (\int phi*rho dr):              1439.092419
MG Hartree energy from (\int eps (grad phi)^2 dr):     1438.449157
MG Discrepancy due to finite box and discretization:     -0.643262 (  -0.04470%)
MG Correction to account for finite box:                  0.468290
MG Remaining discrepancy, due to discretization:         -0.174972 (  -0.01216%)
     Trial step:       0.472511104947
             Q1:  -11594.503503495594
 Quadratic coef:       0.104584213102
 Linear coef   :      -0.202045878967
           Qmin:  -11594.503624763131
Quadratic minimum step length (  0.456421283330) accepted
    Initial Ne1:    7233.99999218
      Final Ne1:    7234.00000000

=================== Penalty functional idempotency correction ==================
 RMS occupancy error at iteration   1:  0.000183 (step -0.4992 Ne1=   7234.0000)
            Final RMS occupancy error   :  0.000000 (Ne1=   7234.0000)
               Final occupancy bounds   : [ -0.0000,  1.0000]
================================================================================

    4        -1.159440604183E+04     9.9415E-05     8.9946E-05    -4.7206E-01
MG BCs: +ve charge blocks (gridpoints):     31412 (   17570885).
MG BCs: -ve charge blocks (gridpoints):      8381 (    1118581).
MG BCs:     Elided blocks (gridpoints):    169223 (  177606999).
MG BCs: Computational effort saved:  99.9797%.
MG BCs: Charge after coarse-graining:           -9.0009875.
MG DL_MG: Calling solver with defect correction order = 8
MG DL_MG: Solver finished
MG Hartree energy from (\int phi*rho dr):              1439.052961
MG Hartree energy from (\int eps (grad phi)^2 dr):     1438.409700
MG Discrepancy due to finite box and discretization:     -0.643261 (  -0.04470%)
MG Correction to account for finite box:                  0.468293
MG Remaining discrepancy, due to discretization:         -0.174968 (  -0.01216%)
      ideal mu1:      -0.773120230297
             Q0:  -11594.504038958577
             G0:      -0.104689179492
   RMS gradient:       0.000049333148
MG BCs: +ve charge blocks (gridpoints):     31411 (   17571098).
MG BCs: -ve charge blocks (gridpoints):      8376 (    1118352).
MG BCs:     Elided blocks (gridpoints):    169224 (  177607015).
MG BCs: Computational effort saved:  99.9797%.
MG BCs: Charge after coarse-graining:           -9.0009875.
MG DL_MG: Calling solver with defect correction order = 8
MG DL_MG: Solver finished
MG Hartree energy from (\int phi*rho dr):              1439.472558
MG Hartree energy from (\int eps (grad phi)^2 dr):     1438.829170
MG Discrepancy due to finite box and discretization:     -0.643387 (  -0.04470%)
MG Correction to account for finite box:                  0.468283
MG Remaining discrepancy, due to discretization:         -0.175105 (  -0.01216%)
     Trial step:       0.464396516898
             Q1:  -11594.529693681863
 Quadratic coef:       0.022962567027
 Linear coef   :      -0.048617290313
           Qmin:  -11594.529772589693
Quadratic minimum step length (  0.491619692511) accepted
    Initial Ne1:    7234.00162827
      Final Ne1:    7234.00000000

=================== Penalty functional idempotency correction ==================
 RMS occupancy error at iteration   1:  0.000065 (step -0.4997 Ne1=   7234.0000)
            Final RMS occupancy error   :  0.000000 (Ne1=   7234.0000)
               Final occupancy bounds   : [ -0.0000,  1.0000]
================================================================================

    5        -1.159450403896E+04     4.9333E-05     4.4634E-05    -9.7997E-02
MG BCs: +ve charge blocks (gridpoints):     31411 (   17571125).
MG BCs: -ve charge blocks (gridpoints):      8376 (    1118343).
MG BCs:     Elided blocks (gridpoints):    169224 (  177606997).
MG BCs: Computational effort saved:  99.9797%.
MG BCs: Charge after coarse-graining:           -9.0009875.
MG DL_MG: Calling solver with defect correction order = 8
MG DL_MG: Solver finished
MG Hartree energy from (\int phi*rho dr):              1439.497198
MG Hartree energy from (\int eps (grad phi)^2 dr):     1438.853803
MG Discrepancy due to finite box and discretization:     -0.643395 (  -0.04470%)
MG Correction to account for finite box:                  0.468282
MG Remaining discrepancy, due to discretization:         -0.175113 (  -0.01216%)
      ideal mu1:      -0.773149618578
             Q0:  -11594.529822174576
             G0:      -0.031668903562
   RMS gradient:       0.000027156382
MG BCs: +ve charge blocks (gridpoints):     31412 (   17570641).
MG BCs: -ve charge blocks (gridpoints):      8379 (    1118546).
MG BCs:     Elided blocks (gridpoints):    169223 (  177607278).
MG BCs: Computational effort saved:  99.9797%.
MG BCs: Charge after coarse-graining:           -9.0009874.
MG DL_MG: Calling solver with defect correction order = 8
MG DL_MG: Solver finished
MG Hartree energy from (\int phi*rho dr):              1438.865260
MG Hartree energy from (\int eps (grad phi)^2 dr):     1438.221864
MG Discrepancy due to finite box and discretization:     -0.643396 (  -0.04472%)
MG Correction to account for finite box:                  0.468291
MG Remaining discrepancy, due to discretization:         -0.175105 (  -0.01217%)
     Trial step:       0.477814266050
             Q1:  -11594.539759649080
 Quadratic coef:       0.005194379408
 Linear coef   :      -0.015131853912
           Qmin:  -11594.540842403600
Quadratic minimum step length (  0.695965302426) accepted
    Initial Ne1:    7234.00102813
      Final Ne1:    7234.00000000

=================== Penalty functional idempotency correction ==================
 RMS occupancy error at iteration   1:  0.000041 (step -0.4997 Ne1=   7234.0000)
            Final RMS occupancy error   :  0.000000 (Ne1=   7234.0000)
               Final occupancy bounds   : [ -0.0000,  1.0000]
================================================================================

    6        -1.159452982217E+04     2.7156E-05     2.4570E-05    -2.5783E-02
MG BCs: +ve charge blocks (gridpoints):     31414 (   17570497).
MG BCs: -ve charge blocks (gridpoints):      8379 (    1118655).
MG BCs:     Elided blocks (gridpoints):    169221 (  177607313).
MG BCs: Computational effort saved:  99.9797%.
MG BCs: Charge after coarse-graining:           -9.0009874.
MG DL_MG: Calling solver with defect correction order = 8
MG DL_MG: Solver finished
MG Hartree energy from (\int phi*rho dr):              1438.575988
MG Hartree energy from (\int eps (grad phi)^2 dr):     1437.932592
MG Discrepancy due to finite box and discretization:     -0.643396 (  -0.04472%)
MG Correction to account for finite box:                  0.468294
MG Remaining discrepancy, due to discretization:         -0.175101 (  -0.01217%)
      ideal mu1:      -0.772906145236
             Q0:  -11594.540851622820
             G0:      -0.017248588716
   RMS gradient:       0.000020066292
MG BCs: +ve charge blocks (gridpoints):     31410 (   17570982).
MG BCs: -ve charge blocks (gridpoints):      8379 (    1118389).
MG BCs:     Elided blocks (gridpoints):    169225 (  177607094).
MG BCs: Computational effort saved:  99.9797%.
MG BCs: Charge after coarse-graining:           -9.0009875.
MG DL_MG: Calling solver with defect correction order = 8
MG DL_MG: Solver finished
MG Hartree energy from (\int phi*rho dr):              1439.177995
MG Hartree energy from (\int eps (grad phi)^2 dr):     1438.534643
MG Discrepancy due to finite box and discretization:     -0.643353 (  -0.04470%)
MG Correction to account for finite box:                  0.468274
MG Remaining discrepancy, due to discretization:         -0.175079 (  -0.01217%)
     Trial step:       0.576664677412
             Q1:  -11594.545173141407
 Quadratic coef:       0.005625133261
 Linear coef   :      -0.009946651848
           Qmin:  -11594.545248669005
Quadratic minimum step length (  0.509844168422) accepted
    Initial Ne1:    7234.00019490
      Final Ne1:    7234.00000000

=================== Penalty functional idempotency correction ==================
 RMS occupancy error at iteration   1:  0.000003 (step -0.5000 Ne1=   7234.0000)
            Final RMS occupancy error   :  0.000000 (Ne1=   7234.0000)
               Final occupancy bounds   : [  0.0000,  1.0000]
================================================================================

    7        -1.159454085162E+04     2.0066E-05     1.8155E-05    -1.1029E-02
MG BCs: +ve charge blocks (gridpoints):     31412 (   17570921).
MG BCs: -ve charge blocks (gridpoints):      8379 (    1118414).
MG BCs:     Elided blocks (gridpoints):    169223 (  177607130).
MG BCs: Computational effort saved:  99.9797%.
MG BCs: Charge after coarse-graining:           -9.0009875.
MG DL_MG: Calling solver with defect correction order = 8
MG DL_MG: Solver finished
MG Hartree energy from (\int phi*rho dr):              1439.108127
MG Hartree energy from (\int eps (grad phi)^2 dr):     1438.464770
MG Discrepancy due to finite box and discretization:     -0.643358 (  -0.04471%)
MG Correction to account for finite box:                  0.468276
MG Remaining discrepancy, due to discretization:         -0.175082 (  -0.01217%)
      ideal mu1:      -0.773197614135
             Q0:  -11594.545248923358
             G0:      -0.010574049790
   RMS gradient:       0.000015711927
MG BCs: +ve charge blocks (gridpoints):     31411 (   17570985).
MG BCs: -ve charge blocks (gridpoints):      8379 (    1118385).
MG BCs:     Elided blocks (gridpoints):    169224 (  177607095).
MG BCs: Computational effort saved:  99.9797%.
MG BCs: Charge after coarse-graining:           -9.0009875.
MG DL_MG: Calling solver with defect correction order = 8
MG DL_MG: Solver finished
MG Hartree energy from (\int phi*rho dr):              1439.194969
MG Hartree energy from (\int eps (grad phi)^2 dr):     1438.551648
MG Discrepancy due to finite box and discretization:     -0.643321 (  -0.04470%)
MG Correction to account for finite box:                  0.468267
MG Remaining discrepancy, due to discretization:         -0.175054 (  -0.01216%)
     Trial step:       0.542226080997
             Q1:  -11594.549504446448
 Quadratic coef:       0.001478002487
 Linear coef   :      -0.005733525578
           Qmin:  -11594.550809353033
Quadratic minimum step length (  1.051712406524) accepted
    Initial Ne1:    7234.00024484
      Final Ne1:    7234.00000000

=================== Penalty functional idempotency correction ==================
 RMS occupancy error at iteration   1:  0.000031 (step -0.4991 Ne1=   7234.0000)
            Final RMS occupancy error   :  0.000000 (Ne1=   7234.0000)
               Final occupancy bounds   : [ -0.0000,  1.0000]
================================================================================

    8        -1.159454524892E+04     1.5712E-05     1.4215E-05    -4.3973E-03
MG BCs: +ve charge blocks (gridpoints):     31410 (   17571046).
MG BCs: -ve charge blocks (gridpoints):      8380 (    1118378).
MG BCs:     Elided blocks (gridpoints):    169225 (  177607041).
MG BCs: Computational effort saved:  99.9797%.
MG BCs: Charge after coarse-graining:           -9.0009875.
MG DL_MG: Calling solver with defect correction order = 8
MG DL_MG: Solver finished
MG Hartree energy from (\int phi*rho dr):              1439.274532
MG Hartree energy from (\int eps (grad phi)^2 dr):     1438.631246
MG Discrepancy due to finite box and discretization:     -0.643286 (  -0.04470%)
MG Correction to account for finite box:                  0.468258
MG Remaining discrepancy, due to discretization:         -0.175028 (  -0.01216%)
      ideal mu1:      -0.773231947749
             Q0:  -11594.550789791858
             G0:      -0.017082048790
   RMS gradient:       0.000020038885
MG BCs: +ve charge blocks (gridpoints):     31411 (   17570862).
MG BCs: -ve charge blocks (gridpoints):      8380 (    1118506).
MG BCs:     Elided blocks (gridpoints):    169224 (  177607097).
MG BCs: Computational effort saved:  99.9797%.
MG BCs: Charge after coarse-graining:           -9.0009875.
MG DL_MG: Calling solver with defect correction order = 8
MG DL_MG: Solver finished
MG Hartree energy from (\int phi*rho dr):              1438.905153
MG Hartree energy from (\int eps (grad phi)^2 dr):     1438.261959
MG Discrepancy due to finite box and discretization:     -0.643194 (  -0.04470%)
MG Correction to account for finite box:                  0.468225
MG Remaining discrepancy, due to discretization:         -0.174969 (  -0.01216%)
     Trial step:       0.755159517271
             Q1:  -11594.559038155596
 Quadratic coef:       0.004651307980
 Linear coef   :      -0.012899671718
           Qmin:  -11594.559733594933
Quadratic minimum step length (  1.047158123086) accepted
    Initial Ne1:    7234.00076468
      Final Ne1:    7234.00000000

=================== Penalty functional idempotency correction ==================
 RMS occupancy error at iteration   1:  0.000214 (step -0.4931 Ne1=   7234.0000)
 RMS occupancy error at iteration   2:  0.000001 (step -0.5000 Ne1=   7234.0000)
            Final RMS occupancy error   :  0.000000 (Ne1=   7234.0000)
               Final occupancy bounds   : [  0.0000,  1.0000]
================================================================================

    9        -1.159455078979E+04     2.0039E-05     1.8130E-05    -5.5409E-03
MG BCs: +ve charge blocks (gridpoints):     31412 (   17570833).
MG BCs: -ve charge blocks (gridpoints):      8381 (    1118557).
MG BCs:     Elided blocks (gridpoints):    169223 (  177607075).
MG BCs: Computational effort saved:  99.9797%.
MG BCs: Charge after coarse-graining:           -9.0009875.
MG DL_MG: Calling solver with defect correction order = 8
MG DL_MG: Solver finished
MG Hartree energy from (\int phi*rho dr):              1438.757337
MG Hartree energy from (\int eps (grad phi)^2 dr):     1438.114181
MG Discrepancy due to finite box and discretization:     -0.643156 (  -0.04470%)
MG Correction to account for finite box:                  0.468211
MG Remaining discrepancy, due to discretization:         -0.174945 (  -0.01216%)
      ideal mu1:      -0.772695541355
   10        -1.159455957694E+04     2.4435E-05     2.2108E-05    -8.7871E-03
Finished density kernel iterations (  10)

Writing density kernel to file "complex_6941.vacuum_dkn" ... done


>>> Density kernel optimised for the current NGWF basis:
     ~~~~~~~~~~~~~~~~~~~~~~~~~~~~~~~~~~~~~~~~~~~~~~~~~~~~~~~~~~~
     Total energy                =  -1.15945595769417E+04  Eh
     Estimated bandgap           =  -2.6959E-01  Eh
     RMS occupancy error         =   1.3238E-10
     [H,K] commutator            =   2.2108E-05
     Occupancy bounds            = [  0.000:  1.000]
     ~~~~~~~~~~~~~~~~~~~~~~~~~~~~~~~~~~~~~~~~~~~~~~~~~~~~~~~~~~~




################################################################################
########################### NGWF CG iteration  001 #############################
################################################################################
****** Reciprocal space K.E. preconditioning with k_zero =  3.5000 a0^-1 *******

>>> Checking for convergence of NGWFs:   NOT CONVERGED
  ========================================================================
         NGWF RMS gradient =  1.5617E-03 >  2.0000E-06  | above tolerance
  ========================================================================

>>> Improving NGWFs using line search:
============ Calculation of NGWF S^-1 using Hotelling algorithm ================ 
         Iteration  |  Frobenius norm and Maximum abs value    (of I-S*S_n^-1)   
               1       0.19234982E+00     0.48747786E-02
               2       0.85414896E-03     0.38380691E-04
               3       0.28843339E-07     0.26438460E-08
               4       0.12635686E-12     0.57731597E-14
================================================================================
MG BCs: +ve charge blocks (gridpoints):     30940 (   17521695).
MG BCs: -ve charge blocks (gridpoints):      8404 (    1118594).
MG BCs:     Elided blocks (gridpoints):    169694 (  177656176).
MG BCs: Computational effort saved:  99.9800%.
MG BCs: Charge after coarse-graining:           -9.0009884.
MG DL_MG: Calling solver with defect correction order = 8
MG DL_MG: Solver finished
MG Hartree energy from (\int phi*rho dr):              1407.298877
MG Hartree energy from (\int eps (grad phi)^2 dr):     1406.656360
MG Discrepancy due to finite box and discretization:     -0.642517 (  -0.04566%)
MG Correction to account for finite box:                  0.468180
MG Remaining discrepancy, due to discretization:         -0.174337 (  -0.01239%)
============ Calculation of NGWF S^-1 using Hotelling algorithm ================ 
         Iteration  |  Frobenius norm and Maximum abs value    (of I-S*S_n^-1)   
               1       0.18547161E+01     0.40708128E-01
               2       0.71300919E-01     0.25315380E-02
               3       0.14296613E-03     0.11458119E-04
               4       0.11376013E-08     0.24573255E-09
               5       0.10896213E-12     0.51070259E-14
================================================================================
------------------------------- NGWF line search -------------------------------
RMS gradient                =       0.00156165278924
Trial step length           =               0.122474
Gradient along search dir.  =       -270.86884738705
Functional at step 0        =  -11594.55957694165409
Functional at step 1        =  -11625.24890264833812
Functional predicted        =  -11705.26999386218813
Selected quadratic step     =               0.817447
--------------------------- NGWF line search finished --------------------------
                                               
Writing NGWFs to file "complex_6941.vacuum_tightbox_ngwfs"....  done

>>> Optimising kernel for current NGWFs:
   Initial electron number for spin 1:    7268.28483305
     Final electron number for spin 1:    7234.00000000

=================== Penalty functional idempotency correction ==================
 RMS occupancy error at iteration   1:  0.004189 (step -0.4866 Ne1=   7234.0000)
 RMS occupancy error at iteration   2:  0.000066 (step -0.5003 Ne1=   7234.0000)
            Final RMS occupancy error   :  0.000000 (Ne1=   7234.0000)
               Final occupancy bounds   : [  0.0000,  1.0000]
================================================================================

................................................................................
<<<<<<<<<<<<<< LNV (Original version) density kernel optimisation >>>>>>>>>>>>>>
~~~~~~~~~~~~~~~~~~~~~~~~~~~~~~~~~~~~~~~~~~~~~~~~~~~~~~~~~~~~~~~~~~~~~~~~~~~~~~~~
   iter  |      energy (Eh)       | rms gradient |  commutator  |   dE (Eh)
MG BCs: +ve charge blocks (gridpoints):     25224 (   17284432).
MG BCs: -ve charge blocks (gridpoints):      8564 (    1102795).
MG BCs:     Elided blocks (gridpoints):    175416 (  177909238).
MG BCs: Computational effort saved:  99.9828%.
MG BCs: Charge after coarse-graining:           -9.0006634.
MG DL_MG: Calling solver with defect correction order = 8
MG DL_MG: Solver finished
MG Hartree energy from (\int phi*rho dr):              1251.274560
MG Hartree energy from (\int eps (grad phi)^2 dr):     1250.631379
MG Discrepancy due to finite box and discretization:     -0.643181 (  -0.05140%)
MG Correction to account for finite box:                  0.468043
MG Remaining discrepancy, due to discretization:         -0.175138 (  -0.01400%)
      ideal mu1:      -0.712955911143
             Q0:  -11704.449392946321
             G0:      -9.860808711325
   RMS gradient:       0.000479784945
MG BCs: +ve charge blocks (gridpoints):     25311 (   17301994).
MG BCs: -ve charge blocks (gridpoints):      8552 (    1098469).
MG BCs:     Elided blocks (gridpoints):    175329 (  177896002).
MG BCs: Computational effort saved:  99.9827%.
MG BCs: Charge after coarse-graining:           -9.0006588.
MG DL_MG: Calling solver with defect correction order = 8
MG DL_MG: Solver finished
MG Hartree energy from (\int phi*rho dr):              1271.801570
MG Hartree energy from (\int eps (grad phi)^2 dr):     1271.151876
MG Discrepancy due to finite box and discretization:     -0.649694 (  -0.05108%)
MG Correction to account for finite box:                  0.467398
MG Remaining discrepancy, due to discretization:         -0.182296 (  -0.01433%)
     Trial step:       0.889253295038
             Q1:  -11701.415135760093
 Quadratic coef:      11.803013824514
 Linear coef   :      -8.768756638286
           Qmin:  -11706.078025559242
Quadratic minimum step length (  0.330324349777) accepted
    Initial Ne1:    7233.99962972
      Final Ne1:    7234.00000000

=================== Penalty functional idempotency correction ==================
 RMS occupancy error at iteration   1:  0.000357 (step -0.4986 Ne1=   7234.0000)
 RMS occupancy error at iteration   2:  0.000000 (step -0.5000 Ne1=   7234.0000)
            Final RMS occupancy error   :  0.000000 (Ne1=   7234.0000)
               Final occupancy bounds   : [  0.0000,  1.0000]
================================================================================

    1        -1.170444939295E+04     4.7978E-04     4.3409E-04
MG BCs: +ve charge blocks (gridpoints):     25260 (   17291204).
MG BCs: -ve charge blocks (gridpoints):      8557 (    1101217).
MG BCs:     Elided blocks (gridpoints):    175380 (  177904044).
MG BCs: Computational effort saved:  99.9828%.
MG BCs: Charge after coarse-graining:           -9.0006615.
MG DL_MG: Calling solver with defect correction order = 8
MG DL_MG: Solver finished
MG Hartree energy from (\int phi*rho dr):              1257.540950
MG Hartree energy from (\int eps (grad phi)^2 dr):     1256.895486
MG Discrepancy due to finite box and discretization:     -0.645464 (  -0.05133%)
MG Correction to account for finite box:                  0.467773
MG Remaining discrepancy, due to discretization:         -0.177692 (  -0.01413%)
      ideal mu1:      -0.719198084297
             Q0:  -11706.040188019164
             G0:      -0.990093994783
   RMS gradient:       0.000153295607
MG BCs: +ve charge blocks (gridpoints):     25262 (   17290868).
MG BCs: -ve charge blocks (gridpoints):      8564 (    1102158).
MG BCs:     Elided blocks (gridpoints):    175378 (  177903439).
MG BCs: Computational effort saved:  99.9828%.
MG BCs: Charge after coarse-graining:           -9.0006614.
MG DL_MG: Calling solver with defect correction order = 8
MG DL_MG: Solver finished
MG Hartree energy from (\int phi*rho dr):              1258.787180
MG Hartree energy from (\int eps (grad phi)^2 dr):     1258.141347
MG Discrepancy due to finite box and discretization:     -0.645833 (  -0.05131%)
MG Correction to account for finite box:                  0.467748
MG Remaining discrepancy, due to discretization:         -0.178085 (  -0.01415%)
     Trial step:       0.541979719612
             Q1:  -11706.232649841812
 Quadratic coef:       0.344149043034
 Linear coef   :      -0.536610865682
           Qmin:  -11706.249364266343
Quadratic minimum step length (  0.422538159570) accepted
    Initial Ne1:    7233.99995164
      Final Ne1:    7234.00000000

=================== Penalty functional idempotency correction ==================
 RMS occupancy error at iteration   1:  0.000142 (step -0.4994 Ne1=   7234.0000)
            Final RMS occupancy error   :  0.000000 (Ne1=   7234.0000)
               Final occupancy bounds   : [ -0.0000,  1.0000]
================================================================================

    2        -1.170604018802E+04     1.5330E-04     1.3870E-04    -1.5908E+00
MG BCs: +ve charge blocks (gridpoints):     25261 (   17290930).
MG BCs: -ve charge blocks (gridpoints):      8563 (    1101949).
MG BCs:     Elided blocks (gridpoints):    175379 (  177903586).
MG BCs: Computational effort saved:  99.9828%.
MG BCs: Charge after coarse-graining:           -9.0006614.
MG DL_MG: Calling solver with defect correction order = 8
MG DL_MG: Solver finished
MG Hartree energy from (\int phi*rho dr):              1258.511929
MG Hartree energy from (\int eps (grad phi)^2 dr):     1257.866181
MG Discrepancy due to finite box and discretization:     -0.645749 (  -0.05131%)
MG Correction to account for finite box:                  0.467753
MG Remaining discrepancy, due to discretization:         -0.177995 (  -0.01414%)
      ideal mu1:      -0.720044580801
             Q0:  -11706.249853507383
             G0:      -0.145012880091
   RMS gradient:       0.000058115600
MG BCs: +ve charge blocks (gridpoints):     25260 (   17290242).
MG BCs: -ve charge blocks (gridpoints):      8564 (    1102372).
MG BCs:     Elided blocks (gridpoints):    175380 (  177903851).
MG BCs: Computational effort saved:  99.9828%.
MG BCs: Charge after coarse-graining:           -9.0006614.
MG DL_MG: Calling solver with defect correction order = 8
MG DL_MG: Solver finished
MG Hartree energy from (\int phi*rho dr):              1258.019189
MG Hartree energy from (\int eps (grad phi)^2 dr):     1257.373489
MG Discrepancy due to finite box and discretization:     -0.645699 (  -0.05133%)
MG Correction to account for finite box:                  0.467728
MG Remaining discrepancy, due to discretization:         -0.177972 (  -0.01415%)
     Trial step:       0.478546876752
             Q1:  -11706.294192847796
 Quadratic coef:       0.025056120443
 Linear coef   :      -0.069395460856
           Qmin:  -11706.297902945029
Quadratic minimum step length (  0.662691998330) accepted
    Initial Ne1:    7234.00061075
      Final Ne1:    7234.00000000

=================== Penalty functional idempotency correction ==================
 RMS occupancy error at iteration   1:  0.000061 (step -0.4998 Ne1=   7234.0000)
            Final RMS occupancy error   :  0.000000 (Ne1=   7234.0000)
               Final occupancy bounds   : [ -0.0000,  1.0000]
================================================================================

    3        -1.170624985351E+04     5.8116E-05     5.2580E-05    -2.0967E-01
MG BCs: +ve charge blocks (gridpoints):     25260 (   17289941).
MG BCs: -ve charge blocks (gridpoints):      8565 (    1102543).
MG BCs:     Elided blocks (gridpoints):    175380 (  177903981).
MG BCs: Computational effort saved:  99.9828%.
MG BCs: Charge after coarse-graining:           -9.0006615.
MG DL_MG: Calling solver with defect correction order = 8
MG DL_MG: Solver finished
MG Hartree energy from (\int phi*rho dr):              1257.829627
MG Hartree energy from (\int eps (grad phi)^2 dr):     1257.183947
MG Discrepancy due to finite box and discretization:     -0.645681 (  -0.05133%)
MG Correction to account for finite box:                  0.467718
MG Remaining discrepancy, due to discretization:         -0.177963 (  -0.01415%)
      ideal mu1:      -0.718970720967
             Q0:  -11706.297989770537
             G0:      -0.036133979586
   RMS gradient:       0.000029001653
MG BCs: +ve charge blocks (gridpoints):     25260 (   17289803).
MG BCs: -ve charge blocks (gridpoints):      8564 (    1102573).
MG BCs:     Elided blocks (gridpoints):    175380 (  177904089).
MG BCs: Computational effort saved:  99.9828%.
MG BCs: Charge after coarse-graining:           -9.0006615.
MG DL_MG: Calling solver with defect correction order = 8
MG DL_MG: Solver finished
MG Hartree energy from (\int phi*rho dr):              1257.850957
MG Hartree energy from (\int eps (grad phi)^2 dr):     1257.205372
MG Discrepancy due to finite box and discretization:     -0.645584 (  -0.05132%)
MG Correction to account for finite box:                  0.467722
MG Remaining discrepancy, due to discretization:         -0.177862 (  -0.01414%)
     Trial step:       0.563142243176
             Q1:  -11706.307119037723
 Quadratic coef:       0.011219303133
 Linear coef   :      -0.020348570319
           Qmin:  -11706.307216375548
Quadratic minimum step length (  0.510688560572) accepted
    Initial Ne1:    7234.00023384
      Final Ne1:    7234.00000000

=================== Penalty functional idempotency correction ==================
 RMS occupancy error at iteration   1:  0.000019 (step -0.4999 Ne1=   7234.0000)
            Final RMS occupancy error   :  0.000000 (Ne1=   7234.0000)
               Final occupancy bounds   : [ -0.0000,  1.0000]
================================================================================

    4        -1.170629798977E+04     2.9002E-05     2.6239E-05    -4.8136E-02
MG BCs: +ve charge blocks (gridpoints):     25260 (   17289812).
MG BCs: -ve charge blocks (gridpoints):      8565 (    1102586).
MG BCs:     Elided blocks (gridpoints):    175380 (  177904067).
MG BCs: Computational effort saved:  99.9828%.
MG BCs: Charge after coarse-graining:           -9.0006615.
MG DL_MG: Calling solver with defect correction order = 8
MG DL_MG: Solver finished
MG Hartree energy from (\int phi*rho dr):              1257.848817
MG Hartree energy from (\int eps (grad phi)^2 dr):     1257.203224
MG Discrepancy due to finite box and discretization:     -0.645593 (  -0.05133%)
MG Correction to account for finite box:                  0.467722
MG Remaining discrepancy, due to discretization:         -0.177871 (  -0.01414%)
      ideal mu1:      -0.719022313219
             Q0:  -11706.307221808471
             G0:      -0.012957640278
   RMS gradient:       0.000017388719
MG BCs: +ve charge blocks (gridpoints):     25260 (   17290367).
MG BCs: -ve charge blocks (gridpoints):      8565 (    1102374).
MG BCs:     Elided blocks (gridpoints):    175380 (  177903724).
MG BCs: Computational effort saved:  99.9828%.
MG BCs: Charge after coarse-graining:           -9.0006614.
MG DL_MG: Calling solver with defect correction order = 8
MG DL_MG: Solver finished
MG Hartree energy from (\int phi*rho dr):              1258.260817
MG Hartree energy from (\int eps (grad phi)^2 dr):     1257.615270
MG Discrepancy due to finite box and discretization:     -0.645547 (  -0.05130%)
MG Correction to account for finite box:                  0.467711
MG Remaining discrepancy, due to discretization:         -0.177837 (  -0.01413%)
     Trial step:       0.536274464771
             Q1:  -11706.311000842717
 Quadratic coef:       0.003169817357
 Linear coef   :      -0.006948851605
           Qmin:  -11706.311030114533
Quadratic minimum step length (  0.587808579369) accepted
    Initial Ne1:    7234.00012172
      Final Ne1:    7234.00000000

=================== Penalty functional idempotency correction ==================
 RMS occupancy error at iteration   1:  0.000013 (step -0.4998 Ne1=   7234.0000)
            Final RMS occupancy error   :  0.000000 (Ne1=   7234.0000)
               Final occupancy bounds   : [ -0.0000,  1.0000]
================================================================================

    5        -1.170630722181E+04     1.7389E-05     1.5733E-05    -9.2320E-03
MG BCs: +ve charge blocks (gridpoints):     25260 (   17290409).
MG BCs: -ve charge blocks (gridpoints):      8565 (    1102363).
MG BCs:     Elided blocks (gridpoints):    175380 (  177903693).
MG BCs: Computational effort saved:  99.9828%.
MG BCs: Charge after coarse-graining:           -9.0006614.
MG DL_MG: Calling solver with defect correction order = 8
MG DL_MG: Solver finished
MG Hartree energy from (\int phi*rho dr):              1258.300443
MG Hartree energy from (\int eps (grad phi)^2 dr):     1257.654900
MG Discrepancy due to finite box and discretization:     -0.645543 (  -0.05130%)
MG Correction to account for finite box:                  0.467710
MG Remaining discrepancy, due to discretization:         -0.177833 (  -0.01413%)
      ideal mu1:      -0.719358360372
             Q0:  -11706.311031458434
             G0:      -0.005046552069
   RMS gradient:       0.000010852656
MG BCs: +ve charge blocks (gridpoints):     25260 (   17290428).
MG BCs: -ve charge blocks (gridpoints):      8565 (    1102372).
MG BCs:     Elided blocks (gridpoints):    175380 (  177903665).
MG BCs: Computational effort saved:  99.9828%.
MG BCs: Charge after coarse-graining:           -9.0006614.
MG DL_MG: Calling solver with defect correction order = 8
MG DL_MG: Solver finished
MG Hartree energy from (\int phi*rho dr):              1258.271277
MG Hartree energy from (\int eps (grad phi)^2 dr):     1257.625748
MG Discrepancy due to finite box and discretization:     -0.645529 (  -0.05130%)
MG Correction to account for finite box:                  0.467701
MG Remaining discrepancy, due to discretization:         -0.177829 (  -0.01413%)
     Trial step:       0.561450559968
             Q1:  -11706.312911288114
 Quadratic coef:       0.000953559804
 Linear coef   :      -0.002833389485
           Qmin:  -11706.313136228355
Quadratic minimum step length (  0.834141763649) accepted
    Initial Ne1:    7234.00015042
      Final Ne1:    7234.00000000

=================== Penalty functional idempotency correction ==================
 RMS occupancy error at iteration   1:  0.000018 (step -0.4992 Ne1=   7234.0000)
            Final RMS occupancy error   :  0.000000 (Ne1=   7234.0000)
               Final occupancy bounds   : [ -0.0000,  1.0000]
================================================================================

    6        -1.170631103146E+04     1.0853E-05     9.8190E-06    -3.8096E-03
MG BCs: +ve charge blocks (gridpoints):     25260 (   17290435).
MG BCs: -ve charge blocks (gridpoints):      8565 (    1102374).
MG BCs:     Elided blocks (gridpoints):    175380 (  177903656).
MG BCs: Computational effort saved:  99.9828%.
MG BCs: Charge after coarse-graining:           -9.0006614.
MG DL_MG: Calling solver with defect correction order = 8
MG DL_MG: Solver finished
MG Hartree energy from (\int phi*rho dr):              1258.256935
MG Hartree energy from (\int eps (grad phi)^2 dr):     1257.611412
MG Discrepancy due to finite box and discretization:     -0.645523 (  -0.05130%)
MG Correction to account for finite box:                  0.467696
MG Remaining discrepancy, due to discretization:         -0.177826 (  -0.01413%)
      ideal mu1:      -0.719270326241
             Q0:  -11706.313134214724
             G0:      -0.004278648700
   RMS gradient:       0.000009994099
MG BCs: +ve charge blocks (gridpoints):     25260 (   17290083).
MG BCs: -ve charge blocks (gridpoints):      8565 (    1102482).
MG BCs:     Elided blocks (gridpoints):    175380 (  177903900).
MG BCs: Computational effort saved:  99.9828%.
MG BCs: Charge after coarse-graining:           -9.0006614.
MG DL_MG: Calling solver with defect correction order = 8
MG DL_MG: Solver finished
MG Hartree energy from (\int phi*rho dr):              1258.092396
MG Hartree energy from (\int eps (grad phi)^2 dr):     1257.446855
MG Discrepancy due to finite box and discretization:     -0.645540 (  -0.05131%)
MG Correction to account for finite box:                  0.467703
MG Remaining discrepancy, due to discretization:         -0.177838 (  -0.01414%)
     Trial step:       0.684345936127
             Q1:  -11706.313958354061
 Quadratic coef:       0.002103936513
 Linear coef   :      -0.002928075850
           Qmin:  -11706.314152975050
Quadratic minimum step length (  0.476206576676) accepted
    Initial Ne1:    7234.00019489
      Final Ne1:    7234.00000000

=================== Penalty functional idempotency correction ==================
 RMS occupancy error at iteration   1:  0.000001 (step -0.5000 Ne1=   7234.0000)
            Final RMS occupancy error   :  0.000000 (Ne1=   7234.0000)
               Final occupancy bounds   : [  0.0000,  1.0000]
================================================================================

    7        -1.170631313421E+04     9.9941E-06     9.0422E-06    -2.1028E-03
MG BCs: +ve charge blocks (gridpoints):     25260 (   17290188).
MG BCs: -ve charge blocks (gridpoints):      8565 (    1102466).
MG BCs:     Elided blocks (gridpoints):    175380 (  177903811).
MG BCs: Computational effort saved:  99.9828%.
MG BCs: Charge after coarse-graining:           -9.0006614.
MG DL_MG: Calling solver with defect correction order = 8
MG DL_MG: Solver finished
MG Hartree energy from (\int phi*rho dr):              1258.142305
MG Hartree energy from (\int eps (grad phi)^2 dr):     1257.496770
MG Discrepancy due to finite box and discretization:     -0.645535 (  -0.05131%)
MG Correction to account for finite box:                  0.467701
MG Remaining discrepancy, due to discretization:         -0.177834 (  -0.01413%)
      ideal mu1:      -0.719111968943
             Q0:  -11706.314152983599
             G0:      -0.002759264516
   RMS gradient:       0.000008025611
MG BCs: +ve charge blocks (gridpoints):     25260 (   17290104).
MG BCs: -ve charge blocks (gridpoints):      8565 (    1102482).
MG BCs:     Elided blocks (gridpoints):    175380 (  177903879).
MG BCs: Computational effort saved:  99.9828%.
MG BCs: Charge after coarse-graining:           -9.0006614.
MG DL_MG: Calling solver with defect correction order = 8
MG DL_MG: Solver finished
MG Hartree energy from (\int phi*rho dr):              1258.075391
MG Hartree energy from (\int eps (grad phi)^2 dr):     1257.429847
MG Discrepancy due to finite box and discretization:     -0.645544 (  -0.05131%)
MG Correction to account for finite box:                  0.467700
MG Remaining discrepancy, due to discretization:         -0.177845 (  -0.01414%)
     Trial step:       0.570867791616
             Q1:  -11706.315394279198
 Quadratic coef:       0.000333879641
 Linear coef   :      -0.001575175241
           Qmin:  -11706.316010821523
Quadratic minimum step length (  1.346618211382) accepted
    Initial Ne1:    7234.00035482
      Final Ne1:    7234.00000000

=================== Penalty functional idempotency correction ==================
 RMS occupancy error at iteration   1:  0.000032 (step -0.4979 Ne1=   7234.0000)
            Final RMS occupancy error   :  0.000000 (Ne1=   7234.0000)
               Final occupancy bounds   : [ -0.0000,  1.0000]
================================================================================

    8        -1.170631415298E+04     8.0256E-06     7.2612E-06    -1.0188E-03
MG BCs: +ve charge blocks (gridpoints):     25260 (   17290039).
MG BCs: -ve charge blocks (gridpoints):      8565 (    1102489).
MG BCs:     Elided blocks (gridpoints):    175380 (  177903937).
MG BCs: Computational effort saved:  99.9828%.
MG BCs: Charge after coarse-graining:           -9.0006614.
MG DL_MG: Calling solver with defect correction order = 8
MG DL_MG: Solver finished
MG Hartree energy from (\int phi*rho dr):              1257.983533
MG Hartree energy from (\int eps (grad phi)^2 dr):     1257.337977
[...]
MG Hartree energy from (\int phi*rho dr):              1216.246733
MG Hartree energy from (\int eps (grad phi)^2 dr):     1216.063330
MG Discrepancy due to finite box and discretization:     -0.183403 (  -0.01508%)
MG Correction to account for finite box:                  0.006382
MG Remaining discrepancy, due to discretization:         -0.177021 (  -0.01455%)
             Q2:  -11740.458829661598
  Cubic LS coeff:       0.906878211611
Predicted energy:  -11740.458829661646
Cubic minimum step length accepted
    Initial Ne1:    7234.00000000
      Final Ne1:    7234.00000000

=================== Penalty functional idempotency correction ==================
 RMS occupancy error at iteration   1:  0.000000 (step -0.5000 Ne1=   7234.0000)
            Final RMS occupancy error   :  0.000000 (Ne1=   7234.0000)
               Final occupancy bounds   : [ -0.0000,  1.0000]
================================================================================

    7        -1.174045882966E+04     9.2273E-09     8.3484E-09    -2.3283E-09

Reusing previously generated solute cavity.
MG BCs: +ve charge blocks (gridpoints):     29320 (   19524439).
MG BCs: -ve charge blocks (gridpoints):      8582 (    1070984).
MG BCs:     Elided blocks (gridpoints):    171320 (  175701042).
MG BCs: Computational effort saved:  99.9807%.
MG BCs: Charge after coarse-graining:           -9.0009586.
MG DL_MG: Calling solver with defect correction order = 8
MG DL_MG: Solver finished
MG Hartree energy from (\int phi*rho dr):              1216.246731
MG Hartree energy from (\int eps (grad phi)^2 dr):     1216.063329
MG Discrepancy due to finite box and discretization:     -0.183403 (  -0.01508%)
MG Correction to account for finite box:                  0.006382
MG Remaining discrepancy, due to discretization:         -0.177021 (  -0.01455%)
      ideal mu1:      -0.480111828176
             Q0:  -11740.458829661482
             G0:      -0.000000004421
   RMS gradient:       0.000000010496

Reusing previously generated solute cavity.
MG BCs: +ve charge blocks (gridpoints):     29320 (   19524439).
MG BCs: -ve charge blocks (gridpoints):      8582 (    1070984).
MG BCs:     Elided blocks (gridpoints):    171320 (  175701042).
MG BCs: Computational effort saved:  99.9807%.
MG BCs: Charge after coarse-graining:           -9.0009586.
MG DL_MG: Calling solver with defect correction order = 8
MG DL_MG: Solver finished
MG Hartree energy from (\int phi*rho dr):              1216.246702
MG Hartree energy from (\int eps (grad phi)^2 dr):     1216.063299
MG Discrepancy due to finite box and discretization:     -0.183403 (  -0.01508%)
MG Correction to account for finite box:                  0.006382
MG Remaining discrepancy, due to discretization:         -0.177021 (  -0.01455%)
     Trial step:       0.666984340516
             Q1:  -11740.458829663112
 Quadratic coef:       0.000000001319
 Linear coef   :      -0.000000002949
           Qmin:  -11740.458829663130
Quadratic minimum step length (  0.745695936483) accepted
    Initial Ne1:    7234.00000000
      Final Ne1:    7234.00000000

=================== Penalty functional idempotency correction ==================
 RMS occupancy error at iteration   1:  0.000000 (step -0.5000 Ne1=   7234.0000)
            Final RMS occupancy error   :  0.000000 (Ne1=   7234.0000)
               Final occupancy bounds   : [ -0.0000,  1.0000]
================================================================================

    8        -1.174045882966E+04     1.0496E-08     9.4960E-09    -3.7253E-09

Reusing previously generated solute cavity.
MG BCs: +ve charge blocks (gridpoints):     29320 (   19524439).
MG BCs: -ve charge blocks (gridpoints):      8582 (    1070984).
MG BCs:     Elided blocks (gridpoints):    171320 (  175701042).
MG BCs: Computational effort saved:  99.9807%.
MG BCs: Charge after coarse-graining:           -9.0009586.
MG DL_MG: Calling solver with defect correction order = 8
MG DL_MG: Solver finished
MG Hartree energy from (\int phi*rho dr):              1216.246698
MG Hartree energy from (\int eps (grad phi)^2 dr):     1216.063295
MG Discrepancy due to finite box and discretization:     -0.183403 (  -0.01508%)
MG Correction to account for finite box:                  0.006382
MG Remaining discrepancy, due to discretization:         -0.177021 (  -0.01455%)
      ideal mu1:      -0.480111786684
             Q0:  -11740.458829663228
             G0:      -0.000000002336
   RMS gradient:       0.000000006469

Reusing previously generated solute cavity.
MG BCs: +ve charge blocks (gridpoints):     29320 (   19524439).
MG BCs: -ve charge blocks (gridpoints):      8582 (    1070984).
MG BCs:     Elided blocks (gridpoints):    171320 (  175701042).
MG BCs: Computational effort saved:  99.9807%.
MG BCs: Charge after coarse-graining:           -9.0009586.
MG DL_MG: Calling solver with defect correction order = 8
MG DL_MG: Solver finished
MG Hartree energy from (\int phi*rho dr):              1216.246684
MG Hartree energy from (\int eps (grad phi)^2 dr):     1216.063282
MG Discrepancy due to finite box and discretization:     -0.183403 (  -0.01508%)
MG Correction to account for finite box:                  0.006382
MG Remaining discrepancy, due to discretization:         -0.177021 (  -0.01455%)
     Trial step:       0.705242874774
             Q1:  -11740.458829662879
 Quadratic coef:       0.000000001997
 Linear coef   :      -0.000000001648
           Qmin:  -11740.458829663568
Quadratic minimum step length (  0.290876911010) accepted
    Initial Ne1:    7234.00000000
      Final Ne1:    7234.00000000

=================== Penalty functional idempotency correction ==================
 RMS occupancy error at iteration   1:  0.000000 (step -0.5000 Ne1=   7234.0000)
            Final RMS occupancy error   :  0.000000 (Ne1=   7234.0000)
               Final occupancy bounds   : [ -0.0000,  1.0000]
================================================================================

    9        -1.174045882966E+04     6.4689E-09     5.8528E-09    -1.7462E-09

Reusing previously generated solute cavity.
MG BCs: +ve charge blocks (gridpoints):     29320 (   19524439).
MG BCs: -ve charge blocks (gridpoints):      8582 (    1070984).
MG BCs:     Elided blocks (gridpoints):    171320 (  175701042).
MG BCs: Computational effort saved:  99.9807%.
MG BCs: Charge after coarse-graining:           -9.0009586.
MG DL_MG: Calling solver with defect correction order = 8
MG DL_MG: Solver finished
MG Hartree energy from (\int phi*rho dr):              1216.246693
MG Hartree energy from (\int eps (grad phi)^2 dr):     1216.063290
MG Discrepancy due to finite box and discretization:     -0.183403 (  -0.01508%)
MG Correction to account for finite box:                  0.006382
MG Remaining discrepancy, due to discretization:         -0.177021 (  -0.01455%)
      ideal mu1:      -0.480111779104
   10        -1.174045882966E+04     4.2500E-09     3.8452E-09     0.0000E+00
Finished density kernel iterations (  10)

Writing density kernel to file "complex_6941.dkn" ... done


>>> Density kernel optimised for the current NGWF basis:
     ~~~~~~~~~~~~~~~~~~~~~~~~~~~~~~~~~~~~~~~~~~~~~~~~~~~~~~~~~~~
     Total energy                =  -1.17404588296632E+04  Eh
     Estimated bandgap           =   9.2380E-02  Eh
     RMS occupancy error         =   5.7746E-16
     [H,K] commutator            =   3.8452E-09
     Occupancy bounds            = [ -0.000:  1.000]
     ~~~~~~~~~~~~~~~~~~~~~~~~~~~~~~~~~~~~~~~~~~~~~~~~~~~~~~~~~~~




################################################################################
########################### NGWF CG iteration  004 #############################
################################################################################
****** Reciprocal space K.E. preconditioning with k_zero =  3.5000 a0^-1 *******

>>> Checking for convergence of NGWFs: 
           ........................................................
           |         *** NGWF optimisation converged ***          |
           | RMS NGWF gradient =    0.00000195654555              |
           | Criteria satisfied:                                  |
           | -> RMS NGWF gradient lower than set threshold.       |
           ========================================================

Reusing previously generated solute cavity.
MG BCs: +ve charge blocks (gridpoints):     29320 (   19524439).
MG BCs: -ve charge blocks (gridpoints):      8582 (    1070984).
MG BCs:     Elided blocks (gridpoints):    171320 (  175701042).
MG BCs: Computational effort saved:  99.9807%.
MG BCs: Charge after coarse-graining:           -9.0009586.
MG DL_MG: Calling solver with defect correction order = 8
MG DL_MG: Solver finished
MG Hartree energy from (\int phi*rho dr):              1216.246693
MG Hartree energy from (\int eps (grad phi)^2 dr):     1216.063290
MG Discrepancy due to finite box and discretization:     -0.183403 (  -0.01508%)
MG Correction to account for finite box:                  0.006382
MG Remaining discrepancy, due to discretization:         -0.177021 (  -0.01455%)

================================================================================
           ---------------- ENERGY COMPONENTS (Eh) ----------------
           | Kinetic                    :     8576.50591213782536 |
           | Pseudo. (local,OBC,corr'd) :    -5077.70706252967830 |
           | Pseudopotential (non-local):     1410.01093343756361 |
           | Hartree (molecular)        :     1216.24669255294884 |
           | Exchange-correlation       :    -3376.22874571611419 |
           | Ion-ion (open BC)          :   836305.06336563895456 |
           | Dispersion Correction      :       -3.27304416679889 |
           | Smeared ion non-self corr. :  -836256.77284561470151 |
           | Smeared ion self corr.     :   -14534.96330857569956 |
           | Solvent cavitation energy  :        2.34554183905728 |
           | Solute-solvent dis-rep en. :       -1.68626866664426 |
           | Total                      :   -11740.45882966337376 |
           --------------------------------------------------------
           ------ LOCAL ENERGY COMPONENTS FROM MATRIX TRACES ------
           | Pseudopotential (local)    :    -5077.70706252968375 |
           | Hartree                    :    -1998.23087896176867 |
           --------------------------------------------------------
           Integrated density           :     7233.99999999885767
           Integrated density tr(KS)    :     7234.00000000000000
================================================================================


                        <<<<< CALCULATION SUMMARY >>>>>                         
|ITER|    RMS GRADIENT   |     TOTAL ENERGY    |   step   |     Epredicted              
   0     0.00003962032144 -11740.39526372635737   0.630724 -11740.45024765402923        
   1     0.00000981543269 -11740.45825421460904   0.089490 -11740.45873301444044        
   2     0.00000435539892 -11740.45880976435728   0.016541 -11740.45882718922985        
   3     0.00000195654555 -11740.45882966322824  <-- CG                                 

=================== Finished the calculation in solvent ========================
= Adjusting the following parameters: 
= read_denskern: F
= read_tightbox_ngwfs: F
= maxit_pen: 0 (restored to user-specified value)
= restart read filename prefix: ""
= restart write filename prefix: ""
================================================================================

================================================================================
IS: Calculation in solvent completed (NGWFs converged).      

Individual components of total energy in solvent:     hartree           kcal/mol
- Usual non-electrostatic DFT terms:    -12957.36479538858839    -8130868.991598
- Electrostatic fixed charge energy:      1216.24669255294884      763206.305817
- Apolar cavitation energy:                  2.34554183905728        1471.849694
- Apolar dispersion-repulsion energy:       -1.68626866664426       -1058.149541
 -------------------------------------------------------------------------------
- Total energy in solvent:              -11740.45882966322824    -7367248.985628

Components of total energy in solvent:                hartree           kcal/mol
- Usual non-electrostatic DFT terms:    -12957.36479538858839    -8130868.991598
- Electrostatic energy:                   1216.24669255294884      763206.305817
- Apolar energy terms:                       0.65927317241303         413.700153
 -------------------------------------------------------------------------------
- Total energy in solvent:              -11740.45882966322824    -7367248.985628

Calculation of free energy of solvation:              hartree           kcal/mol
- Total energy in solvent:         (+)  -11740.45882966322824    -7367248.985628
- Total energy in vacuum:          (-)  -11736.47765637864359    -7364750.761728
 -------------------------------------------------------------------------------
- Total free energy of solvation:           -3.98117328458466       -2498.223900

Components of polar term in f.e. of solvation:        hartree           kcal/mol
- Electrostatic:                            -4.81857366926465       -3023.700563
- Change in nonelectrostatic DFT terms:      0.17812721226801         111.776511
 -------------------------------------------------------------------------------
- Polar term in f.e. of solvation:          -4.64044645699664       -2911.924052

Components of free energy of solvation:               hartree           kcal/mol
- Polar term in f.e. of solvation: (+)      -4.64044645699664       -2911.924052
- Apolar (cavitation, dis., rep.): (+)       0.65927317241303         413.700153
 -------------------------------------------------------------------------------
- Total free energy of solvation:           -3.98117328458362       -2498.223900
================================================================================


------------------------------ TIMING INFORMATION ------------------------------
AVERAGE TIME:   30584.605s on     60 node(s)                                    
TOTAL TIME:     30584.605s on     60 node(s)                                    
================= AVERAGE TIMINGS FROM ALL NODES (CUMULATIVE) ==================
|| TAG                                    #calls    cpu time   %total  Gflops ||
|| work_imbalance                       :     1        0.00s   0.000%  ------ ||
|| sparse_set_to_garbage                :   164        0.03s   0.000%  ------ ||
|| parallel_prepare_fd_halos_request    :  1827        0.03s   0.000%  ------ ||
|| ngwfs_initialise_from_radial         :     1        0.12s   0.000%  ------ ||
|| basis_extract_function_from_box      :  3381        0.14s   0.000%  ------ ||
|| parallel_prepare_fd_halos_satisfy    :  1827        0.62s   0.002%  ------ ||
|| parallel_prepare_fd_halos_alloc      :  1827        0.64s   0.002%  ------ ||
|| pseudopotentials_nonlocal_mat        :    28        2.03s   0.007%  ------ ||
|| openbc_locps_radial                  :     1        3.02s   0.010%  ------ ||
|| density_init_guess_real              :     1        3.61s   0.012%  ------ ||
|| restart_kernel_read                  :     1        4.39s   0.014%  ------ ||
|| restart_ngwfs_tightbox_input         :     1        7.43s   0.024%  ------ ||
|| parallel_prepare_fd_halos_comms_imbal:  1827        9.73s   0.032%  ------ ||
|| parallel_prepare_fd_halos_clear      :  1827       17.69s   0.058%  ------ ||
|| sparse_init                          :     2       22.63s   0.074%  ------ ||
|| projectors_func_ovlp_box             :    28       25.64s   0.084%  ------ ||
|| parallel_prepare_fd_halos_comms_wait :  1827       26.00s   0.085%  ------ ||
|| palser_mano_kernel_optimise          :     1       30.01s   0.098%  ------ ||
|| function_ops_brappd_ketppd           :    28       30.66s   0.100%  ------ ||
|| projectors_init_fftbox_recip         :   133       32.41s   0.106%  ------ ||
|| basis_copy_function_to_box           : 54868       41.62s   0.136%  ------ ||
|| ngwf_gradient_coeffs                 :    15       44.17s   0.144%  ------ ||
|| fourier_apply_box_pair               :  4812       50.28s   0.164% 590.244 ||
|| pseudo_make_structure_factor         :     2       52.44s   0.171%  ------ ||
|| parallel_prepare_fd_halos            :  1827       54.73s   0.179%  ------ ||
|| sparse_embed_hotelling_invert_embed  :    28       71.95s   0.235%  ------ ||
|| restart_kernel_write                 :    16      104.58s   0.342%  ------ ||
|| finite_difference_derivative         :  1827      124.95s   0.409%  ------ ||
|| integrals_kinetic                    :    28      144.31s   0.472%  ------ ||
|| basis_dot_function_with_box          : 8.385M     163.86s   0.536%  ------ ||
|| projectors_gradient_batch            :   105      168.20s   0.550%  ------ ||
|| fourier_apply_cell_backward          :  1219      179.02s   0.585%  94.057 ||
|| sparse_trace                         :  4849      201.16s   0.658%  ------ ||
|| fourier_apply_cell_forward           :  1217      234.40s   0.766%  71.715 ||
|| openbc_locps_on_grid                 :     2      265.20s   0.867%  ------ ||
|| kernel_purify                        :   464      266.25s   0.871%  ------ ||
|| lnv_gradient_norm                    :   150      376.29s   1.230%  ------ ||
|| basis_add_function_to_box            : 17.44M     395.22s   1.292%  ------ ||
|| kernel_fix                           :   150      446.66s   1.460%  ------ ||
|| xc_energy_potential                  :   304      477.22s   1.560%  ------ ||
|| hamiltonian_energy_components        :     4      520.02s   1.700%  ------ ||
|| integrals_locpot_mat_els_batch       :  1113      713.72s   2.334%  ------ ||
|| ngwf_gradient_build_batch            :   105      743.05s   2.429%  ------ ||
|| restart_ngwfs_tightbox_output        :    13      935.63s   3.059%  ------ ||
|| ngwf_gradient_batch                  :   105     1021.02s   3.338%  ------ ||
|| density_batch_row_sums               :  2121     1119.26s   3.660%  ------ ||
|| ngwf_gradient_lnv                    :    15     1142.60s   3.736%  ------ ||
|| cell_grid_deposit_box_real           : 35200     1380.93s   4.515%  ------ ||
|| sparse_product                       :  6159     1636.11s   5.349%  ------ ||
|| cell_grid_extract_box_real           : 38596     1675.47s   5.478%  ------ ||
|| density_fftbox_deposit_to_cell       : 33330     2123.31s   6.942%  ------ ||
|| density_fftbox_interpolate_multiply  : 33330     3594.83s  11.754%  ------ ||
|| potential_apply_to_ngwf_batch        :  1113     3691.89s  12.071%  ------ ||
|| fourier_apply_box                    : 114.7k    4417.77s  14.444% 776.172 ||
|| integrals_locpot_dbl_grid            :   159     4429.87s  14.484%  ------ ||
|| multigrid_prepare_bound_cond         :   304     4480.81s  14.651%  ------ ||
|| density_batch_interp_deposit         :  2121     6643.86s  21.723%  ------ ||
|| dl_mg_solver_calls                   :   304     7539.48s  24.651%  ------ ||
|| density_on_dbl_grid                  :   303     8058.35s  26.348%  ------ ||
|| multigrid_calculate_hartree          :   304    12192.62s  39.865%  ------ ||
|| hamiltonian_lhxc_calculate           :   299    20628.17s  67.446%  ------ ||
|| lnv_denskernel_optimise_cg           :    15    25773.33s  84.269%  ------ ||
|| ngwf_cg_optimise                     :     2    29658.21s  96.971%  ------ ||
|| total_time                           :     1    30584.61s 100.000%  ------ ||
================================================================================
Overhead of generating timer report: 
- 0 ms averaging over threads,
- 15 ms ensuring consistency across MPI ranks,
- 0 ms printing in order.

Job completed: 10-05-2020 01:03 (+0100)

Application 40552514 resources: utime ~6419945s, stime ~219626s, Rss ~3844964, inblocks ~295382660, outblocks ~63749945
