 +---------------------------------------------------------------+
 |                                                               |
 |        ####### #     # ####### ####### ####### ######         |
 |        #     # ##    # #          #    #       #     #        |
 |        #     # # #   # #          #    #       #     #        |
 |        #     # #  #  # #####      #    #####   ######         |
 |        #     # #   # # #          #    #       #              |
 |        #     # #    ## #          #    #       #              |
 |        ####### #     # #######    #    ####### #              |
 |                                                               |
 |        Linear-Scaling Ab Initio Total Energy Program          |
 |                                                               |
 |          Release for academic collaborators of ODG            |
 |                                             Version 5.3.2.6.  |
 |                                                               |
 +---------------------------------------------------------------+
 |                                                               |
 |  Authors:                                                     |
 |  Jacek Dziedzic, Peter D. Haynes, Nicholas D. M. Hine,        |
 |  Arash. A. Mostofi, Mike C. Payne and Chris-Kriton Skylaris   |
 |                                                               |
 |  Contributors:                                                |
 |  J. Aarons, L. Andrinopoulos, P. W. Avraam, R. A. Bell,       |
 |  A. Bhandari, G. A. Bramley, R. J. Charlton, S. J. Clark,     |
 |  R. J. Clements, G. C. Constantinescu, F. Corsetti,           |
 |  N. Corsini, O. Dieguez, S. M. M. Dubois, K. K. B. Duff,      |
 |  J. M. Escartin, A. Greco, H. Helal, Q. O. Hill, L. P. Lee,   |
 |  J.-H. Li, E. B. Linscott, G. Moynihan, D. D. O`Regan,        |
 |  O. K. Okan, M. J. S. Phipps, C. J. Pickard,                  |
 |  J. C. A. Prentice, M. I. J. Probert, L. E. Ratcliff,         |
 |  M. Robinson, A. Ruiz Serrano, J. S. Spencer, E. W. Tait,     |
 |  G. Teobaldi, D. Turban, V. Vitale, K. A. Wilkinson,          |
 |  C. Weber, J. C. Womack, N. Yeung and T. J. Zuehlsdorff       |
 |                                                               |
 |                                   Copyright (c) 2004-2019     |
 |                                                               |
 |  Please cite:                                                 |
 |  "Introducing ONETEP: Linear-scaling density functional       |
 |   simulations on parallel computers".                         |
 |   C.-K. Skylaris, P. D. Haynes, A. A. Mostofi, M. C. Payne.   |
 |   J. Chem. Phys. 122 084119 (2005).                           |
 |                                                               |
 |          in all publications arising from your use of ONETEP. |
 |                                                               |
 +---------------------------------------------------------------+
 |                                                               |
 |   ONETEP is based on developments described in the following  |
 |   publications:                                               |
 |                                                               |
 |  "Nonorthogonal generalized Wannier function pseudopotential  |
 |   plane-wave method".                                         |
 |   C.-K. Skylaris, A. A. Mostofi, P. D. Haynes, O. Dieguez,    |
 |   M. C. Payne.                                                |
 |   Phys. Rev. B 66 035119 (2002).                              |
 |                                                               |
 |  "Preconditioned iterative minimization for linear-scaling    |
 |   electronic structure calculations".                         |
 |   A. A. Mostofi, P. D. Haynes, C.-K. Skylaris, M. C. Payne.   |
 |   J. Chem. Phys. 119(17), pp.8842-8848 (2003).                |
 |                                                               |
 |  "Total-energy calculations on a real space grid with         |
 |   localized functions and a plane-wave basis".                |
 |   A. A. Mostofi, C.-K. Skylaris, P. D. Haynes, M. C. Payne.   |
 |   Comput. Phys. Commun. 147, pp.788-802 (2002).               |
 |                                                               |
 |  "Accurate kinetic energy evaluation in electronic structure  |
 |   calculations with localized functions on real space grids"  |
 |   C.-K. Skylaris, A. A. Mostofi, P. D. Haynes, C. J. Pickard, |
 |   M. C. Payne.                                                |
 |   Comput. Phys. Commun. 140, pp.315-322 (2001).               |
 |                                                               |
 |  "Accurate ionic forces and geometry optimization in linear-  |
 |   scaling density-functional theory with local orbitals"      |
 |   N. D. M. Hine, M. Robinson, P. D. Haynes, C.-K. Skylaris,   |
 |   M. C. Payne, and A. A. Mostofi.                             |
 |   Phys. Rev. B 83 195102 (2011).                              |
 |                                                               |
 +---------------------------------------------------------------+

Job started: 03-04-2020 07:30 (+0100)
 
Reading parameters from file "complex_30121.dat" ...... done

If your calculation crashes here, before "Checking processes and threads..."
is displayed, then your stack size is insufficient.
If so, use "ulimit -s unlimited" at runtime.
You can disable this check with "check_stack_size F".

Checking processes and threads...
   Determining the default number of threads...
      No default threads set at compilation time: defaulting to 1.
      OpenMP library call suggests 4 threads.
      Hybrid MPI-OpenMP compilation detected.
      Number of MPI processes > 1.
      OMP_NUM_THREADS environment variable present and
      its value matches the one obtained from the OpenMP library call.
      Using this value as default.
      Default threads: 4
      Default applies to threads_max and threads_num_fftboxes.
      Settings in the input file override this default.
   ... done

   Running with 60 MPI processes.
   There are 6 MPI processes running on the same node as the root process.
   Each MPI process is using: 
               1 threads for simulation cell FFTs.
               1 threads for parallel FFT box operations.
               4 threads for loops over batched FFT box operations.
               4 threads in other parallel regions.
... done

Basic input checks...... done

Reading geometry and species blocks from file "complex_30121.dat" ...
  <species_atomic_set> block not found: NGWF initialisation set to SOLVE
IS: Dielectric excluded regions:
    - NONE.
    
  Number of PPD points along a3 set to 1.  This is 
  the default value, it may have been provided also in the input file.
... done
 Writing xyz coordinates to file "complex_30121.xyz" ... done


--------------------------------------------------------------------------------
---------------------------------- INPUT FILE ----------------------------------
--------------------------------------------------------------------------------

cutoff_energy       : 800 eV                                                    
xc_functional PBE                                                               
task SINGLEPOINT                                                                
write_xyz true                                                                  
output_detail VERBOSE                                                           
ngwf_threshold_orig : 0.000002                                                  
kernel_cutoff       : 1000                                                      
k_zero              : 3.5                                                       
elec_cg_max 0                                                                   
occ_mix 1.0                                                                     
dispersion 1                                                                    
maxit_ngwf_cg 40                                                                
minit_lnv 10                                                                    
maxit_lnv 10                                                                    
write_denskern T                                                                
write_tightbox_ngwfs T                                                          
charge 9                                                                        
is_implicit_solvent T                                                           
is_auto_solvation T                                                             
is_include_apolar T                                                             
is_smeared_ion_rep T                                                            
is_solvent_surf_tension 4.7624E-5 Ha/bohr**2                                    
is_apolar_scaling_factor 0.281075                                               
is_solvation_beta 1.3                                                           
is_density_threshold 0.00035                                                    
is_bulk_permittivity 78.54                                                      
is_dielectric_model fix_initial                                                 
is_smeared_ion_width 0.8                                                        
mg_defco_fd_order 8                                                             
is_bc_coarseness 10                                                             
is_bc_surface_coarseness 1                                                      
fine_grid_scale 2.0                                                             
%block species                                                                  
N   N   7 4 8.0                                                                 
H   H   1 1 8.0                                                                 
C   C   6 4 8.0                                                                 
S   S  16 9 8.0                                                                 
O   O   8 4 8.0                                                                 
%endblock species                                                               
%block species_pot                                                              
N   N_00.recpot                                                                 
H   H_04.recpot                                                                 
C   C_01.recpot                                                                 
S   S_00.recpot                                                                 
O   O_02.recpot                                                                 
%endblock species_pot                                                           
%block lattice_cart                                                             
137.614   0.000   0.000                                                         
0.000 142.646   0.000                                                           
0.000   0.000   160.855                                                         
%endblock lattice_cart                                                          
%block positions_abs                                                            
     Hash =   000006814861623831343220
%endblock positions_abs                                                         

--------------------------------------------------------------------------------
-------------------------------- END INPUT FILE --------------------------------
--------------------------------------------------------------------------------


 
 ESDF WARNING(1): "kernelcutoff" (esdf_physical) has no units. Assume "bohr".
 ESDF WARNING(2): "kzero" (esdf_physical) has no units. Assume "1/bohr".
 ESDF WARNING(3
 ): "issmearedionwidth" (esdf_physical) has no units. Assume "bohr".
<<<<<<<<<<<<<<<<<<<<<<<<<<<<<<<<< Full system >>>>>>>>>>>>>>>>>>>>>>>>>>>>>>>>>>
<<<<<<<<<<<<<<<<<<<<<<<<< Pseudopotential information >>>>>>>>>>>>>>>>>>>>>>>>>>
File: N_00.recpot [ 2001 points up to Gmax=  52.9 (1/bohr)]
  Atomic number:  7;  ionic charge:  5.000000
    Shell 1: l = 0; rc = 1.48 bohr
File: H_04.recpot [ 2001 points up to Gmax=  52.9 (1/bohr)]
  Atomic number:  1;  ionic charge:  1.000000
    Local potential
File: C_01.recpot [ 2001 points up to Gmax=  52.9 (1/bohr)]
  Atomic number:  6;  ionic charge:  4.000000
    Shell 1: l = 0; rc = 1.48 bohr
File: S_00.recpot [ 2001 points up to Gmax=  52.9 (1/bohr)]
  Atomic number: 16;  ionic charge:  6.000000
    Shell 1: l = 0; rc = 1.90 bohr
    Shell 2: l = 2; rc = 1.84 bohr
File: O_02.recpot [ 2001 points up to Gmax=  52.9 (1/bohr)]
  Atomic number:  8;  ionic charge:  6.000000
    Shell 1: l = 0; rc = 1.31 bohr
<<<<<<<<<<<<<<<<<<<<<<<<<<<<<<<<<<<<<<<<>>>>>>>>>>>>>>>>>>>>>>>>>>>>>>>>>>>>>>>>

-------------------------- Atom counting information ---------------------------
Symbol    Natoms    Nngwfs    Nprojs
  N        236       944       236
  H       1319      1319         0
  C        817      3268       817
  S          6        54        36
  O        240       960       240
.......   ......    ......    ......
Totals:   2618      6545      1329
--------------------------------------------------------------------------------

=============================== PSINC grid sizes ===============================
                      Simulation cell:  273 x 286 x 320
                              FFT-box:   99 x 105 x  99
                                  PPD:    7 x  11 x   1
Grid space d1=  0.504080586081a0 (KE cutoff=  29.89538Eh = 813.49465eV)
Grid space d2=  0.498762237762a0 (KE cutoff=  30.53633Eh = 830.93588eV)
Grid space d3=  0.502671875000a0 (KE cutoff=  30.06317Eh = 818.06059eV)
================================================================================

********************* Fourier parallelisation information **********************
       Coarse grid (whole simulation cell) dimensions:    273   286   320
          Real-space ('12') slabs/node (min max mean):      5     6     5
         Recip-space ('23') slabs/node (min max mean):      2     3     2
********************************************************************************

********************* Fourier parallelisation information **********************
       Double grid (whole simulation cell) dimensions:    546   572   640
          Real-space ('12') slabs/node (min max mean):     10    11    10
         Recip-space ('23') slabs/node (min max mean):      4     5     4
********************************************************************************
ONETEP fine grid is 546 x 572 x 640 gridpoints, 137.6140 x 142.6460 x 160.8550 bohr.
FD multigrid is     545 x 569 x 633 gridpoints, 137.3620 x 141.8979 x 159.0956 bohr.


Calculating local pseudopotential in open BC on a radial grid ...
Discrepancy between calculated realspace psloc and -Z/x on [5a0,255.264a0]:
max |rel. diff| # avg |rel. diff| #  avg rel. diff #  f # pseudopotential file
 0.000296759711    0.000009439468   0.000000085927   54  'N_00.recpot'
 0.000490027943    0.000021572324  -0.000000031900   54  'H_04.recpot'
 0.000320795249    0.000014598087   0.000000111901   54  'C_01.recpot'
 0.000388730920    0.000016096375   0.000000514750   54  'S_00.recpot'
 0.000828383344    0.000035421288   0.000000087443   54  'O_02.recpot'
... done

Atom SCF Calculation for N  : Z (AE atom) =   7 : Z (PS atom) =   5
Config String:
Orbitals (num,occ):  2     2.00 3.00
Orbitals   (num,l):  2        0    1
Real-space Grid (nr,dr,rmax): 1203    0.0066555740    8.0000000000
Spherical Bessel Basis (nsws,lmax,cutoff):   47    1  176.3951722778
Confining potential (l,width,scale):  0    3.0000000000  100.0000000000
Confining potential (l,width,scale):  1    3.0000000000  100.0000000000
  1         -4.7312375307   -3.4155304497    7.0523828109   -1.9351020946
  2         -9.7309464766   -2.0532547791    8.2966052865   -2.2494486027
  3         -9.6627394379   -2.1124926340    8.2327997121   -2.2369778124
  4         -9.6814993499   -2.1215521045    8.2229805960   -2.2365178421
  5         -9.6843326483   -2.1250939529    8.2191374534   -2.2362718126
  6         -9.6859628709   -2.1267894855    8.2172963573   -2.2362066344
  7         -9.6867347035   -2.1276425665    8.2163697352   -2.2361903369
  8         -9.6870802100   -2.1280764625    8.2158983890   -2.2361891460
  9         -9.6872290423   -2.1282977424    8.2156580222   -2.2361920435
 10         -9.6872901988   -2.1284107021    8.2155353368   -2.2361953393
 11         -9.6873135296   -2.1284684031    8.2154726809   -2.2361979819
 12         -9.6873212476   -2.1284978948    8.2154406648   -2.2361998431
 13         -9.6873229586   -2.1285129774    8.2154242957   -2.2362010676
 14         -9.6873226456   -2.1285206957    8.2154159216   -2.2362018403
 15         -9.6873218534   -2.1285246479    8.2154116349   -2.2362023142
 16         -9.6873212599   -2.1285262679    8.2154098784   -2.2362025420
 17         -9.6873207834   -2.1285272564    8.2154088068   -2.2362026955
 18         -9.6873204210   -2.1285278596    8.2154081529   -2.2362027982
 19         -9.6873201550   -2.1285282280    8.2154077538   -2.2362028667
 20         -9.6873199645   -2.1285284529    8.2154075102   -2.2362029121
 21         -9.6873198305   -2.1285285903    8.2154073614   -2.2362029421
 22         -9.6873197377   -2.1285286742    8.2154072705   -2.2362029618
Atom SCF converged after  22 iterations to a total energy of     -9.68731974

Atom SCF Calculation for H  : Z (AE atom) =   1 : Z (PS atom) =   1
Config String:
Orbitals (num,occ):  1     1.00
Orbitals   (num,l):  1        0
Real-space Grid (nr,dr,rmax): 1203    0.0066555740    8.0000000000
Spherical Bessel Basis (nsws,lmax,cutoff):   47    0  176.3951722778
Confining potential (l,width,scale):  0    3.0000000000  100.0000000000
  1         -0.3194257691   -0.2393854593    0.2820953124   -0.2424203209
  2         -0.3951823392   -0.2377116493    0.2886404059   -0.2475147891
  3         -0.4317044583   -0.2352244387    0.2921333887   -0.2514046172
  4         -0.4470703708   -0.2341892222    0.2934391879   -0.2531009782
  5         -0.4532132900   -0.2338556667    0.2938388426   -0.2537313520
  6         -0.4556579251   -0.2337612552    0.2939448584   -0.2539550462
  7         -0.4566418315   -0.2337377355    0.2939680120   -0.2540342273
  8         -0.4570437922   -0.2337331116    0.2939708287   -0.2540627372
  9         -0.4572102946   -0.2337328328    0.2939698291   -0.2540732650
 10         -0.4572800424   -0.2337332404    0.2939687193   -0.2540772588
 11         -0.4573095100   -0.2337335791    0.2939680317   -0.2540788122
 12         -0.4573220379   -0.2337337762    0.2939676699   -0.2540794294
 13         -0.4573273880   -0.2337338775    0.2939674931   -0.2540796787
 14         -0.4573296803   -0.2337339266    0.2939674099   -0.2540797808
 15         -0.4573306647   -0.2337339495    0.2939673718   -0.2540798230
 16         -0.4573310882   -0.2337339601    0.2939673545   -0.2540798406
 17         -0.4573312706   -0.2337339649    0.2939673467   -0.2540798479
 18         -0.4573313493   -0.2337339670    0.2939673433   -0.2540798510
Atom SCF converged after  18 iterations to a total energy of     -0.45733135

Atom SCF Calculation for C  : Z (AE atom) =   6 : Z (PS atom) =   4
Config String:
Orbitals (num,occ):  2     2.00 2.00
Orbitals   (num,l):  2        0    1
Real-space Grid (nr,dr,rmax): 1203    0.0066555740    8.0000000000
Spherical Bessel Basis (nsws,lmax,cutoff):   47    1  176.3951722778
Confining potential (l,width,scale):  0    3.0000000000  100.0000000000
Confining potential (l,width,scale):  1    3.0000000000  100.0000000000
  1         -5.2976922011   -1.3069684169    4.5135249990   -1.4493313817
  2         -5.3721716256   -1.3429755895    4.4750154450   -1.4361613026
  3         -5.3809959565   -1.3617365618    4.4541655428   -1.4305930207
  4         -5.3918938866   -1.3667928461    4.4484735100   -1.4294652294
  5         -5.3956096428   -1.3688539142    4.4461376126   -1.4290734646
  6         -5.3968271862   -1.3696852393    4.4451910874   -1.4289366866
  7         -5.3972028401   -1.3700178062    4.4448112275   -1.4288900460
  8         -5.3973067903   -1.3701500158    4.4446598370   -1.4288749220
  9         -5.3973286940   -1.3702023868    4.4445997329   -1.4288704293
 10         -5.3973289850   -1.3702230869    4.4445759233   -1.4288693188
 11         -5.3973254264   -1.3702312560    4.4445665049   -1.4288691775
 12         -5.3973224003   -1.3702344755    4.4445627836   -1.4288692549
 13         -5.3973208708   -1.3702354890    4.4445616088   -1.4288693270
 14         -5.3973198783   -1.3702360102    4.4445610034   -1.4288693814
 15         -5.3973192535   -1.3702362780    4.4445606917   -1.4288694190
 16         -5.3973188684   -1.3702364155    4.4445605313   -1.4288694437
 17         -5.3973186349   -1.3702364860    4.4445604489   -1.4288694595
 18         -5.3973184951   -1.3702365221    4.4445604065   -1.4288694693
 19         -5.3973184122   -1.3702365405    4.4445603848   -1.4288694753
Atom SCF converged after  19 iterations to a total energy of     -5.39731841

Atom SCF Calculation for S  : Z (AE atom) =  16 : Z (PS atom) =   6
Config String:
Orbitals (num,occ):  3     2.00 4.00 0.00
Orbitals   (num,l):  3        0    1    2
Real-space Grid (nr,dr,rmax): 1203    0.0066555740    8.0000000000
Spherical Bessel Basis (nsws,lmax,cutoff):   47    2  176.3951722778
Confining potential (l,width,scale):  0    3.0000000000  100.0000000000
Confining potential (l,width,scale):  1    3.0000000000  100.0000000000
Confining potential (l,width,scale):  2    3.0000000000  100.0000000000
  1        -12.4735062396   -1.0328741412   10.1554312477   -2.4512393157
  2         -9.9458301913   -2.4607392455    8.3041325857   -2.0306994528
  3        -10.1450417646   -2.2931184565    8.4831893826   -2.0812538287
  4        -10.1528335592   -2.2733105793    8.5050388867   -2.0896035179
  5        -10.1571940363   -2.2633716629    8.5160794258   -2.0939370707
  6        -10.1594380571   -2.2584938667    8.5215163935   -2.0961289008
  7        -10.1605856507   -2.2561081821    8.5241804044   -2.0972291378
  8        -10.1611799191   -2.2549395235    8.5254868240   -2.0977806248
  9        -10.1614918752   -2.2543658586    8.5261285885   -2.0980571586
 10        -10.1616572884   -2.2540839121    8.5264441898   -2.0981959233
 11        -10.1617455602   -2.2539453058    8.5265994231   -2.0982656006
 12        -10.1617928447   -2.2538772062    8.5266757320   -2.0983006047
 13        -10.1618182292   -2.2538437891    8.5267131983   -2.0983181961
 14        -10.1618318741   -2.2538274201    8.5267315620   -2.0983270391
 15        -10.1618392144   -2.2538194197    8.5267405433   -2.0983314852
 16        -10.1618431651   -2.2538155200    8.5267449245   -2.0983337210
 17        -10.1618452923   -2.2538136252    8.5267470551   -2.0983348455
 18        -10.1618464380   -2.2538127080    8.5267480875   -2.0983354110
 19        -10.1618470552   -2.2538122659    8.5267485856   -2.0983356955
 20        -10.1618473878   -2.2538120540    8.5267488248   -2.0983358386
 21        -10.1618475670   -2.2538119530    8.5267489389   -2.0983359106
 22        -10.1618476637   -2.2538119053    8.5267489929   -2.0983359468
Atom SCF converged after  22 iterations to a total energy of    -10.16184766

Atom SCF Calculation for O  : Z (AE atom) =   8 : Z (PS atom) =   6
Config String:
Orbitals (num,occ):  2     2.00 4.00
Orbitals   (num,l):  2        0    1
Real-space Grid (nr,dr,rmax): 1203    0.0066555740    8.0000000000
Spherical Bessel Basis (nsws,lmax,cutoff):   47    1  176.3951722778
Confining potential (l,width,scale):  0    3.0000000000  100.0000000000
Confining potential (l,width,scale):  1    3.0000000000  100.0000000000
  1         -1.8735052164   -7.5539365035   10.1554312477   -2.4512393157
  2        -16.0318313751   -3.1285771268   13.6395848164   -3.2358799643
  3        -15.9524020423   -3.0762819706   13.6967272503   -3.2536856837
  4        -15.8521515939   -3.0781493909   13.6951909330   -3.2561700440
  5        -15.8357139793   -3.0748501933   13.6988803334   -3.2580493133
  6        -15.8246052853   -3.0740779781   13.6997881576   -3.2588327446
  7        -15.8189019501   -3.0737449687   13.7001869911   -3.2592378801
  8        -15.8159785510   -3.0736026016   13.7003615168   -3.2594475790
  9        -15.8144776168   -3.0735437994   13.7004360379   -3.2595560735
 10        -15.8137058024   -3.0735207882   13.7004667348   -3.2596122456
 11        -15.8133083127   -3.0735125946   13.7004786868   -3.2596413656
 12        -15.8131032938   -3.0735102195   13.7004828997   -3.2596564858
 13        -15.8129973902   -3.0735099286   13.7004840891   -3.2596643505
 14        -15.8129426040   -3.0735102506   13.7004842061   -3.2596684489
 15        -15.8129142203   -3.0735106556   13.7004840157   -3.2596705887
 16        -15.8128994940   -3.0735109855   13.7004837906   -3.2596717080
 17        -15.8128918425   -3.0735112169   13.7004836103   -3.2596722946
 18        -15.8128878614   -3.0735113674   13.7004834848   -3.2596726026
 19        -15.8128857871   -3.0735114608   13.7004834035   -3.2596727646
 20        -15.8128847048   -3.0735115170   13.7004833533   -3.2596728500
 21        -15.8128841394   -3.0735115501   13.7004833231   -3.2596728951
 22        -15.8128838436   -3.0735115693   13.7004833054   -3.2596729190
 23        -15.8128836887   -3.0735115802   13.7004832951   -3.2596729316
 24        -15.8128836074   -3.0735115864   13.7004832893   -3.2596729383
Atom SCF converged after  24 iterations to a total energy of    -15.81288361

========================== Calculation in vacuum ==============================
= Adjusting the following parameters: 
= is_implicit_solvent: F
= is_include_apolar: F
= write_denskern: T
= write_tightbox_ngwfs: T
= restart read filename prefix: ""
= restart write filename prefix: "vacuum_"
===============================================================================

Determining parallel strategy ...
... using space-filling curve
... NGWF load balancing: max    110;  min    109;  average    109
... Projector load balancing: max     26;  min     21;  average     22
... done
Calculating direct Ion-Ion energy ...
Ion-Ion Energy        :    838014.84008955047466
======================= Empirical dispersion information =======================
Model : Elstner
Dispersion Correction Energy: -0.33139091E+01 Hartree
================================================================================
Basis initialisation ...... NGWF spheres initialised
... Projector spheres initialised
... NGWF tight boxes initialised
... Tight-boxes gathered
... NGWF basis size (local,global):     939527  56396419
... Nonlocal pseudopotential projector initialisation
... done

========================== Sparse matrix information ===========================
                        Overlap matrix filling:   6.80%
                        Density kernel filling: 100.00%
              NGWF-Proj overlap matrix filling:   1.78%
                    Hamiltonian matrix filling:   7.67%
                  NGWF diagonal matrix filling:   0.05%
                             KS matrix filling: 100.00% 
                           KSKS matrix filling: 100.00% 
================================================================================

Sparse matrix initialisation ... done

Generating smeared ion density ... done
Smeared ion self correction:     -14534.963309
Smeared ion non-self correction: -837966.511020
NGWF initialisation ...... done
============ Calculation of NGWF S^-1 using Hotelling algorithm ================ 
         Iteration  |  Frobenius norm and Maximum abs value    (of I-S*S_n^-1)   
               1       0.78761335E+02     0.98275909E+00
               2       0.76933469E+02     0.96595450E+00
               3       0.73963657E+02     0.93359715E+00
               4       0.69725189E+02     0.87390208E+00
               5       0.64428841E+02     0.77208355E+00
               6       0.58461941E+02     0.70823065E+00
               7       0.52440773E+02     0.67221118E+00
               8       0.46874176E+02     0.64482659E+00
               9       0.40840831E+02     0.60432463E+00
              10       0.32641180E+02     0.53287507E+00
              11       0.22090543E+02     0.41707690E+00
              12       0.11400138E+02     0.27643842E+00
              13       0.38125080E+01     0.13174091E+00
              14       0.61766546E+00     0.35203887E-01
              15       0.30809742E-01     0.29090021E-02
              16       0.19396077E-03     0.27233057E-04
              17       0.15841706E-07     0.24665225E-08
              18       0.98858307E-13     0.59952043E-14
================================================================================
Calculating local pseudopotential in open BC on the fine real space grid ...
... done

MG BCs: +ve charge blocks (gridpoints):     20646 (   16255532).
MG BCs: -ve charge blocks (gridpoints):      8124 (    1101713).
MG BCs:     Elided blocks (gridpoints):    179994 (  178939220).
MG BCs: Computational effort saved:  99.9853%.
MG BCs: Charge after coarse-graining:           -9.0002286.
MG DL_MG: Calling solver with defect correction order = 8
MG DL_MG: Solver finished
MG Hartree energy from (\int phi*rho dr):              1471.802383
MG Hartree energy from (\int eps (grad phi)^2 dr):     1471.190392
MG Discrepancy due to finite box and discretization:     -0.611991 (  -0.04158%)
MG Correction to account for finite box:                  0.464525
MG Remaining discrepancy, due to discretization:         -0.147466 (  -0.01002%)
Up spin density kernel initialisation ... 
======= Optimisation of K by Palser-Manolopoulos canonical purification ======== 
         Iteration  |  Band structure energy |    c_n   
               1       -2593.09626351820998    0.5274412
               2       -2769.95827225449466    0.5174372
               3       -2952.05904577338060    0.5154896
               4       -3104.99600628670214    0.5288435
               5       -3199.73327391507974    0.5646881
               6       -3239.67128963609048    0.6096592
               7       -3253.29745946536832    0.6213493
               8       -3259.23199834266416    0.6210045
               9       -3262.10119421493710    0.6391670
              10       -3263.27147456974762    0.6675865
              11       -3263.72702070878677    0.6872972
              12       -3263.92997293215149    0.6983193
              13       -3264.03110273236734    0.6909940
              14       -3264.08862650264018    0.6676959
              15       -3264.12363217343091    0.6374741
              16       -3264.14363866535678    0.5843221
              17       -3264.15475143320373    0.5241650
              18       -3264.15952935808082    0.4936392
              19       -3264.16065377216455    0.4940706
              20       -3264.16105098438584    0.4994336
              21       -3264.16123934695042    0.4999976
              22       -3264.16127573005588    0.5000000
              23       -3264.16127680843738    0.5000089
              24       -3264.16127680933869    0.5000089
Termination criterion satisfied: band energy change below threshold.
Final occupancy bounds: [    0.00000000000000:    1.00000000000000]
Closest occupancy to 0.5:     1.00000000000000
================================================================================
... done

Writing density kernel to file "complex_30121.vacuum_dkn" ... done

>>> Optimising kernel for current NGWFs:
   Initial electron number for spin 1:    7234.00000000
     Final electron number for spin 1:    7234.00000000

=================== Penalty functional idempotency correction ==================
 RMS occupancy error at iteration   1:  0.000000 (step -0.5000 Ne1=   7234.0000)
            Final RMS occupancy error   :  0.000000 (Ne1=   7234.0000)
               Final occupancy bounds   : [  0.0000,  1.0000]
================================================================================

................................................................................
<<<<<<<<<<<<<< LNV (Original version) density kernel optimisation >>>>>>>>>>>>>>
~~~~~~~~~~~~~~~~~~~~~~~~~~~~~~~~~~~~~~~~~~~~~~~~~~~~~~~~~~~~~~~~~~~~~~~~~~~~~~~~
   iter  |      energy (Eh)       | rms gradient |  commutator  |   dE (Eh)
MG BCs: +ve charge blocks (gridpoints):     30947 (   17358750).
MG BCs: -ve charge blocks (gridpoints):      8444 (    1135553).
MG BCs:     Elided blocks (gridpoints):    169691 (  177802162).
MG BCs: Computational effort saved:  99.9799%.
MG BCs: Charge after coarse-graining:           -9.0009788.
MG DL_MG: Calling solver with defect correction order = 8
MG DL_MG: Solver finished
MG Hartree energy from (\int phi*rho dr):              1424.549242
MG Hartree energy from (\int eps (grad phi)^2 dr):     1423.890221
MG Discrepancy due to finite box and discretization:     -0.659022 (  -0.04626%)
MG Correction to account for finite box:                  0.469963
MG Remaining discrepancy, due to discretization:         -0.189059 (  -0.01327%)
      ideal mu1:      -0.720831859447
             Q0:  -11569.992527826689
             G0:    -143.114976276657
   RMS gradient:       0.001827817750
MG BCs: +ve charge blocks (gridpoints):     30920 (   17441276).
MG BCs: -ve charge blocks (gridpoints):      8341 (    1114349).
MG BCs:     Elided blocks (gridpoints):    169719 (  177740840).
MG BCs: Computational effort saved:  99.9800%.
MG BCs: Charge after coarse-graining:           -9.0009988.
MG DL_MG: Calling solver with defect correction order = 8
MG DL_MG: Solver finished
MG Hartree energy from (\int phi*rho dr):              1450.928402
MG Hartree energy from (\int eps (grad phi)^2 dr):     1450.285427
MG Discrepancy due to finite box and discretization:     -0.642975 (  -0.04431%)
MG Correction to account for finite box:                  0.469374
MG Remaining discrepancy, due to discretization:         -0.173601 (  -0.01196%)
     Trial step:       0.500000000000
             Q1:  -11580.930073361495
 Quadratic coef:      60.619942603524
 Linear coef   :     -71.557488138328
           Qmin:  -11591.109646586421
Quadratic minimum step length (  0.295107043429) accepted
    Initial Ne1:    7234.00000000
      Final Ne1:    7234.00000000

=================== Penalty functional idempotency correction ==================
 RMS occupancy error at iteration   1:  0.003312 (step -0.4888 Ne1=   7234.0000)
 RMS occupancy error at iteration   2:  0.000024 (step -0.5000 Ne1=   7234.0000)
            Final RMS occupancy error   :  0.000000 (Ne1=   7234.0000)
               Final occupancy bounds   : [  0.0000,  1.0000]
================================================================================

    1        -1.156999252783E+04     1.8278E-03     1.6537E-03
MG BCs: +ve charge blocks (gridpoints):     30921 (   17409320).
MG BCs: -ve charge blocks (gridpoints):      8375 (    1123213).
MG BCs:     Elided blocks (gridpoints):    169717 (  177763932).
MG BCs: Computational effort saved:  99.9800%.
MG BCs: Charge after coarse-graining:           -9.0009904.
MG DL_MG: Calling solver with defect correction order = 8
MG DL_MG: Solver finished
MG Hartree energy from (\int phi*rho dr):              1432.181705
MG Hartree energy from (\int eps (grad phi)^2 dr):     1431.533074
MG Discrepancy due to finite box and discretization:     -0.648631 (  -0.04529%)
MG Correction to account for finite box:                  0.469509
MG Remaining discrepancy, due to discretization:         -0.179122 (  -0.01251%)
      ideal mu1:      -0.760776159136
             Q0:  -11591.500029268325
             G0:     -11.556530897430
   RMS gradient:       0.000515965769
MG BCs: +ve charge blocks (gridpoints):     30923 (   17426089).
MG BCs: -ve charge blocks (gridpoints):      8355 (    1117959).
MG BCs:     Elided blocks (gridpoints):    169715 (  177752417).
MG BCs: Computational effort saved:  99.9800%.
MG BCs: Charge after coarse-graining:           -9.0009939.
MG DL_MG: Calling solver with defect correction order = 8
MG DL_MG: Solver finished
MG Hartree energy from (\int phi*rho dr):              1437.844552
MG Hartree energy from (\int eps (grad phi)^2 dr):     1437.199532
MG Discrepancy due to finite box and discretization:     -0.645020 (  -0.04486%)
MG Correction to account for finite box:                  0.469024
MG Remaining discrepancy, due to discretization:         -0.175996 (  -0.01224%)
     Trial step:       0.384126960411
             Q1:  -11594.210013509030
 Quadratic coef:       1.729190845823
 Linear coef   :      -4.439175086527
           Qmin:  -11594.349089494448
Quadratic minimum step length (  0.493064960655) accepted
    Initial Ne1:    7233.99992682
      Final Ne1:    7234.00000000

=================== Penalty functional idempotency correction ==================
 RMS occupancy error at iteration   1:  0.001717 (step -0.4936 Ne1=   7234.0000)
 RMS occupancy error at iteration   2:  0.000009 (step -0.5000 Ne1=   7234.0000)
            Final RMS occupancy error   :  0.000000 (Ne1=   7234.0000)
               Final occupancy bounds   : [  0.0000,  1.0000]
================================================================================

    2        -1.159150002927E+04     5.1597E-04     4.6682E-04    -2.1508E+01
MG BCs: +ve charge blocks (gridpoints):     30917 (   17430929).
MG BCs: -ve charge blocks (gridpoints):      8345 (    1116391).
MG BCs:     Elided blocks (gridpoints):    169721 (  177749145).
MG BCs: Computational effort saved:  99.9800%.
MG BCs: Charge after coarse-graining:           -9.0009949.
MG DL_MG: Calling solver with defect correction order = 8
MG DL_MG: Solver finished
MG Hartree energy from (\int phi*rho dr):              1439.490771
MG Hartree energy from (\int eps (grad phi)^2 dr):     1438.846702
MG Discrepancy due to finite box and discretization:     -0.644069 (  -0.04474%)
MG Correction to account for finite box:                  0.468899
MG Remaining discrepancy, due to discretization:         -0.175171 (  -0.01217%)
      ideal mu1:      -0.782248612090
             Q0:  -11594.382512660115
             G0:      -1.808047603259
   RMS gradient:       0.000204232119
MG BCs: +ve charge blocks (gridpoints):     30920 (   17429784).
MG BCs: -ve charge blocks (gridpoints):      8352 (    1117362).
MG BCs:     Elided blocks (gridpoints):    169718 (  177749319).
MG BCs: Computational effort saved:  99.9800%.
MG BCs: Charge after coarse-graining:           -9.0009948.
MG DL_MG: Calling solver with defect correction order = 8
MG DL_MG: Solver finished
MG Hartree energy from (\int phi*rho dr):              1437.308569
MG Hartree energy from (\int eps (grad phi)^2 dr):     1436.664861
MG Discrepancy due to finite box and discretization:     -0.643708 (  -0.04479%)
MG Correction to account for finite box:                  0.468732
MG Remaining discrepancy, due to discretization:         -0.174975 (  -0.01217%)
     Trial step:       0.435200579758
             Q1:  -11594.837349310401
 Quadratic coef:       0.332026714883
 Linear coef   :      -0.786863365168
           Qmin:  -11594.848705535334
Quadratic minimum step length (  0.515686505575) accepted
    Initial Ne1:    7233.99997194
      Final Ne1:    7234.00000000

=================== Penalty functional idempotency correction ==================
 RMS occupancy error at iteration   1:  0.000569 (step -0.4977 Ne1=   7234.0000)
 RMS occupancy error at iteration   2:  0.000001 (step -0.5000 Ne1=   7234.0000)
            Final RMS occupancy error   :  0.000000 (Ne1=   7234.0000)
               Final occupancy bounds   : [  0.0000,  1.0000]
================================================================================

    3        -1.159438251266E+04     2.0423E-04     1.8478E-04    -2.8825E+00
MG BCs: +ve charge blocks (gridpoints):     30922 (   17429678).
MG BCs: -ve charge blocks (gridpoints):      8353 (    1117514).
MG BCs:     Elided blocks (gridpoints):    169716 (  177749273).
MG BCs: Computational effort saved:  99.9800%.
MG BCs: Charge after coarse-graining:           -9.0009947.
MG DL_MG: Calling solver with defect correction order = 8
MG DL_MG: Solver finished
MG Hartree energy from (\int phi*rho dr):              1436.913103
MG Hartree energy from (\int eps (grad phi)^2 dr):     1436.269454
MG Discrepancy due to finite box and discretization:     -0.643649 (  -0.04479%)
MG Correction to account for finite box:                  0.468702
MG Remaining discrepancy, due to discretization:         -0.174947 (  -0.01218%)
      ideal mu1:      -0.782777089708
             Q0:  -11594.852798416512
             G0:      -0.419149785047
   RMS gradient:       0.000098441296
MG BCs: +ve charge blocks (gridpoints):     30922 (   17430502).
MG BCs: -ve charge blocks (gridpoints):      8352 (    1117263).
MG BCs:     Elided blocks (gridpoints):    169716 (  177748700).
MG BCs: Computational effort saved:  99.9800%.
MG BCs: Charge after coarse-graining:           -9.0009949.
MG DL_MG: Calling solver with defect correction order = 8
MG DL_MG: Solver finished
MG Hartree energy from (\int phi*rho dr):              1438.110196
MG Hartree energy from (\int eps (grad phi)^2 dr):     1437.466533
MG Discrepancy due to finite box and discretization:     -0.643662 (  -0.04476%)
MG Correction to account for finite box:                  0.468615
MG Remaining discrepancy, due to discretization:         -0.175048 (  -0.01217%)
     Trial step:       0.473737338828
             Q1:  -11594.948887282633
 Quadratic coef:       0.102478037617
 Linear coef   :      -0.198566903739
           Qmin:  -11594.948986868636
Quadratic minimum step length (  0.458969349646) accepted
    Initial Ne1:    7233.99999409
      Final Ne1:    7234.00000000

=================== Penalty functional idempotency correction ==================
 RMS occupancy error at iteration   1:  0.000181 (step -0.4992 Ne1=   7234.0000)
            Final RMS occupancy error   :  0.000000 (Ne1=   7234.0000)
               Final occupancy bounds   : [ -0.0000,  1.0000]
================================================================================

    4        -1.159485279842E+04     9.8441E-05     8.9065E-05    -4.7029E-01
MG BCs: +ve charge blocks (gridpoints):     30922 (   17430481).
MG BCs: -ve charge blocks (gridpoints):      8352 (    1117263).
MG BCs:     Elided blocks (gridpoints):    169716 (  177748721).
MG BCs: Computational effort saved:  99.9800%.
MG BCs: Charge after coarse-graining:           -9.0009949.
MG DL_MG: Calling solver with defect correction order = 8
MG DL_MG: Solver finished
MG Hartree energy from (\int phi*rho dr):              1438.072867
MG Hartree energy from (\int eps (grad phi)^2 dr):     1437.429205
MG Discrepancy due to finite box and discretization:     -0.643662 (  -0.04476%)
MG Correction to account for finite box:                  0.468617
MG Remaining discrepancy, due to discretization:         -0.175044 (  -0.01217%)
      ideal mu1:      -0.783163489611
             Q0:  -11594.949383995379
             G0:      -0.102708736936
   RMS gradient:       0.000048869056
MG BCs: +ve charge blocks (gridpoints):     30920 (   17430708).
MG BCs: -ve charge blocks (gridpoints):      8351 (    1117134).
MG BCs:     Elided blocks (gridpoints):    169718 (  177748623).
MG BCs: Computational effort saved:  99.9800%.
MG BCs: Charge after coarse-graining:           -9.0009948.
MG DL_MG: Calling solver with defect correction order = 8
MG DL_MG: Solver finished
MG Hartree energy from (\int phi*rho dr):              1438.441061
MG Hartree energy from (\int eps (grad phi)^2 dr):     1437.797269
MG Discrepancy due to finite box and discretization:     -0.643791 (  -0.04476%)
MG Correction to account for finite box:                  0.468614
MG Remaining discrepancy, due to discretization:         -0.175177 (  -0.01218%)
     Trial step:       0.466294883421
             Q1:  -11594.974484795821
 Quadratic coef:       0.022791758074
 Linear coef   :      -0.047892558516
           Qmin:  -11594.974543278329
Quadratic minimum step length (  0.489915146460) accepted
    Initial Ne1:    7234.00155352
      Final Ne1:    7234.00000000

=================== Penalty functional idempotency correction ==================
 RMS occupancy error at iteration   1:  0.000064 (step -0.4997 Ne1=   7234.0000)
            Final RMS occupancy error   :  0.000000 (Ne1=   7234.0000)
               Final occupancy bounds   : [ -0.0000,  1.0000]
================================================================================

    5        -1.159494938400E+04     4.8869E-05     4.4215E-05    -9.6586E-02
MG BCs: +ve charge blocks (gridpoints):     30920 (   17430733).
MG BCs: -ve charge blocks (gridpoints):      8350 (    1117134).
MG BCs:     Elided blocks (gridpoints):    169718 (  177748598).
MG BCs: Computational effort saved:  99.9800%.
MG BCs: Charge after coarse-graining:           -9.0009947.
MG DL_MG: Calling solver with defect correction order = 8
MG DL_MG: Solver finished
MG Hartree energy from (\int phi*rho dr):              1438.459750
MG Hartree energy from (\int eps (grad phi)^2 dr):     1437.815952
MG Discrepancy due to finite box and discretization:     -0.643798 (  -0.04476%)
MG Correction to account for finite box:                  0.468614
MG Remaining discrepancy, due to discretization:         -0.175184 (  -0.01218%)
      ideal mu1:      -0.783047794773
             Q0:  -11594.974589956342
             G0:      -0.030372184432
   RMS gradient:       0.000026595045
MG BCs: +ve charge blocks (gridpoints):     30922 (   17430306).
MG BCs: -ve charge blocks (gridpoints):      8351 (    1117335).
MG BCs:     Elided blocks (gridpoints):    169716 (  177748824).
MG BCs: Computational effort saved:  99.9800%.
MG BCs: Charge after coarse-graining:           -9.0009947.
MG DL_MG: Calling solver with defect correction order = 8
MG DL_MG: Solver finished
MG Hartree energy from (\int phi*rho dr):              1437.833117
MG Hartree energy from (\int eps (grad phi)^2 dr):     1437.189332
MG Discrepancy due to finite box and discretization:     -0.643785 (  -0.04477%)
MG Correction to account for finite box:                  0.468612
MG Remaining discrepancy, due to discretization:         -0.175173 (  -0.01218%)
     Trial step:       0.477959125977
             Q1:  -11594.984060870484
 Quadratic coef:       0.005045748583
 Linear coef   :      -0.014516662725
           Qmin:  -11594.985031097691
Quadratic minimum step length (  0.687546289112) accepted
    Initial Ne1:    7234.00094235
      Final Ne1:    7234.00000000

=================== Penalty functional idempotency correction ==================
 RMS occupancy error at iteration   1:  0.000037 (step -0.4998 Ne1=   7234.0000)
            Final RMS occupancy error   :  0.000000 (Ne1=   7234.0000)
               Final occupancy bounds   : [ -0.0000,  1.0000]
================================================================================

    6        -1.159497458996E+04     2.6595E-05     2.4062E-05    -2.5206E-02
MG BCs: +ve charge blocks (gridpoints):     30923 (   17430137).
MG BCs: -ve charge blocks (gridpoints):      8351 (    1117445).
MG BCs:     Elided blocks (gridpoints):    169715 (  177748883).
MG BCs: Computational effort saved:  99.9800%.
MG BCs: Charge after coarse-graining:           -9.0009947.
MG DL_MG: Calling solver with defect correction order = 8
MG DL_MG: Solver finished
MG Hartree energy from (\int phi*rho dr):              1437.557726
MG Hartree energy from (\int eps (grad phi)^2 dr):     1436.913947
MG Discrepancy due to finite box and discretization:     -0.643779 (  -0.04478%)
MG Correction to account for finite box:                  0.468610
MG Remaining discrepancy, due to discretization:         -0.175168 (  -0.01219%)
      ideal mu1:      -0.782842891969
             Q0:  -11594.985039765364
             G0:      -0.015294369887
   RMS gradient:       0.000018895402
MG BCs: +ve charge blocks (gridpoints):     30920 (   17430649).
MG BCs: -ve charge blocks (gridpoints):      8352 (    1117135).
MG BCs:     Elided blocks (gridpoints):    169718 (  177748681).
MG BCs: Computational effort saved:  99.9800%.
MG BCs: Charge after coarse-graining:           -9.0009948.
MG DL_MG: Calling solver with defect correction order = 8
MG DL_MG: Solver finished
MG Hartree energy from (\int phi*rho dr):              1438.164822
MG Hartree energy from (\int eps (grad phi)^2 dr):     1437.521071
MG Discrepancy due to finite box and discretization:     -0.643751 (  -0.04476%)
MG Correction to account for finite box:                  0.468600
MG Remaining discrepancy, due to discretization:         -0.175151 (  -0.01218%)
     Trial step:       0.573253018669
             Q1:  -11594.988925658399
 Quadratic coef:       0.004881650671
 Linear coef   :      -0.008767543706
           Qmin:  -11594.988976436985
Quadratic minimum step length (  0.514787029450) accepted
    Initial Ne1:    7234.00013426
      Final Ne1:    7234.00000000

=================== Penalty functional idempotency correction ==================
 RMS occupancy error at iteration   1:  0.000002 (step -0.5000 Ne1=   7234.0000)
            Final RMS occupancy error   :  0.000000 (Ne1=   7234.0000)
               Final occupancy bounds   : [  0.0000,  1.0000]
================================================================================

    7        -1.159498503977E+04     1.8895E-05     1.7096E-05    -1.0450E-02
MG BCs: +ve charge blocks (gridpoints):     30920 (   17430619).
MG BCs: -ve charge blocks (gridpoints):      8351 (    1117146).
MG BCs:     Elided blocks (gridpoints):    169718 (  177748700).
MG BCs: Computational effort saved:  99.9800%.
MG BCs: Charge after coarse-graining:           -9.0009948.
MG DL_MG: Calling solver with defect correction order = 8
MG DL_MG: Solver finished
MG Hartree energy from (\int phi*rho dr):              1438.102814
MG Hartree energy from (\int eps (grad phi)^2 dr):     1437.459060
MG Discrepancy due to finite box and discretization:     -0.643754 (  -0.04476%)
MG Correction to account for finite box:                  0.468601
MG Remaining discrepancy, due to discretization:         -0.175153 (  -0.01218%)
      ideal mu1:      -0.783119837329
             Q0:  -11594.988976561930
             G0:      -0.008705757261
   RMS gradient:       0.000014256359
MG BCs: +ve charge blocks (gridpoints):     30922 (   17430657).
MG BCs: -ve charge blocks (gridpoints):      8351 (    1117152).
MG BCs:     Elided blocks (gridpoints):    169716 (  177748656).
MG BCs: Computational effort saved:  99.9800%.
MG BCs: Charge after coarse-graining:           -9.0009948.
MG DL_MG: Calling solver with defect correction order = 8
MG DL_MG: Solver finished
MG Hartree energy from (\int phi*rho dr):              1438.148627
MG Hartree energy from (\int eps (grad phi)^2 dr):     1437.504906
MG Discrepancy due to finite box and discretization:     -0.643721 (  -0.04476%)
MG Correction to account for finite box:                  0.468595
MG Remaining discrepancy, due to discretization:         -0.175126 (  -0.01218%)
     Trial step:       0.543234036676
             Q1:  -11594.992411660496
 Quadratic coef:       0.001294165093
 Linear coef   :      -0.004729263659
           Qmin:  -11594.993297095469
Quadratic minimum step length (  0.992569264193) accepted
    Initial Ne1:    7234.00014645
      Final Ne1:    7234.00000000

=================== Penalty functional idempotency correction ==================
 RMS occupancy error at iteration   1:  0.000020 (step -0.4993 Ne1=   7234.0000)
            Final RMS occupancy error   :  0.000000 (Ne1=   7234.0000)
               Final occupancy bounds   : [ -0.0000,  1.0000]
================================================================================

    8        -1.159498897656E+04     1.4256E-05     1.2899E-05    -3.9368E-03
MG BCs: +ve charge blocks (gridpoints):     30922 (   17430660).
MG BCs: -ve charge blocks (gridpoints):      8351 (    1117162).
MG BCs:     Elided blocks (gridpoints):    169716 (  177748643).
MG BCs: Computational effort saved:  99.9800%.
MG BCs: Charge after coarse-graining:           -9.0009948.
MG DL_MG: Calling solver with defect correction order = 8
MG DL_MG: Solver finished
MG Hartree energy from (\int phi*rho dr):              1438.185288
MG Hartree energy from (\int eps (grad phi)^2 dr):     1437.541595
MG Discrepancy due to finite box and discretization:     -0.643693 (  -0.04476%)
MG Correction to account for finite box:                  0.468590
MG Remaining discrepancy, due to discretization:         -0.175103 (  -0.01218%)
      ideal mu1:      -0.783182369073
             Q0:  -11594.993288915954
             G0:      -0.011437954375
   RMS gradient:       0.000016371864
MG BCs: +ve charge blocks (gridpoints):     30924 (   17430509).
MG BCs: -ve charge blocks (gridpoints):      8351 (    1117312).
MG BCs:     Elided blocks (gridpoints):    169714 (  177748644).
MG BCs: Computational effort saved:  99.9800%.
MG BCs: Charge after coarse-graining:           -9.0009948.
MG DL_MG: Calling solver with defect correction order = 8
MG DL_MG: Solver finished
MG Hartree energy from (\int phi*rho dr):              1437.882252
MG Hartree energy from (\int eps (grad phi)^2 dr):     1437.238603
MG Discrepancy due to finite box and discretization:     -0.643650 (  -0.04476%)
MG Correction to account for finite box:                  0.468586
MG Remaining discrepancy, due to discretization:         -0.175064 (  -0.01218%)
     Trial step:       0.734300625131
             Q1:  -11594.998350081500
 Quadratic coef:       0.003337731501
 Linear coef   :      -0.008398897047
           Qmin:  -11594.998572554825
Quadratic minimum step length (  0.923878291304) accepted
    Initial Ne1:    7234.00037528
      Final Ne1:    7234.00000000

=================== Penalty functional idempotency correction ==================
 RMS occupancy error at iteration   1:  0.000092 (step -0.4965 Ne1=   7234.0000)
 RMS occupancy error at iteration   2:  0.000000 (step -0.5000 Ne1=   7234.0000)
            Final RMS occupancy error   :  0.000000 (Ne1=   7234.0000)
               Final occupancy bounds   : [  0.0000,  1.0000]
================================================================================

    9        -1.159499328892E+04     1.6372E-05     1.4813E-05    -4.3124E-03
MG BCs: +ve charge blocks (gridpoints):     30924 (   17430465).
MG BCs: -ve charge blocks (gridpoints):      8351 (    1117352).
MG BCs:     Elided blocks (gridpoints):    169714 (  177748648).
MG BCs: Computational effort saved:  99.9800%.
MG BCs: Charge after coarse-graining:           -9.0009948.
MG DL_MG: Calling solver with defect correction order = 8
MG DL_MG: Solver finished
MG Hartree energy from (\int phi*rho dr):              1437.802461
MG Hartree energy from (\int eps (grad phi)^2 dr):     1437.158823
MG Discrepancy due to finite box and discretization:     -0.643638 (  -0.04477%)
MG Correction to account for finite box:                  0.468584
MG Remaining discrepancy, due to discretization:         -0.175054 (  -0.01218%)
      ideal mu1:      -0.782815032216
   10        -1.159499855142E+04     1.6776E-05     1.5178E-05    -5.2625E-03
Finished density kernel iterations (  10)

Writing density kernel to file "complex_30121.vacuum_dkn" ... done


>>> Density kernel optimised for the current NGWF basis:
     ~~~~~~~~~~~~~~~~~~~~~~~~~~~~~~~~~~~~~~~~~~~~~~~~~~~~~~~~~~~
     Total energy                =  -1.15949985514230E+04  Eh
     Estimated bandgap           =  -2.5257E-01  Eh
     RMS occupancy error         =   1.0223E-11
     [H,K] commutator            =   1.5178E-05
     Occupancy bounds            = [  0.000:  1.000]
     ~~~~~~~~~~~~~~~~~~~~~~~~~~~~~~~~~~~~~~~~~~~~~~~~~~~~~~~~~~~




################################################################################
########################### NGWF CG iteration  001 #############################
################################################################################
****** Reciprocal space K.E. preconditioning with k_zero =  3.5000 a0^-1 *******

>>> Checking for convergence of NGWFs:   NOT CONVERGED
  ========================================================================
         NGWF RMS gradient =  1.5623E-03 >  2.0000E-06  | above tolerance
  ========================================================================

>>> Improving NGWFs using line search:
============ Calculation of NGWF S^-1 using Hotelling algorithm ================ 
         Iteration  |  Frobenius norm and Maximum abs value    (of I-S*S_n^-1)   
               1       0.19216021E+00     0.49225684E-02
               2       0.85254659E-03     0.35522487E-04
               3       0.28696902E-07     0.18491106E-08
               4       0.12958045E-12     0.55511151E-14
================================================================================
MG BCs: +ve charge blocks (gridpoints):     30457 (   17376530).
MG BCs: -ve charge blocks (gridpoints):      8377 (    1117384).
MG BCs:     Elided blocks (gridpoints):    170181 (  177802551).
MG BCs: Computational effort saved:  99.9802%.
MG BCs: Charge after coarse-graining:           -9.0009930.
MG DL_MG: Calling solver with defect correction order = 8
MG DL_MG: Solver finished
MG Hartree energy from (\int phi*rho dr):              1406.346656
MG Hartree energy from (\int eps (grad phi)^2 dr):     1405.703675
MG Discrepancy due to finite box and discretization:     -0.642980 (  -0.04572%)
MG Correction to account for finite box:                  0.468537
MG Remaining discrepancy, due to discretization:         -0.174443 (  -0.01240%)
============ Calculation of NGWF S^-1 using Hotelling algorithm ================ 
         Iteration  |  Frobenius norm and Maximum abs value    (of I-S*S_n^-1)   
               1       0.18529100E+01     0.39933692E-01
               2       0.71114457E-01     0.21351731E-02
               3       0.14151619E-03     0.68274812E-05
               4       0.99177895E-09     0.87138231E-10
               5       0.11150469E-12     0.46629367E-14
================================================================================
------------------------------- NGWF line search -------------------------------
RMS gradient                =       0.00156226976163
Trial step length           =               0.122474
Gradient along search dir.  =       -271.08291752410
Functional at step 0        =  -11594.99855142296292
Functional at step 1        =  -11625.71106769132894
Functional predicted        =  -11705.74910758049373
Selected quadratic step     =               0.817097
--------------------------- NGWF line search finished --------------------------
                                               
Writing NGWFs to file "complex_30121.vacuum_tightbox_ngwfs"....  done

>>> Optimising kernel for current NGWFs:
   Initial electron number for spin 1:    7268.27346742
     Final electron number for spin 1:    7234.00000000

=================== Penalty functional idempotency correction ==================
 RMS occupancy error at iteration   1:  0.004203 (step -0.4865 Ne1=   7234.0000)
 RMS occupancy error at iteration   2:  0.000067 (step -0.5003 Ne1=   7234.0000)
            Final RMS occupancy error   :  0.000000 (Ne1=   7234.0000)
               Final occupancy bounds   : [  0.0000,  1.0000]
================================================================================

................................................................................
<<<<<<<<<<<<<< LNV (Original version) density kernel optimisation >>>>>>>>>>>>>>
~~~~~~~~~~~~~~~~~~~~~~~~~~~~~~~~~~~~~~~~~~~~~~~~~~~~~~~~~~~~~~~~~~~~~~~~~~~~~~~~
   iter  |      energy (Eh)       | rms gradient |  commutator  |   dE (Eh)
MG BCs: +ve charge blocks (gridpoints):     24709 (   17128316).
MG BCs: -ve charge blocks (gridpoints):      8520 (    1101158).
MG BCs:     Elided blocks (gridpoints):    175931 (  178066991).
MG BCs: Computational effort saved:  99.9831%.
MG BCs: Charge after coarse-graining:           -9.0006579.
MG DL_MG: Calling solver with defect correction order = 8
MG DL_MG: Solver finished
MG Hartree energy from (\int phi*rho dr):              1250.378493
MG Hartree energy from (\int eps (grad phi)^2 dr):     1249.734820
MG Discrepancy due to finite box and discretization:     -0.643673 (  -0.05148%)
MG Correction to account for finite box:                  0.468316
MG Remaining discrepancy, due to discretization:         -0.175357 (  -0.01402%)
      ideal mu1:      -0.721568764597
             Q0:  -11704.933775491663
             G0:      -9.841135532543
   RMS gradient:       0.000479306099
MG BCs: +ve charge blocks (gridpoints):     24782 (   17145543).
MG BCs: -ve charge blocks (gridpoints):      8509 (    1097138).
MG BCs:     Elided blocks (gridpoints):    175858 (  178053784).
MG BCs: Computational effort saved:  99.9830%.
MG BCs: Charge after coarse-graining:           -9.0006538.
MG DL_MG: Calling solver with defect correction order = 8
MG DL_MG: Solver finished
MG Hartree energy from (\int phi*rho dr):              1268.831273
MG Hartree energy from (\int eps (grad phi)^2 dr):     1268.181442
MG Discrepancy due to finite box and discretization:     -0.649831 (  -0.05121%)
MG Correction to account for finite box:                  0.467890
MG Remaining discrepancy, due to discretization:         -0.181942 (  -0.01434%)
     Trial step:       0.823653086469
             Q1:  -11702.858897887287
 Quadratic coef:      10.180559260116
 Linear coef   :      -8.105681655739
           Qmin:  -11706.547195575607
Quadratic minimum step length (  0.327893072625) accepted
    Initial Ne1:    7233.99963352
      Final Ne1:    7234.00000000

=================== Penalty functional idempotency correction ==================
 RMS occupancy error at iteration   1:  0.000350 (step -0.4986 Ne1=   7234.0000)
 RMS occupancy error at iteration   2:  0.000000 (step -0.5000 Ne1=   7234.0000)
            Final RMS occupancy error   :  0.000000 (Ne1=   7234.0000)
               Final occupancy bounds   : [  0.0000,  1.0000]
================================================================================

    1        -1.170493377549E+04     4.7931E-04     4.3365E-04
MG BCs: +ve charge blocks (gridpoints):     24739 (   17135139).
MG BCs: -ve charge blocks (gridpoints):      8510 (    1099637).
MG BCs:     Elided blocks (gridpoints):    175901 (  178061689).
MG BCs: Computational effort saved:  99.9831%.
MG BCs: Charge after coarse-graining:           -9.0006563.
MG DL_MG: Calling solver with defect correction order = 8
MG DL_MG: Solver finished
MG Hartree energy from (\int phi*rho dr):              1256.507520
MG Hartree energy from (\int eps (grad phi)^2 dr):     1255.861518
MG Discrepancy due to finite box and discretization:     -0.646002 (  -0.05141%)
MG Correction to account for finite box:                  0.468120
MG Remaining discrepancy, due to discretization:         -0.177882 (  -0.01416%)
      ideal mu1:      -0.728162416408
             Q0:  -11706.515573965502
             G0:      -0.974595958821
   RMS gradient:       0.000151826846
MG BCs: +ve charge blocks (gridpoints):     24745 (   17135079).
MG BCs: -ve charge blocks (gridpoints):      8508 (    1100431).
MG BCs:     Elided blocks (gridpoints):    175895 (  178060955).
MG BCs: Computational effort saved:  99.9831%.
MG BCs: Charge after coarse-graining:           -9.0006562.
MG DL_MG: Calling solver with defect correction order = 8
MG DL_MG: Solver finished
MG Hartree energy from (\int phi*rho dr):              1257.733277
MG Hartree energy from (\int eps (grad phi)^2 dr):     1257.086927
MG Discrepancy due to finite box and discretization:     -0.646350 (  -0.05139%)
MG Correction to account for finite box:                  0.468098
MG Remaining discrepancy, due to discretization:         -0.178252 (  -0.01417%)
     Trial step:       0.519682731385
             Q1:  -11706.712861981126
 Quadratic coef:       0.309192674253
 Linear coef   :      -0.506480689877
           Qmin:  -11706.722987263567
Quadratic minimum step length (  0.425639561068) accepted
    Initial Ne1:    7233.99995226
      Final Ne1:    7234.00000000

=================== Penalty functional idempotency correction ==================
 RMS occupancy error at iteration   1:  0.000140 (step -0.4994 Ne1=   7234.0000)
            Final RMS occupancy error   :  0.000000 (Ne1=   7234.0000)
               Final occupancy bounds   : [ -0.0000,  1.0000]
================================================================================

    2        -1.170651557397E+04     1.5183E-04     1.3737E-04    -1.5818E+00
MG BCs: +ve charge blocks (gridpoints):     24744 (   17135052).
MG BCs: -ve charge blocks (gridpoints):      8509 (    1100303).
MG BCs:     Elided blocks (gridpoints):    175896 (  178061110).
MG BCs: Computational effort saved:  99.9831%.
MG BCs: Charge after coarse-graining:           -9.0006562.
MG DL_MG: Calling solver with defect correction order = 8
MG DL_MG: Solver finished
MG Hartree energy from (\int phi*rho dr):              1257.511300
MG Hartree energy from (\int eps (grad phi)^2 dr):     1256.865015
MG Discrepancy due to finite box and discretization:     -0.646285 (  -0.05139%)
MG Correction to account for finite box:                  0.468102
MG Remaining discrepancy, due to discretization:         -0.178183 (  -0.01417%)
      ideal mu1:      -0.729151480110
             Q0:  -11706.723437692621
             G0:      -0.144902566466
   RMS gradient:       0.000058096754
MG BCs: +ve charge blocks (gridpoints):     24745 (   17134481).
MG BCs: -ve charge blocks (gridpoints):      8507 (    1100696).
MG BCs:     Elided blocks (gridpoints):    175895 (  178061288).
MG BCs: Computational effort saved:  99.9831%.
MG BCs: Charge after coarse-graining:           -9.0006562.
MG DL_MG: Calling solver with defect correction order = 8
MG DL_MG: Solver finished
MG Hartree energy from (\int phi*rho dr):              1257.049892
MG Hartree energy from (\int eps (grad phi)^2 dr):     1256.403650
MG Discrepancy due to finite box and discretization:     -0.646242 (  -0.05141%)
MG Correction to account for finite box:                  0.468082
MG Remaining discrepancy, due to discretization:         -0.178160 (  -0.01417%)
     Trial step:       0.470316414429
             Q1:  -11706.767259899643
 Quadratic coef:       0.024327848480
 Linear coef   :      -0.068150055502
           Qmin:  -11706.771165197879
Quadratic minimum step length (  0.658753070042) accepted
    Initial Ne1:    7234.00058809
      Final Ne1:    7234.00000000

=================== Penalty functional idempotency correction ==================
 RMS occupancy error at iteration   1:  0.000061 (step -0.4998 Ne1=   7234.0000)
            Final RMS occupancy error   :  0.000000 (Ne1=   7234.0000)
               Final occupancy bounds   : [ -0.0000,  1.0000]
================================================================================

    3        -1.170672343769E+04     5.8097E-05     5.2563E-05    -2.0786E-01
MG BCs: +ve charge blocks (gridpoints):     24748 (   17134293).
MG BCs: -ve charge blocks (gridpoints):      8507 (    1100794).
MG BCs:     Elided blocks (gridpoints):    175892 (  178061378).
MG BCs: Computational effort saved:  99.9831%.
MG BCs: Charge after coarse-graining:           -9.0006562.
MG DL_MG: Calling solver with defect correction order = 8
MG DL_MG: Solver finished
MG Hartree energy from (\int phi*rho dr):              1256.865132
MG Hartree energy from (\int eps (grad phi)^2 dr):     1256.218905
MG Discrepancy due to finite box and discretization:     -0.646226 (  -0.05142%)
MG Correction to account for finite box:                  0.468075
MG Remaining discrepancy, due to discretization:         -0.178152 (  -0.01417%)
      ideal mu1:      -0.728247912477
             Q0:  -11706.771251313505
             G0:      -0.033712937053
   RMS gradient:       0.000028013288
MG BCs: +ve charge blocks (gridpoints):     24744 (   17134114).
MG BCs: -ve charge blocks (gridpoints):      8505 (    1100873).
MG BCs:     Elided blocks (gridpoints):    175896 (  178061478).
MG BCs: Computational effort saved:  99.9831%.
MG BCs: Charge after coarse-graining:           -9.0006562.
MG DL_MG: Calling solver with defect correction order = 8
MG DL_MG: Solver finished
MG Hartree energy from (\int phi*rho dr):              1256.862498
MG Hartree energy from (\int eps (grad phi)^2 dr):     1256.216372
MG Discrepancy due to finite box and discretization:     -0.646126 (  -0.05141%)
MG Correction to account for finite box:                  0.468077
MG Remaining discrepancy, due to discretization:         -0.178050 (  -0.01417%)
     Trial step:       0.556616907663
             Q1:  -11706.779494873481
 Quadratic coef:       0.010521630795
 Linear coef   :      -0.018765190771
           Qmin:  -11706.779618181519
Quadratic minimum step length (  0.496359483728) accepted
    Initial Ne1:    7234.00020881
      Final Ne1:    7234.00000000

=================== Penalty functional idempotency correction ==================
 RMS occupancy error at iteration   1:  0.000017 (step -0.4999 Ne1=   7234.0000)
            Final RMS occupancy error   :  0.000000 (Ne1=   7234.0000)
               Final occupancy bounds   : [ -0.0000,  1.0000]
================================================================================

    4        -1.170677125131E+04     2.8013E-05     2.5345E-05    -4.7814E-02
MG BCs: +ve charge blocks (gridpoints):     24744 (   17134118).
MG BCs: -ve charge blocks (gridpoints):      8506 (    1100873).
MG BCs:     Elided blocks (gridpoints):    175896 (  178061474).
MG BCs: Computational effort saved:  99.9831%.
MG BCs: Charge after coarse-graining:           -9.0006562.
MG DL_MG: Calling solver with defect correction order = 8
MG DL_MG: Solver finished
MG Hartree energy from (\int phi*rho dr):              1256.862604
MG Hartree energy from (\int eps (grad phi)^2 dr):     1256.216467
MG Discrepancy due to finite box and discretization:     -0.646137 (  -0.05141%)
MG Correction to account for finite box:                  0.468076
MG Remaining discrepancy, due to discretization:         -0.178061 (  -0.01417%)
      ideal mu1:      -0.728232915226
             Q0:  -11706.779622522881
             G0:      -0.010425553543
   RMS gradient:       0.000015597822
MG BCs: +ve charge blocks (gridpoints):     24744 (   17134606).
MG BCs: -ve charge blocks (gridpoints):      8506 (    1100684).
MG BCs:     Elided blocks (gridpoints):    175896 (  178061175).
MG BCs: Computational effort saved:  99.9831%.
MG BCs: Charge after coarse-graining:           -9.0006561.
MG DL_MG: Calling solver with defect correction order = 8
MG DL_MG: Solver finished
MG Hartree energy from (\int phi*rho dr):              1257.247443
MG Hartree energy from (\int eps (grad phi)^2 dr):     1256.601343
MG Discrepancy due to finite box and discretization:     -0.646100 (  -0.05139%)
MG Correction to account for finite box:                  0.468069
MG Remaining discrepancy, due to discretization:         -0.178031 (  -0.01416%)
     Trial step:       0.525625418832
             Q1:  -11706.782446811325
 Quadratic coef:       0.002655647504
 Linear coef   :      -0.005479935948
           Qmin:  -11706.782449488615
Quadratic minimum step length (  0.542314750599) accepted
    Initial Ne1:    7234.00008090
      Final Ne1:    7234.00000000

=================== Penalty functional idempotency correction ==================
 RMS occupancy error at iteration   1:  0.000008 (step -0.5000 Ne1=   7234.0000)
            Final RMS occupancy error   :  0.000000 (Ne1=   7234.0000)
               Final occupancy bounds   : [ -0.0000,  1.0000]
================================================================================

    5        -1.170677962252E+04     1.5598E-05     1.4112E-05    -8.3712E-03
MG BCs: +ve charge blocks (gridpoints):     24744 (   17134616).
MG BCs: -ve charge blocks (gridpoints):      8506 (    1100682).
MG BCs:     Elided blocks (gridpoints):    175896 (  178061167).
MG BCs: Computational effort saved:  99.9831%.
MG BCs: Charge after coarse-graining:           -9.0006561.
MG DL_MG: Calling solver with defect correction order = 8
MG DL_MG: Solver finished
MG Hartree energy from (\int phi*rho dr):              1257.259678
MG Hartree energy from (\int eps (grad phi)^2 dr):     1256.613579
MG Discrepancy due to finite box and discretization:     -0.646099 (  -0.05139%)
MG Correction to account for finite box:                  0.468069
MG Remaining discrepancy, due to discretization:         -0.178030 (  -0.01416%)
      ideal mu1:      -0.728579366317
             Q0:  -11706.782450233935
             G0:      -0.002879243621
   RMS gradient:       0.000008196924
MG BCs: +ve charge blocks (gridpoints):     24744 (   17134580).
MG BCs: -ve charge blocks (gridpoints):      8505 (    1100716).
MG BCs:     Elided blocks (gridpoints):    175896 (  178061169).
MG BCs: Computational effort saved:  99.9831%.
MG BCs: Charge after coarse-graining:           -9.0006562.
MG DL_MG: Calling solver with defect correction order = 8
MG DL_MG: Solver finished
MG Hartree energy from (\int phi*rho dr):              1257.228358
MG Hartree energy from (\int eps (grad phi)^2 dr):     1256.582264
MG Discrepancy due to finite box and discretization:     -0.646094 (  -0.05139%)
MG Correction to account for finite box:                  0.468068
MG Remaining discrepancy, due to discretization:         -0.178026 (  -0.01416%)
     Trial step:       0.533904877223
             Q1:  -11706.783375612111
 Quadratic coef:       0.000611864036
 Linear coef   :      -0.001537242212
           Qmin:  -11706.783415772634
Quadratic minimum step length (  0.670689129045) accepted
    Initial Ne1:    7234.00003200
      Final Ne1:    7234.00000000

=================== Penalty functional idempotency correction ==================
 RMS occupancy error at iteration   1:  0.000004 (step -0.5000 Ne1=   7234.0000)
            Final RMS occupancy error   :  0.000000 (Ne1=   7234.0000)
               Final occupancy bounds   : [  0.0000,  1.0000]
================================================================================

    6        -1.170678245023E+04     8.1969E-06     7.4162E-06    -2.8277E-03
MG BCs: +ve charge blocks (gridpoints):     24745 (   17134575).
MG BCs: -ve charge blocks (gridpoints):      8506 (    1100719).
MG BCs:     Elided blocks (gridpoints):    175895 (  178061171).
MG BCs: Computational effort saved:  99.9831%.
MG BCs: Charge after coarse-graining:           -9.0006562.
MG DL_MG: Calling solver with defect correction order = 8
MG DL_MG: Solver finished
MG Hartree energy from (\int phi*rho dr):              1257.220331
MG Hartree energy from (\int eps (grad phi)^2 dr):     1256.574239
MG Discrepancy due to finite box and discretization:     -0.646093 (  -0.05139%)
MG Correction to account for finite box:                  0.468068
MG Remaining discrepancy, due to discretization:         -0.178025 (  -0.01416%)
      ideal mu1:      -0.728532568719
             Q0:  -11706.783415850368
             G0:      -0.001312789961
   RMS gradient:       0.000005535897
MG BCs: +ve charge blocks (gridpoints):     24744 (   17134425).
MG BCs: -ve charge blocks (gridpoints):      8506 (    1100761).
MG BCs:     Elided blocks (gridpoints):    175896 (  178061279).
MG BCs: Computational effort saved:  99.9831%.
MG BCs: Charge after coarse-graining:           -9.0006562.
MG DL_MG: Calling solver with defect correction order = 8
MG DL_MG: Solver finished
MG Hartree energy from (\int phi*rho dr):              1257.134803
MG Hartree energy from (\int eps (grad phi)^2 dr):     1256.488701
MG Discrepancy due to finite box and discretization:     -0.646102 (  -0.05139%)
MG Correction to account for finite box:                  0.468070
MG Remaining discrepancy, due to discretization:         -0.178032 (  -0.01416%)
     Trial step:       0.598401367894
             Q1:  -11706.783690480632
 Quadratic coef:       0.000510945045
 Linear coef   :      -0.000785575308
           Qmin:  -11706.783717804839
Quadratic minimum step length (  0.460019471516) accepted
    Initial Ne1:    7233.99999863
      Final Ne1:    7234.00000000

=================== Penalty functional idempotency correction ==================
 RMS occupancy error at iteration   1:  0.000000 (step -0.5000 Ne1=   7234.0000)
            Final RMS occupancy error   :  0.000000 (Ne1=   7234.0000)
               Final occupancy bounds   : [  0.0000,  1.0000]
================================================================================

    7        -1.170678341585E+04     5.5359E-06     5.0086E-06    -9.6562E-04
MG BCs: +ve charge blocks (gridpoints):     24744 (   17134457).
MG BCs: -ve charge blocks (gridpoints):      8506 (    1100755).
MG BCs:     Elided blocks (gridpoints):    175896 (  178061253).
MG BCs: Computational effort saved:  99.9831%.
MG BCs: Charge after coarse-graining:           -9.0006562.
MG DL_MG: Calling solver with defect correction order = 8
MG DL_MG: Solver finished
MG Hartree energy from (\int phi*rho dr):              1257.154552
MG Hartree energy from (\int eps (grad phi)^2 dr):     1256.508453
MG Discrepancy due to finite box and discretization:     -0.646100 (  -0.05139%)
MG Correction to account for finite box:                  0.468070
MG Remaining discrepancy, due to discretization:         -0.178030 (  -0.01416%)
      ideal mu1:      -0.728461763333
             Q0:  -11706.783717795741
             G0:      -0.000715464135
   RMS gradient:       0.000004086734
MG BCs: +ve charge blocks (gridpoints):     24744 (   17134430).
MG BCs: -ve charge blocks (gridpoints):      8506 (    1100760).
MG BCs:     Elided blocks (gridpoints):    175896 (  178061275).
MG BCs: Computational effort saved:  99.9831%.
MG BCs: Charge after coarse-graining:           -9.0006562.
MG DL_MG: Calling solver with defect correction order = 8
MG DL_MG: Solver finished
MG Hartree energy from (\int phi*rho dr):              1257.119534
MG Hartree energy from (\int eps (grad phi)^2 dr):     1256.473428
MG Discrepancy due to finite box and discretization:     -0.646107 (  -0.05140%)
MG Correction to account for finite box:                  0.468072
MG Remaining discrepancy, due to discretization:         -0.178035 (  -0.01416%)
     Trial step:       0.524667781566
             Q1:  -11706.784003275447
 Quadratic coef:       0.000089901276
 Linear coef   :      -0.000375380981
           Qmin:  -11706.784109644686
Quadratic minimum step length (  1.095369919917) accepted
    Initial Ne1:    7233.99999821
      Final Ne1:    7234.00000000

=================== Penalty functional idempotency correction ==================
 RMS occupancy error at iteration   1:  0.000003 (step -0.5000 Ne1=   7234.0000)
            Final RMS occupancy error   :  0.000000 (Ne1=   7234.0000)
               Final occupancy bounds   : [  0.0000,  1.0000]
================================================================================

    8        -1.170678371780E+04     4.0867E-06     3.6975E-06    -3.0195E-04
MG BCs: +ve charge blocks (gridpoints):     24744 (   17134367).
MG BCs: -ve charge blocks (gridpoints):      8506 (    1100778).
MG BCs:     Elided blocks (gridpoints):    175896 (  178061320).
MG BCs: Computational effort saved:  99.9831%.
MG BCs: Charge after coarse-graining:           -9.0006562.
MG DL_MG: Calling solver with defect correction order = 8
MG DL_MG: Solver finished
[...]
MG Hartree energy from (\int phi*rho dr):              1215.520697
MG Hartree energy from (\int eps (grad phi)^2 dr):     1215.337254
MG Discrepancy due to finite box and discretization:     -0.183443 (  -0.01509%)
MG Correction to account for finite box:                  0.006373
MG Remaining discrepancy, due to discretization:         -0.177071 (  -0.01457%)
             Q2:  -11740.597377162892
  Cubic LS coeff:       0.986898934926
Predicted energy:  -11740.597377162869
Cubic minimum step length accepted
    Initial Ne1:    7234.00000000
      Final Ne1:    7234.00000000

=================== Penalty functional idempotency correction ==================
 RMS occupancy error at iteration   1:  0.000000 (step -0.5000 Ne1=   7234.0000)
            Final RMS occupancy error   :  0.000000 (Ne1=   7234.0000)
               Final occupancy bounds   : [  0.0000,  1.0000]
================================================================================

    7        -1.174059737716E+04     1.0271E-08     9.2928E-09    -2.9104E-09

Reusing previously generated solute cavity.
MG BCs: +ve charge blocks (gridpoints):     28821 (   19317190).
MG BCs: -ve charge blocks (gridpoints):      8491 (    1068848).
MG BCs:     Elided blocks (gridpoints):    171819 (  175910427).
MG BCs: Computational effort saved:  99.9810%.
MG BCs: Charge after coarse-graining:           -9.0009446.
MG DL_MG: Calling solver with defect correction order = 8
MG DL_MG: Solver finished
MG Hartree energy from (\int phi*rho dr):              1215.520697
MG Hartree energy from (\int eps (grad phi)^2 dr):     1215.337254
MG Discrepancy due to finite box and discretization:     -0.183443 (  -0.01509%)
MG Correction to account for finite box:                  0.006373
MG Remaining discrepancy, due to discretization:         -0.177071 (  -0.01457%)
      ideal mu1:      -0.480890564772
             Q0:  -11740.597377163009
             G0:      -0.000000005931
   RMS gradient:       0.000000011270

Reusing previously generated solute cavity.
MG BCs: +ve charge blocks (gridpoints):     28821 (   19317190).
MG BCs: -ve charge blocks (gridpoints):      8491 (    1068847).
MG BCs:     Elided blocks (gridpoints):    171819 (  175910428).
MG BCs: Computational effort saved:  99.9810%.
MG BCs: Charge after coarse-graining:           -9.0009446.
MG DL_MG: Calling solver with defect correction order = 8
MG DL_MG: Solver finished
MG Hartree energy from (\int phi*rho dr):              1215.520660
MG Hartree energy from (\int eps (grad phi)^2 dr):     1215.337217
MG Discrepancy due to finite box and discretization:     -0.183443 (  -0.01509%)
MG Correction to account for finite box:                  0.006373
MG Remaining discrepancy, due to discretization:         -0.177071 (  -0.01457%)
     Trial step:       0.694726699083
             Q1:  -11740.597377165221
 Quadratic coef:       0.000000001908
 Linear coef   :      -0.000000004120
           Qmin:  -11740.597377165233
Quadratic minimum step length (  0.750091857331) accepted
    Initial Ne1:    7234.00000000
      Final Ne1:    7234.00000000

=================== Penalty functional idempotency correction ==================
 RMS occupancy error at iteration   1:  0.000000 (step -0.5000 Ne1=   7234.0000)
            Final RMS occupancy error   :  0.000000 (Ne1=   7234.0000)
               Final occupancy bounds   : [ -0.0000,  1.0000]
================================================================================

    8        -1.174059737716E+04     1.1270E-08     1.0197E-08    -4.8894E-09

Reusing previously generated solute cavity.
MG BCs: +ve charge blocks (gridpoints):     28821 (   19317190).
MG BCs: -ve charge blocks (gridpoints):      8491 (    1068847).
MG BCs:     Elided blocks (gridpoints):    171819 (  175910428).
MG BCs: Computational effort saved:  99.9810%.
MG BCs: Charge after coarse-graining:           -9.0009446.
MG DL_MG: Calling solver with defect correction order = 8
MG DL_MG: Solver finished
MG Hartree energy from (\int phi*rho dr):              1215.520657
MG Hartree energy from (\int eps (grad phi)^2 dr):     1215.337214
MG Discrepancy due to finite box and discretization:     -0.183443 (  -0.01509%)
MG Correction to account for finite box:                  0.006373
MG Remaining discrepancy, due to discretization:         -0.177071 (  -0.01457%)
      ideal mu1:      -0.480890516565
             Q0:  -11740.597377165337
             G0:      -0.000000002862
   RMS gradient:       0.000000006975

Reusing previously generated solute cavity.
MG BCs: +ve charge blocks (gridpoints):     28821 (   19317190).
MG BCs: -ve charge blocks (gridpoints):      8491 (    1068847).
MG BCs:     Elided blocks (gridpoints):    171819 (  175910428).
MG BCs: Computational effort saved:  99.9810%.
MG BCs: Charge after coarse-graining:           -9.0009446.
MG DL_MG: Calling solver with defect correction order = 8
MG DL_MG: Solver finished
MG Hartree energy from (\int phi*rho dr):              1215.520671
MG Hartree energy from (\int eps (grad phi)^2 dr):     1215.337227
MG Discrepancy due to finite box and discretization:     -0.183443 (  -0.01509%)
MG Correction to account for finite box:                  0.006373
MG Remaining discrepancy, due to discretization:         -0.177071 (  -0.01457%)
     Trial step:       0.721878687906
             Q1:  -11740.597377166268
 Quadratic coef:       0.000000001135
 Linear coef   :      -0.000000002066
           Qmin:  -11740.597377166278
Quadratic minimum step length (  0.656930616965) accepted
    Initial Ne1:    7234.00000000
      Final Ne1:    7234.00000000

=================== Penalty functional idempotency correction ==================
 RMS occupancy error at iteration   1:  0.000000 (step -0.5000 Ne1=   7234.0000)
            Final RMS occupancy error   :  0.000000 (Ne1=   7234.0000)
               Final occupancy bounds   : [  0.0000,  1.0000]
================================================================================

    9        -1.174059737717E+04     6.9755E-09     6.3111E-09    -2.3283E-09

Reusing previously generated solute cavity.
MG BCs: +ve charge blocks (gridpoints):     28821 (   19317190).
MG BCs: -ve charge blocks (gridpoints):      8491 (    1068847).
MG BCs:     Elided blocks (gridpoints):    171819 (  175910428).
MG BCs: Computational effort saved:  99.9810%.
MG BCs: Charge after coarse-graining:           -9.0009446.
MG DL_MG: Calling solver with defect correction order = 8
MG DL_MG: Solver finished
MG Hartree energy from (\int phi*rho dr):              1215.520669
MG Hartree energy from (\int eps (grad phi)^2 dr):     1215.337226
MG Discrepancy due to finite box and discretization:     -0.183443 (  -0.01509%)
MG Correction to account for finite box:                  0.006373
MG Remaining discrepancy, due to discretization:         -0.177071 (  -0.01457%)
      ideal mu1:      -0.480890538014
   10        -1.174059737717E+04     4.4547E-09     4.0305E-09    -8.1491E-10
Finished density kernel iterations (  10)

Writing density kernel to file "complex_30121.dkn" ... done


>>> Density kernel optimised for the current NGWF basis:
     ~~~~~~~~~~~~~~~~~~~~~~~~~~~~~~~~~~~~~~~~~~~~~~~~~~~~~~~~~~~
     Total energy                =  -1.17405973771662E+04  Eh
     Estimated bandgap           =   9.1024E-02  Eh
     RMS occupancy error         =   3.1500E-16
     [H,K] commutator            =   4.0305E-09
     Occupancy bounds            = [ -0.000:  1.000]
     ~~~~~~~~~~~~~~~~~~~~~~~~~~~~~~~~~~~~~~~~~~~~~~~~~~~~~~~~~~~




################################################################################
########################### NGWF CG iteration  004 #############################
################################################################################
****** Reciprocal space K.E. preconditioning with k_zero =  3.5000 a0^-1 *******

>>> Checking for convergence of NGWFs: 
           ........................................................
           |         *** NGWF optimisation converged ***          |
           | RMS NGWF gradient =    0.00000190908214              |
           | Criteria satisfied:                                  |
           | -> RMS NGWF gradient lower than set threshold.       |
           ========================================================

Reusing previously generated solute cavity.
MG BCs: +ve charge blocks (gridpoints):     28821 (   19317190).
MG BCs: -ve charge blocks (gridpoints):      8491 (    1068847).
MG BCs:     Elided blocks (gridpoints):    171819 (  175910428).
MG BCs: Computational effort saved:  99.9810%.
MG BCs: Charge after coarse-graining:           -9.0009446.
MG DL_MG: Calling solver with defect correction order = 8
MG DL_MG: Solver finished
MG Hartree energy from (\int phi*rho dr):              1215.520669
MG Hartree energy from (\int eps (grad phi)^2 dr):     1215.337226
MG Discrepancy due to finite box and discretization:     -0.183443 (  -0.01509%)
MG Correction to account for finite box:                  0.006373
MG Remaining discrepancy, due to discretization:         -0.177071 (  -0.01457%)

================================================================================
           ---------------- ENERGY COMPONENTS (Eh) ----------------
           | Kinetic                    :     8578.96545871466515 |
           | Pseudo. (local,OBC,corr'd) :    -5078.95836808434160 |
           | Pseudopotential (non-local):     1410.08311147076483 |
           | Hartree (molecular)        :     1215.52066935158132 |
           | Exchange-correlation       :    -3376.90794356915876 |
           | Ion-ion (open BC)          :   838014.84008955047466 |
           | Dispersion Correction      :       -3.31390910939379 |
           | Smeared ion non-self corr. :  -837966.51101972302422 |
           | Smeared ion self corr.     :   -14534.96330857569956 |
           | Solvent cavitation energy  :        2.30487523942034 |
           | Solute-solvent dis-rep en. :       -1.65703243150027 |
           | Total                      :   -11740.59737716622112 |
           --------------------------------------------------------
           ------ LOCAL ENERGY COMPONENTS FROM MATRIX TRACES ------
           | Pseudopotential (local)    :    -5078.95836808434433 |
           | Hartree                    :    -2001.22442123736710 |
           --------------------------------------------------------
           Integrated density           :     7233.99999999895681
           Integrated density tr(KS)    :     7234.00000000000000
================================================================================


                        <<<<< CALCULATION SUMMARY >>>>>                         
|ITER|    RMS GRADIENT   |     TOTAL ENERGY    |   step   |     Epredicted              
   0     0.00003798912008 -11740.53956465143710   0.621136 -11740.58934582524853        
   1     0.00001011061451 -11740.59671917010564   0.096655 -11740.59726787428008        
   2     0.00000435954138 -11740.59735676948912   0.016853 -11740.59737455723371        
   3     0.00000190908214 -11740.59737716615200  <-- CG                                 

=================== Finished the calculation in solvent ========================
= Adjusting the following parameters: 
= read_denskern: F
= read_tightbox_ngwfs: F
= maxit_pen: 0 (restored to user-specified value)
= restart read filename prefix: ""
= restart write filename prefix: ""
================================================================================

================================================================================
IS: Calculation in solvent completed (NGWFs converged).      

Individual components of total energy in solvent:     hartree           kcal/mol
- Usual non-electrostatic DFT terms:    -12956.76588932565392    -8130493.172378
- Electrostatic fixed charge energy:      1215.52066935158132      762750.719390
- Apolar cavitation energy:                  2.30487523942034        1446.331018
- Apolar dispersion-repulsion energy:       -1.65703243150027       -1039.803527
 -------------------------------------------------------------------------------
- Total energy in solvent:              -11740.59737716615200    -7367335.925497

Components of total energy in solvent:                hartree           kcal/mol
- Usual non-electrostatic DFT terms:    -12956.76588932565392    -8130493.172378
- Electrostatic energy:                   1215.52066935158132      762750.719390
- Apolar energy terms:                       0.64784280792007         406.527491
 -------------------------------------------------------------------------------
- Total energy in solvent:              -11740.59737716615200    -7367335.925497

Calculation of free energy of solvation:              hartree           kcal/mol
- Total energy in solvent:         (+)  -11740.59737716615200    -7367335.925497
- Total energy in vacuum:          (-)  -11736.84678044519387    -7364982.390572
 -------------------------------------------------------------------------------
- Total free energy of solvation:           -3.75059672095813       -2353.534925

Components of polar term in f.e. of solvation:        hartree           kcal/mol
- Electrostatic:                            -4.67641248833797       -2934.493077
- Change in nonelectrostatic DFT terms:      0.27797295945857         174.430662
 -------------------------------------------------------------------------------
- Polar term in f.e. of solvation:          -4.39843952887941       -2760.062416

Components of free energy of solvation:               hartree           kcal/mol
- Polar term in f.e. of solvation: (+)      -4.39843952887941       -2760.062416
- Apolar (cavitation, dis., rep.): (+)       0.64784280792007         406.527491
 -------------------------------------------------------------------------------
- Total free energy of solvation:           -3.75059672095933       -2353.534925
================================================================================


------------------------------ TIMING INFORMATION ------------------------------
AVERAGE TIME:   31140.920s on     60 node(s)                                    
TOTAL TIME:     31140.920s on     60 node(s)                                    
================= AVERAGE TIMINGS FROM ALL NODES (CUMULATIVE) ==================
|| TAG                                    #calls    cpu time   %total  Gflops ||
|| work_imbalance                       :     1        0.00s   0.000%  ------ ||
|| sparse_set_to_garbage                :   164        0.03s   0.000%  ------ ||
|| parallel_prepare_fd_halos_request    :  1827        0.03s   0.000%  ------ ||
|| ngwfs_initialise_from_radial         :     1        0.11s   0.000%  ------ ||
|| basis_extract_function_from_box      :  3381        0.15s   0.000%  ------ ||
|| parallel_prepare_fd_halos_satisfy    :  1827        0.64s   0.002%  ------ ||
|| parallel_prepare_fd_halos_alloc      :  1827        0.69s   0.002%  ------ ||
|| pseudopotentials_nonlocal_mat        :    28        2.38s   0.008%  ------ ||
|| openbc_locps_radial                  :     1        4.65s   0.015%  ------ ||
|| restart_kernel_read                  :     1        6.47s   0.021%  ------ ||
|| density_init_guess_real              :     1        9.37s   0.030%  ------ ||
|| parallel_prepare_fd_halos_comms_imbal:  1827       10.95s   0.035%  ------ ||
|| restart_ngwfs_tightbox_input         :     1       11.10s   0.036%  ------ ||
|| parallel_prepare_fd_halos_clear      :  1827       18.44s   0.059%  ------ ||
|| sparse_init                          :     2       23.74s   0.076%  ------ ||
|| projectors_func_ovlp_box             :    28       26.21s   0.084%  ------ ||
|| parallel_prepare_fd_halos_comms_wait :  1827       27.76s   0.089%  ------ ||
|| function_ops_brappd_ketppd           :    28       29.34s   0.094%  ------ ||
|| projectors_init_fftbox_recip         :   133       33.16s   0.106%  ------ ||
|| palser_mano_kernel_optimise          :     1       33.38s   0.107%  ------ ||
|| basis_copy_function_to_box           : 54868       41.83s   0.134%  ------ ||
|| ngwf_gradient_coeffs                 :    15       46.73s   0.150%  ------ ||
|| fourier_apply_box_pair               :  4812       50.85s   0.163% 583.582 ||
|| parallel_prepare_fd_halos            :  1827       58.53s   0.188%  ------ ||
|| pseudo_make_structure_factor         :     2       64.84s   0.208%  ------ ||
|| sparse_embed_hotelling_invert_embed  :    28       76.13s   0.244%  ------ ||
|| restart_kernel_write                 :    16      134.68s   0.432%  ------ ||
|| finite_difference_derivative         :  1827      139.33s   0.447%  ------ ||
|| integrals_kinetic                    :    28      144.78s   0.465%  ------ ||
|| projectors_gradient_batch            :   105      150.16s   0.482%  ------ ||
|| basis_dot_function_with_box          : 8.469M     165.69s   0.532%  ------ ||
|| fourier_apply_cell_backward          :  1219      169.77s   0.545%  99.183 ||
|| sparse_trace                         :  4746      200.83s   0.645%  ------ ||
|| fourier_apply_cell_forward           :  1217      225.04s   0.723%  74.700 ||
|| openbc_locps_on_grid                 :     2      267.82s   0.860%  ------ ||
|| kernel_purify                        :   464      281.18s   0.903%  ------ ||
|| lnv_gradient_norm                    :   150      412.76s   1.325%  ------ ||
|| basis_add_function_to_box            : 17.61M     413.22s   1.327%  ------ ||
|| xc_energy_potential                  :   304      456.41s   1.466%  ------ ||
|| kernel_fix                           :   150      460.41s   1.478%  ------ ||
|| hamiltonian_energy_components        :     4      522.19s   1.677%  ------ ||
|| integrals_locpot_mat_els_batch       :  1113      729.17s   2.342%  ------ ||
|| ngwf_gradient_build_batch            :   105      771.75s   2.478%  ------ ||
|| density_batch_row_sums               :  2121     1060.26s   3.405%  ------ ||
|| ngwf_gradient_batch                  :   105     1112.88s   3.574%  ------ ||
|| ngwf_gradient_lnv                    :    15     1260.99s   4.049%  ------ ||
|| cell_grid_deposit_box_real           : 35200     1384.25s   4.445%  ------ ||
|| restart_ngwfs_tightbox_output        :    13     1492.23s   4.792%  ------ ||
|| cell_grid_extract_box_real           : 38596     1591.40s   5.110%  ------ ||
|| sparse_product                       :  6119     1728.36s   5.550%  ------ ||
|| density_fftbox_deposit_to_cell       : 33330     2070.88s   6.650%  ------ ||
|| density_fftbox_interpolate_multiply  : 33330     3689.99s  11.849%  ------ ||
|| potential_apply_to_ngwf_batch        :  1113     3751.10s  12.046%  ------ ||
|| multigrid_prepare_bound_cond         :   304     4348.08s  13.963%  ------ ||
|| integrals_locpot_dbl_grid            :   159     4503.92s  14.463%  ------ ||
|| fourier_apply_box                    : 114.7k    4538.07s  14.573% 755.596 ||
|| density_batch_interp_deposit         :  2121     6718.53s  21.575%  ------ ||
|| dl_mg_solver_calls                   :   304     7156.56s  22.981%  ------ ||
|| density_on_dbl_grid                  :   303     8164.81s  26.219%  ------ ||
|| multigrid_calculate_hartree          :   304    11699.67s  37.570%  ------ ||
|| hamiltonian_lhxc_calculate           :   299    20240.56s  64.997%  ------ ||
|| lnv_denskernel_optimise_cg           :    15    25582.90s  82.152%  ------ ||
|| ngwf_cg_optimise                     :     2    30126.16s  96.741%  ------ ||
|| total_time                           :     1    31140.92s 100.000%  ------ ||
================================================================================
Overhead of generating timer report: 
- 0 ms averaging over threads,
- 15 ms ensuring consistency across MPI ranks,
- 0 ms printing in order.

Job completed: 03-04-2020 16:09 (+0100)

Application 40091717 resources: utime ~6393502s, stime ~223533s, Rss ~3841044, inblocks ~312609039, outblocks ~63655480
