 +---------------------------------------------------------------+
 |                                                               |
 |        ####### #     # ####### ####### ####### ######         |
 |        #     # ##    # #          #    #       #     #        |
 |        #     # # #   # #          #    #       #     #        |
 |        #     # #  #  # #####      #    #####   ######         |
 |        #     # #   # # #          #    #       #              |
 |        #     # #    ## #          #    #       #              |
 |        ####### #     # #######    #    ####### #              |
 |                                                               |
 |        Linear-Scaling Ab Initio Total Energy Program          |
 |                                                               |
 |          Release for academic collaborators of ODG            |
 |                                             Version 5.3.2.6.  |
 |                                                               |
 +---------------------------------------------------------------+
 |                                                               |
 |  Authors:                                                     |
 |  Jacek Dziedzic, Peter D. Haynes, Nicholas D. M. Hine,        |
 |  Arash. A. Mostofi, Mike C. Payne and Chris-Kriton Skylaris   |
 |                                                               |
 |  Contributors:                                                |
 |  J. Aarons, L. Andrinopoulos, P. W. Avraam, R. A. Bell,       |
 |  A. Bhandari, G. A. Bramley, R. J. Charlton, S. J. Clark,     |
 |  R. J. Clements, G. C. Constantinescu, F. Corsetti,           |
 |  N. Corsini, O. Dieguez, S. M. M. Dubois, K. K. B. Duff,      |
 |  J. M. Escartin, A. Greco, H. Helal, Q. O. Hill, L. P. Lee,   |
 |  J.-H. Li, E. B. Linscott, G. Moynihan, D. D. O`Regan,        |
 |  O. K. Okan, M. J. S. Phipps, C. J. Pickard,                  |
 |  J. C. A. Prentice, M. I. J. Probert, L. E. Ratcliff,         |
 |  M. Robinson, A. Ruiz Serrano, J. S. Spencer, E. W. Tait,     |
 |  G. Teobaldi, D. Turban, V. Vitale, K. A. Wilkinson,          |
 |  C. Weber, J. C. Womack, N. Yeung and T. J. Zuehlsdorff       |
 |                                                               |
 |                                   Copyright (c) 2004-2019     |
 |                                                               |
 |  Please cite:                                                 |
 |  "Introducing ONETEP: Linear-scaling density functional       |
 |   simulations on parallel computers".                         |
 |   C.-K. Skylaris, P. D. Haynes, A. A. Mostofi, M. C. Payne.   |
 |   J. Chem. Phys. 122 084119 (2005).                           |
 |                                                               |
 |          in all publications arising from your use of ONETEP. |
 |                                                               |
 +---------------------------------------------------------------+
 |                                                               |
 |   ONETEP is based on developments described in the following  |
 |   publications:                                               |
 |                                                               |
 |  "Nonorthogonal generalized Wannier function pseudopotential  |
 |   plane-wave method".                                         |
 |   C.-K. Skylaris, A. A. Mostofi, P. D. Haynes, O. Dieguez,    |
 |   M. C. Payne.                                                |
 |   Phys. Rev. B 66 035119 (2002).                              |
 |                                                               |
 |  "Preconditioned iterative minimization for linear-scaling    |
 |   electronic structure calculations".                         |
 |   A. A. Mostofi, P. D. Haynes, C.-K. Skylaris, M. C. Payne.   |
 |   J. Chem. Phys. 119(17), pp.8842-8848 (2003).                |
 |                                                               |
 |  "Total-energy calculations on a real space grid with         |
 |   localized functions and a plane-wave basis".                |
 |   A. A. Mostofi, C.-K. Skylaris, P. D. Haynes, M. C. Payne.   |
 |   Comput. Phys. Commun. 147, pp.788-802 (2002).               |
 |                                                               |
 |  "Accurate kinetic energy evaluation in electronic structure  |
 |   calculations with localized functions on real space grids"  |
 |   C.-K. Skylaris, A. A. Mostofi, P. D. Haynes, C. J. Pickard, |
 |   M. C. Payne.                                                |
 |   Comput. Phys. Commun. 140, pp.315-322 (2001).               |
 |                                                               |
 |  "Accurate ionic forces and geometry optimization in linear-  |
 |   scaling density-functional theory with local orbitals"      |
 |   N. D. M. Hine, M. Robinson, P. D. Haynes, C.-K. Skylaris,   |
 |   M. C. Payne, and A. A. Mostofi.                             |
 |   Phys. Rev. B 83 195102 (2011).                              |
 |                                                               |
 +---------------------------------------------------------------+

Job started: 03-01-2020 19:35 (-0000)
 
Reading parameters from file "complex_32401.dat" ...... done

If your calculation crashes here, before "Checking processes and threads..."
is displayed, then your stack size is insufficient.
If so, use "ulimit -s unlimited" at runtime.
You can disable this check with "check_stack_size F".

Checking processes and threads...
   Determining the default number of threads...
      No default threads set at compilation time: defaulting to 1.
      OpenMP library call suggests 4 threads.
      Hybrid MPI-OpenMP compilation detected.
      Number of MPI processes > 1.
      OMP_NUM_THREADS environment variable present and
      its value matches the one obtained from the OpenMP library call.
      Using this value as default.
      Default threads: 4
      Default applies to threads_max and threads_num_fftboxes.
      Settings in the input file override this default.
   ... done

   Running with 40 MPI processes.
   There are 10 MPI processes running on the same node as the root process.
   Each MPI process is using: 
               1 threads for simulation cell FFTs.
               1 threads for parallel FFT box operations.
               4 threads for loops over batched FFT box operations.
               4 threads in other parallel regions.
... done

Basic input checks...... done

Reading geometry and species blocks from file "complex_32401.dat" ...
  <species_atomic_set> block not found: NGWF initialisation set to SOLVE
IS: Dielectric excluded regions:
    - NONE.
    
  Number of PPD points along a3 set to 1.  This is 
  the default value, it may have been provided also in the input file.
... done
 Writing xyz coordinates to file "complex_32401.xyz" ... done


--------------------------------------------------------------------------------
---------------------------------- INPUT FILE ----------------------------------
--------------------------------------------------------------------------------

cutoff_energy       : 800 eV                                                    
xc_functional PBE                                                               
task SINGLEPOINT                                                                
write_xyz true                                                                  
output_detail VERBOSE                                                           
ngwf_threshold_orig : 0.000002                                                  
kernel_cutoff       : 1000                                                      
k_zero              : 3.5                                                       
elec_cg_max 0                                                                   
occ_mix 1.0                                                                     
dispersion 1                                                                    
maxit_ngwf_cg 40                                                                
minit_lnv 10                                                                    
maxit_lnv 10                                                                    
write_denskern T                                                                
write_tightbox_ngwfs T                                                          
charge 9                                                                        
is_implicit_solvent T                                                           
is_auto_solvation T                                                             
is_include_apolar T                                                             
is_smeared_ion_rep T                                                            
is_solvent_surf_tension 4.7624E-5 Ha/bohr**2                                    
is_apolar_scaling_factor 0.281075                                               
is_solvation_beta 1.3                                                           
is_density_threshold 0.00035                                                    
is_bulk_permittivity 78.54                                                      
is_dielectric_model fix_initial                                                 
is_smeared_ion_width 0.8                                                        
mg_defco_fd_order 8                                                             
is_bc_coarseness 10                                                             
is_bc_surface_coarseness 1                                                      
fine_grid_scale 2.0                                                             
%block species                                                                  
N   N   7 4 8.0                                                                 
H   H   1 1 8.0                                                                 
C   C   6 4 8.0                                                                 
S   S  16 9 8.0                                                                 
O   O   8 4 8.0                                                                 
%endblock species                                                               
%block species_pot                                                              
N   N_00.recpot                                                                 
H   H_04.recpot                                                                 
C   C_01.recpot                                                                 
S   S_00.recpot                                                                 
O   O_02.recpot                                                                 
%endblock species_pot                                                           
%block lattice_cart                                                             
137.614   0.000   0.000                                                         
0.000 142.646   0.000                                                           
0.000   0.000   160.855                                                         
%endblock lattice_cart                                                          
%block positions_abs                                                            
     Hash =   000003811043572142195837
%endblock positions_abs                                                         

--------------------------------------------------------------------------------
-------------------------------- END INPUT FILE --------------------------------
--------------------------------------------------------------------------------


 
 ESDF WARNING(1): "kernelcutoff" (esdf_physical) has no units. Assume "bohr".
 ESDF WARNING(2): "kzero" (esdf_physical) has no units. Assume "1/bohr".
 ESDF WARNING(3
 ): "issmearedionwidth" (esdf_physical) has no units. Assume "bohr".
<<<<<<<<<<<<<<<<<<<<<<<<<<<<<<<<< Full system >>>>>>>>>>>>>>>>>>>>>>>>>>>>>>>>>>
<<<<<<<<<<<<<<<<<<<<<<<<< Pseudopotential information >>>>>>>>>>>>>>>>>>>>>>>>>>
File: N_00.recpot [ 2001 points up to Gmax=  52.9 (1/bohr)]
  Atomic number:  7;  ionic charge:  5.000000
    Shell 1: l = 0; rc = 1.48 bohr
File: H_04.recpot [ 2001 points up to Gmax=  52.9 (1/bohr)]
  Atomic number:  1;  ionic charge:  1.000000
    Local potential
File: C_01.recpot [ 2001 points up to Gmax=  52.9 (1/bohr)]
  Atomic number:  6;  ionic charge:  4.000000
    Shell 1: l = 0; rc = 1.48 bohr
File: S_00.recpot [ 2001 points up to Gmax=  52.9 (1/bohr)]
  Atomic number: 16;  ionic charge:  6.000000
    Shell 1: l = 0; rc = 1.90 bohr
    Shell 2: l = 2; rc = 1.84 bohr
File: O_02.recpot [ 2001 points up to Gmax=  52.9 (1/bohr)]
  Atomic number:  8;  ionic charge:  6.000000
    Shell 1: l = 0; rc = 1.31 bohr
<<<<<<<<<<<<<<<<<<<<<<<<<<<<<<<<<<<<<<<<>>>>>>>>>>>>>>>>>>>>>>>>>>>>>>>>>>>>>>>>

-------------------------- Atom counting information ---------------------------
Symbol    Natoms    Nngwfs    Nprojs
  N        236       944       236
  H       1319      1319         0
  C        817      3268       817
  S          6        54        36
  O        240       960       240
.......   ......    ......    ......
Totals:   2618      6545      1329
--------------------------------------------------------------------------------

=============================== PSINC grid sizes ===============================
                      Simulation cell:  273 x 286 x 320
                              FFT-box:   99 x 105 x  99
                                  PPD:    7 x  11 x   1
Grid space d1=  0.504080586081a0 (KE cutoff=  29.89538Eh = 813.49465eV)
Grid space d2=  0.498762237762a0 (KE cutoff=  30.53633Eh = 830.93588eV)
Grid space d3=  0.502671875000a0 (KE cutoff=  30.06317Eh = 818.06059eV)
================================================================================

********************* Fourier parallelisation information **********************
       Coarse grid (whole simulation cell) dimensions:    273   286   320
          Real-space ('12') slabs/node (min max mean):      8     8     8
         Recip-space ('23') slabs/node (min max mean):      3     4     3
********************************************************************************

********************* Fourier parallelisation information **********************
       Double grid (whole simulation cell) dimensions:    546   572   640
          Real-space ('12') slabs/node (min max mean):     16    16    16
         Recip-space ('23') slabs/node (min max mean):      6     7     6
********************************************************************************
ONETEP fine grid is 546 x 572 x 640 gridpoints, 137.6140 x 142.6460 x 160.8550 bohr.
FD multigrid is     545 x 569 x 633 gridpoints, 137.3620 x 141.8979 x 159.0956 bohr.


Calculating local pseudopotential in open BC on a radial grid ...
Discrepancy between calculated realspace psloc and -Z/x on [5a0,255.264a0]:
max |rel. diff| # avg |rel. diff| #  avg rel. diff #  f # pseudopotential file
 0.000296759711    0.000009439468   0.000000085927   54  'N_00.recpot'
 0.000490027943    0.000021572324  -0.000000031900   54  'H_04.recpot'
 0.000320795249    0.000014598087   0.000000111901   54  'C_01.recpot'
 0.000388730920    0.000016096375   0.000000514750   54  'S_00.recpot'
 0.000828383344    0.000035421288   0.000000087443   54  'O_02.recpot'
... done

Atom SCF Calculation for N  : Z (AE atom) =   7 : Z (PS atom) =   5
Config String:
Orbitals (num,occ):  2     2.00 3.00
Orbitals   (num,l):  2        0    1
Real-space Grid (nr,dr,rmax): 1203    0.0066555740    8.0000000000
Spherical Bessel Basis (nsws,lmax,cutoff):   47    1  176.3951722778
Confining potential (l,width,scale):  0    3.0000000000  100.0000000000
Confining potential (l,width,scale):  1    3.0000000000  100.0000000000
  1         -4.7312375307   -3.4155304497    7.0523828109   -1.9351020946
  2         -9.7309464766   -2.0532547791    8.2966052865   -2.2494486027
  3         -9.6627394379   -2.1124926340    8.2327997121   -2.2369778124
  4         -9.6814993499   -2.1215521045    8.2229805960   -2.2365178421
  5         -9.6843326483   -2.1250939529    8.2191374534   -2.2362718126
  6         -9.6859628709   -2.1267894855    8.2172963573   -2.2362066344
  7         -9.6867347035   -2.1276425665    8.2163697352   -2.2361903369
  8         -9.6870802100   -2.1280764625    8.2158983890   -2.2361891460
  9         -9.6872290423   -2.1282977424    8.2156580222   -2.2361920435
 10         -9.6872901988   -2.1284107021    8.2155353368   -2.2361953393
 11         -9.6873135296   -2.1284684031    8.2154726809   -2.2361979819
 12         -9.6873212476   -2.1284978948    8.2154406648   -2.2361998431
 13         -9.6873229586   -2.1285129774    8.2154242957   -2.2362010676
 14         -9.6873226456   -2.1285206957    8.2154159216   -2.2362018403
 15         -9.6873218534   -2.1285246479    8.2154116349   -2.2362023142
 16         -9.6873212599   -2.1285262679    8.2154098784   -2.2362025420
 17         -9.6873207834   -2.1285272564    8.2154088068   -2.2362026955
 18         -9.6873204210   -2.1285278597    8.2154081529   -2.2362027982
 19         -9.6873201550   -2.1285282280    8.2154077538   -2.2362028667
 20         -9.6873199645   -2.1285284529    8.2154075102   -2.2362029121
 21         -9.6873198305   -2.1285285903    8.2154073614   -2.2362029421
 22         -9.6873197377   -2.1285286742    8.2154072705   -2.2362029618
Atom SCF converged after  22 iterations to a total energy of     -9.68731974

Atom SCF Calculation for H  : Z (AE atom) =   1 : Z (PS atom) =   1
Config String:
Orbitals (num,occ):  1     1.00
Orbitals   (num,l):  1        0
Real-space Grid (nr,dr,rmax): 1203    0.0066555740    8.0000000000
Spherical Bessel Basis (nsws,lmax,cutoff):   47    0  176.3951722778
Confining potential (l,width,scale):  0    3.0000000000  100.0000000000
  1         -0.3194257691   -0.2393854593    0.2820953124   -0.2424203209
  2         -0.3951823392   -0.2377116493    0.2886404059   -0.2475147891
  3         -0.4317044583   -0.2352244387    0.2921333887   -0.2514046172
  4         -0.4470703708   -0.2341892222    0.2934391879   -0.2531009782
  5         -0.4532132900   -0.2338556667    0.2938388426   -0.2537313520
  6         -0.4556579251   -0.2337612552    0.2939448584   -0.2539550462
  7         -0.4566418315   -0.2337377355    0.2939680120   -0.2540342273
  8         -0.4570437922   -0.2337331116    0.2939708287   -0.2540627372
  9         -0.4572102946   -0.2337328328    0.2939698291   -0.2540732650
 10         -0.4572800424   -0.2337332404    0.2939687193   -0.2540772588
 11         -0.4573095100   -0.2337335791    0.2939680317   -0.2540788122
 12         -0.4573220379   -0.2337337762    0.2939676699   -0.2540794294
 13         -0.4573273880   -0.2337338775    0.2939674931   -0.2540796787
 14         -0.4573296803   -0.2337339266    0.2939674099   -0.2540797808
 15         -0.4573306647   -0.2337339495    0.2939673718   -0.2540798230
 16         -0.4573310882   -0.2337339601    0.2939673545   -0.2540798406
 17         -0.4573312706   -0.2337339649    0.2939673467   -0.2540798479
 18         -0.4573313493   -0.2337339670    0.2939673433   -0.2540798510
Atom SCF converged after  18 iterations to a total energy of     -0.45733135

Atom SCF Calculation for C  : Z (AE atom) =   6 : Z (PS atom) =   4
Config String:
Orbitals (num,occ):  2     2.00 2.00
Orbitals   (num,l):  2        0    1
Real-space Grid (nr,dr,rmax): 1203    0.0066555740    8.0000000000
Spherical Bessel Basis (nsws,lmax,cutoff):   47    1  176.3951722778
Confining potential (l,width,scale):  0    3.0000000000  100.0000000000
Confining potential (l,width,scale):  1    3.0000000000  100.0000000000
  1         -5.2976922011   -1.3069684169    4.5135249990   -1.4493313817
  2         -5.3721716256   -1.3429755895    4.4750154450   -1.4361613026
  3         -5.3809959565   -1.3617365618    4.4541655428   -1.4305930207
  4         -5.3918938866   -1.3667928461    4.4484735100   -1.4294652294
  5         -5.3956096428   -1.3688539142    4.4461376126   -1.4290734646
  6         -5.3968271862   -1.3696852393    4.4451910874   -1.4289366866
  7         -5.3972028401   -1.3700178062    4.4448112275   -1.4288900460
  8         -5.3973067903   -1.3701500158    4.4446598370   -1.4288749220
  9         -5.3973286940   -1.3702023868    4.4445997329   -1.4288704293
 10         -5.3973289850   -1.3702230869    4.4445759233   -1.4288693188
 11         -5.3973254264   -1.3702312560    4.4445665049   -1.4288691775
 12         -5.3973224003   -1.3702344755    4.4445627836   -1.4288692549
 13         -5.3973208708   -1.3702354890    4.4445616088   -1.4288693270
 14         -5.3973198783   -1.3702360102    4.4445610034   -1.4288693814
 15         -5.3973192535   -1.3702362780    4.4445606917   -1.4288694190
 16         -5.3973188684   -1.3702364155    4.4445605313   -1.4288694437
 17         -5.3973186349   -1.3702364860    4.4445604489   -1.4288694595
 18         -5.3973184951   -1.3702365221    4.4445604065   -1.4288694693
 19         -5.3973184122   -1.3702365405    4.4445603848   -1.4288694753
Atom SCF converged after  19 iterations to a total energy of     -5.39731841

Atom SCF Calculation for S  : Z (AE atom) =  16 : Z (PS atom) =   6
Config String:
Orbitals (num,occ):  3     2.00 4.00 0.00
Orbitals   (num,l):  3        0    1    2
Real-space Grid (nr,dr,rmax): 1203    0.0066555740    8.0000000000
Spherical Bessel Basis (nsws,lmax,cutoff):   47    2  176.3951722778
Confining potential (l,width,scale):  0    3.0000000000  100.0000000000
Confining potential (l,width,scale):  1    3.0000000000  100.0000000000
Confining potential (l,width,scale):  2    3.0000000000  100.0000000000
  1        -12.4735062396   -1.0328741412   10.1554312477   -2.4512393157
  2         -9.9458301913   -2.4607392455    8.3041325857   -2.0306994528
  3        -10.1450417646   -2.2931184565    8.4831893826   -2.0812538287
  4        -10.1528335592   -2.2733105793    8.5050388867   -2.0896035179
  5        -10.1571940363   -2.2633716629    8.5160794258   -2.0939370707
  6        -10.1594380571   -2.2584938667    8.5215163935   -2.0961289008
  7        -10.1605856507   -2.2561081821    8.5241804044   -2.0972291378
  8        -10.1611799191   -2.2549395235    8.5254868240   -2.0977806248
  9        -10.1614918752   -2.2543658586    8.5261285885   -2.0980571586
 10        -10.1616572884   -2.2540839121    8.5264441898   -2.0981959233
 11        -10.1617455602   -2.2539453058    8.5265994231   -2.0982656006
 12        -10.1617928447   -2.2538772062    8.5266757320   -2.0983006047
 13        -10.1618182292   -2.2538437891    8.5267131983   -2.0983181961
 14        -10.1618318741   -2.2538274201    8.5267315620   -2.0983270391
 15        -10.1618392144   -2.2538194197    8.5267405433   -2.0983314852
 16        -10.1618431651   -2.2538155200    8.5267449245   -2.0983337210
 17        -10.1618452923   -2.2538136252    8.5267470551   -2.0983348455
 18        -10.1618464380   -2.2538127080    8.5267480875   -2.0983354110
 19        -10.1618470552   -2.2538122659    8.5267485856   -2.0983356955
 20        -10.1618473878   -2.2538120540    8.5267488248   -2.0983358386
 21        -10.1618475670   -2.2538119530    8.5267489389   -2.0983359106
 22        -10.1618476637   -2.2538119053    8.5267489929   -2.0983359468
Atom SCF converged after  22 iterations to a total energy of    -10.16184766

Atom SCF Calculation for O  : Z (AE atom) =   8 : Z (PS atom) =   6
Config String:
Orbitals (num,occ):  2     2.00 4.00
Orbitals   (num,l):  2        0    1
Real-space Grid (nr,dr,rmax): 1203    0.0066555740    8.0000000000
Spherical Bessel Basis (nsws,lmax,cutoff):   47    1  176.3951722778
Confining potential (l,width,scale):  0    3.0000000000  100.0000000000
Confining potential (l,width,scale):  1    3.0000000000  100.0000000000
  1         -1.8735052164   -7.5539365035   10.1554312477   -2.4512393157
  2        -16.0318313751   -3.1285771268   13.6395848164   -3.2358799643
  3        -15.9524020423   -3.0762819706   13.6967272503   -3.2536856837
  4        -15.8521515939   -3.0781493909   13.6951909330   -3.2561700440
  5        -15.8357139793   -3.0748501933   13.6988803334   -3.2580493133
  6        -15.8246052853   -3.0740779781   13.6997881576   -3.2588327446
  7        -15.8189019501   -3.0737449687   13.7001869911   -3.2592378801
  8        -15.8159785510   -3.0736026016   13.7003615168   -3.2594475790
  9        -15.8144776168   -3.0735437994   13.7004360379   -3.2595560735
 10        -15.8137058024   -3.0735207882   13.7004667348   -3.2596122456
 11        -15.8133083127   -3.0735125946   13.7004786868   -3.2596413656
 12        -15.8131032938   -3.0735102195   13.7004828997   -3.2596564858
 13        -15.8129973902   -3.0735099286   13.7004840891   -3.2596643505
 14        -15.8129426040   -3.0735102506   13.7004842061   -3.2596684489
 15        -15.8129142203   -3.0735106556   13.7004840157   -3.2596705887
 16        -15.8128994940   -3.0735109855   13.7004837906   -3.2596717080
 17        -15.8128918425   -3.0735112169   13.7004836103   -3.2596722946
 18        -15.8128878614   -3.0735113674   13.7004834848   -3.2596726026
 19        -15.8128857871   -3.0735114608   13.7004834035   -3.2596727646
 20        -15.8128847048   -3.0735115170   13.7004833533   -3.2596728500
 21        -15.8128841394   -3.0735115501   13.7004833231   -3.2596728951
 22        -15.8128838436   -3.0735115693   13.7004833054   -3.2596729190
 23        -15.8128836887   -3.0735115802   13.7004832951   -3.2596729316
 24        -15.8128836074   -3.0735115864   13.7004832893   -3.2596729383
Atom SCF converged after  24 iterations to a total energy of    -15.81288361

========================== Calculation in vacuum ==============================
= Adjusting the following parameters: 
= is_implicit_solvent: F
= is_include_apolar: F
= write_denskern: T
= write_tightbox_ngwfs: T
= restart read filename prefix: ""
= restart write filename prefix: "vacuum_"
===============================================================================

Determining parallel strategy ...
... using space-filling curve
... NGWF load balancing: max    164;  min    163;  average    164
... Projector load balancing: max     36;  min     32;  average     33
... done
Calculating direct Ion-Ion energy ...
Ion-Ion Energy        :    836836.92345560737886
======================= Empirical dispersion information =======================
Model : Elstner
Dispersion Correction Energy: -0.32675714E+01 Hartree
================================================================================
Basis initialisation ...... NGWF spheres initialised
... Projector spheres initialised
... NGWF tight boxes initialised
... Tight-boxes gathered
... NGWF basis size (local,global):    1123484  44937067
... Nonlocal pseudopotential projector initialisation
... done

========================== Sparse matrix information ===========================
                        Overlap matrix filling:   6.72%
                        Density kernel filling: 100.00%
              NGWF-Proj overlap matrix filling:   1.76%
                    Hamiltonian matrix filling:   7.55%
                  NGWF diagonal matrix filling:   0.05%
                             KS matrix filling: 100.00% 
                           KSKS matrix filling: 100.00% 
================================================================================

Sparse matrix initialisation ... done

Generating smeared ion density ... done
Smeared ion self correction:     -14534.963309
Smeared ion non-self correction: -836788.559651
NGWF initialisation ...... done
============ Calculation of NGWF S^-1 using Hotelling algorithm ================ 
         Iteration  |  Frobenius norm and Maximum abs value    (of I-S*S_n^-1)   
               1       0.78888554E+02     0.98395149E+00
               2       0.77152388E+02     0.96829537E+00
               3       0.74300014E+02     0.93809079E+00
               4       0.70172982E+02     0.88179195E+00
               5       0.64956783E+02     0.78468592E+00
               6       0.59027607E+02     0.71040957E+00
               7       0.52977746E+02     0.67497122E+00
               8       0.47378750E+02     0.64878741E+00
               9       0.41466670E+02     0.61278437E+00
              10       0.33510207E+02     0.54905056E+00
              11       0.23128241E+02     0.45068472E+00
              12       0.12320942E+02     0.31862714E+00
              13       0.43463048E+01     0.16162335E+00
              14       0.77456748E+00     0.44948503E-01
              15       0.45864244E-01     0.53072596E-02
              16       0.38805522E-03     0.80962142E-04
              17       0.63191975E-07     0.19437443E-07
              18       0.10455428E-12     0.46629367E-14
================================================================================
Calculating local pseudopotential in open BC on the fine real space grid ...
... done

MG BCs: +ve charge blocks (gridpoints):     20678 (   16314250).
MG BCs: -ve charge blocks (gridpoints):      8157 (    1102180).
MG BCs:     Elided blocks (gridpoints):    179962 (  178880035).
MG BCs: Computational effort saved:  99.9853%.
MG BCs: Charge after coarse-graining:           -9.0002276.
MG DL_MG: Calling solver with defect correction order = 8
MG DL_MG: Solver finished
MG Hartree energy from (\int phi*rho dr):              1471.759146
MG Hartree energy from (\int eps (grad phi)^2 dr):     1471.147510
MG Discrepancy due to finite box and discretization:     -0.611636 (  -0.04156%)
MG Correction to account for finite box:                  0.464167
MG Remaining discrepancy, due to discretization:         -0.147469 (  -0.01002%)
Up spin density kernel initialisation ... 
======= Optimisation of K by Palser-Manolopoulos canonical purification ======== 
         Iteration  |  Band structure energy |    c_n   
               1       -2592.81071495935157    0.5273755
               2       -2769.74435464585167    0.5174029
               3       -2951.70520516948636    0.5154331
               4       -3104.41895471562111    0.5285500
               5       -3199.05028354607384    0.5640686
               6       -3238.93632560863125    0.6096231
               7       -3252.45988430138686    0.6218939
               8       -3258.30237506698631    0.6196645
               9       -3261.15205817348988    0.6338451
              10       -3262.33390594226148    0.6654226
              11       -3262.77888467393859    0.6923774
              12       -3262.96465438701580    0.6856414
              13       -3263.06539014780083    0.6307045
              14       -3263.13455368531413    0.5484422
              15       -3263.17657246330782    0.4596097
              16       -3263.18752396797663    0.4120217
              17       -3263.18898438746965    0.4074576
              18       -3263.18982866433544    0.4349192
              19       -3263.19038677715935    0.4761902
              20       -3263.19073714983506    0.4968269
              21       -3263.19085109521347    0.4999443
              22       -3263.19086082337253    0.5000001
              23       -3263.19086088980021    0.5000001
Termination criterion satisfied: band energy change below threshold.
Final occupancy bounds: [    0.00000000000000:    0.99999999999997]
Closest occupancy to 0.5:     0.99999999999979
================================================================================
... done

Writing density kernel to file "complex_32401.vacuum_dkn" ... done

>>> Optimising kernel for current NGWFs:
   Initial electron number for spin 1:    7234.00000000
     Final electron number for spin 1:    7234.00000000

=================== Penalty functional idempotency correction ==================
 RMS occupancy error at iteration   1:  0.000000 (step -0.5000 Ne1=   7234.0000)
            Final RMS occupancy error   :  0.000000 (Ne1=   7234.0000)
               Final occupancy bounds   : [ -0.0000,  1.0000]
================================================================================

................................................................................
<<<<<<<<<<<<<< LNV (Original version) density kernel optimisation >>>>>>>>>>>>>>
~~~~~~~~~~~~~~~~~~~~~~~~~~~~~~~~~~~~~~~~~~~~~~~~~~~~~~~~~~~~~~~~~~~~~~~~~~~~~~~~
   iter  |      energy (Eh)       | rms gradient |  commutator  |   dE (Eh)
MG BCs: +ve charge blocks (gridpoints):     31454 (   17443071).
MG BCs: -ve charge blocks (gridpoints):      8558 (    1136615).
MG BCs:     Elided blocks (gridpoints):    169177 (  177716779).
MG BCs: Computational effort saved:  99.9796%.
MG BCs: Charge after coarse-graining:           -9.0009662.
MG DL_MG: Calling solver with defect correction order = 8
MG DL_MG: Solver finished
MG Hartree energy from (\int phi*rho dr):              1424.209983
MG Hartree energy from (\int eps (grad phi)^2 dr):     1423.549605
MG Discrepancy due to finite box and discretization:     -0.660378 (  -0.04637%)
MG Correction to account for finite box:                  0.470617
MG Remaining discrepancy, due to discretization:         -0.189761 (  -0.01332%)
      ideal mu1:      -0.715405484680
             Q0:  -11569.509642926278
             G0:    -143.315788432366
   RMS gradient:       0.001829099655
MG BCs: +ve charge blocks (gridpoints):     31384 (   17526147).
MG BCs: -ve charge blocks (gridpoints):      8441 (    1114946).
MG BCs:     Elided blocks (gridpoints):    169246 (  177655372).
MG BCs: Computational effort saved:  99.9797%.
MG BCs: Charge after coarse-graining:           -9.0009881.
MG DL_MG: Calling solver with defect correction order = 8
MG DL_MG: Solver finished
MG Hartree energy from (\int phi*rho dr):              1450.300582
MG Hartree energy from (\int eps (grad phi)^2 dr):     1449.656781
MG Discrepancy due to finite box and discretization:     -0.643801 (  -0.04439%)
MG Correction to account for finite box:                  0.469578
MG Remaining discrepancy, due to discretization:         -0.174223 (  -0.01201%)
     Trial step:       0.500000000000
             Q1:  -11580.595933888108
 Quadratic coef:      60.571603254353
 Linear coef   :     -71.657894216183
           Qmin:  -11590.702964250197
Quadratic minimum step length (  0.295756965171) accepted
    Initial Ne1:    7234.00000000
      Final Ne1:    7234.00000000

=================== Penalty functional idempotency correction ==================
 RMS occupancy error at iteration   1:  0.003344 (step -0.4886 Ne1=   7234.0000)
 RMS occupancy error at iteration   2:  0.000025 (step -0.5000 Ne1=   7234.0000)
            Final RMS occupancy error   :  0.000000 (Ne1=   7234.0000)
               Final occupancy bounds   : [  0.0000,  1.0000]
================================================================================

    1        -1.156950964293E+04     1.8291E-03     1.6549E-03
MG BCs: +ve charge blocks (gridpoints):     31408 (   17494104).
MG BCs: -ve charge blocks (gridpoints):      8497 (    1123942).
MG BCs:     Elided blocks (gridpoints):    169220 (  177678419).
MG BCs: Computational effort saved:  99.9797%.
MG BCs: Charge after coarse-graining:           -9.0009791.
MG DL_MG: Calling solver with defect correction order = 8
MG DL_MG: Solver finished
MG Hartree energy from (\int phi*rho dr):              1431.722930
MG Hartree energy from (\int eps (grad phi)^2 dr):     1431.073326
MG Discrepancy due to finite box and discretization:     -0.649604 (  -0.04537%)
MG Correction to account for finite box:                  0.469855
MG Remaining discrepancy, due to discretization:         -0.179750 (  -0.01255%)
      ideal mu1:      -0.756902313464
             Q0:  -11591.099588000216
             G0:     -11.761065224915
   RMS gradient:       0.000520469062
MG BCs: +ve charge blocks (gridpoints):     31393 (   17511727).
MG BCs: -ve charge blocks (gridpoints):      8475 (    1118495).
MG BCs:     Elided blocks (gridpoints):    169236 (  177666243).
MG BCs: Computational effort saved:  99.9797%.
MG BCs: Charge after coarse-graining:           -9.0009828.
MG DL_MG: Calling solver with defect correction order = 8
MG DL_MG: Solver finished
MG Hartree energy from (\int phi*rho dr):              1437.342710
MG Hartree energy from (\int eps (grad phi)^2 dr):     1436.696814
MG Discrepancy due to finite box and discretization:     -0.645896 (  -0.04494%)
MG Correction to account for finite box:                  0.469326
MG Remaining discrepancy, due to discretization:         -0.176571 (  -0.01228%)
     Trial step:       0.384549714062
             Q1:  -11593.856951664668
 Quadratic coef:       1.765350604859
 Linear coef   :      -4.522714269310
           Qmin:  -11593.996313487141
Quadratic minimum step length (  0.492595769436) accepted
    Initial Ne1:    7233.99991751
      Final Ne1:    7234.00000000

=================== Penalty functional idempotency correction ==================
 RMS occupancy error at iteration   1:  0.001752 (step -0.4934 Ne1=   7234.0000)
 RMS occupancy error at iteration   2:  0.000009 (step -0.5000 Ne1=   7234.0000)
            Final RMS occupancy error   :  0.000000 (Ne1=   7234.0000)
               Final occupancy bounds   : [  0.0000,  1.0000]
================================================================================

    2        -1.159109958800E+04     5.2047E-04     4.7090E-04    -2.1590E+01
MG BCs: +ve charge blocks (gridpoints):     31390 (   17516829).
MG BCs: -ve charge blocks (gridpoints):      8467 (    1116885).
MG BCs:     Elided blocks (gridpoints):    169239 (  177662751).
MG BCs: Computational effort saved:  99.9797%.
MG BCs: Charge after coarse-graining:           -9.0009838.
MG DL_MG: Calling solver with defect correction order = 8
MG DL_MG: Solver finished
MG Hartree energy from (\int phi*rho dr):              1438.964848
MG Hartree energy from (\int eps (grad phi)^2 dr):     1438.319917
MG Discrepancy due to finite box and discretization:     -0.644931 (  -0.04482%)
MG Correction to account for finite box:                  0.469191
MG Remaining discrepancy, due to discretization:         -0.175740 (  -0.01221%)
      ideal mu1:      -0.779515193231
             Q0:  -11594.031019704184
             G0:      -1.828107229176
   RMS gradient:       0.000205339979
MG BCs: +ve charge blocks (gridpoints):     31401 (   17516239).
MG BCs: -ve charge blocks (gridpoints):      8477 (    1118073).
MG BCs:     Elided blocks (gridpoints):    169228 (  177662153).
MG BCs: Computational effort saved:  99.9797%.
MG BCs: Charge after coarse-graining:           -9.0009833.
MG DL_MG: Calling solver with defect correction order = 8
MG DL_MG: Solver finished
MG Hartree energy from (\int phi*rho dr):              1436.784956
MG Hartree energy from (\int eps (grad phi)^2 dr):     1436.140395
MG Discrepancy due to finite box and discretization:     -0.644561 (  -0.04486%)
MG Correction to account for finite box:                  0.469017
MG Remaining discrepancy, due to discretization:         -0.175544 (  -0.01222%)
     Trial step:       0.435232767936
             Q1:  -11594.489517229260
 Quadratic coef:       0.337154644361
 Linear coef   :      -0.795652169438
           Qmin:  -11594.500435138109
Quadratic minimum step length (  0.513553501056) accepted
    Initial Ne1:    7233.99996826
      Final Ne1:    7234.00000000

=================== Penalty functional idempotency correction ==================
 RMS occupancy error at iteration   1:  0.000574 (step -0.4977 Ne1=   7234.0000)
 RMS occupancy error at iteration   2:  0.000001 (step -0.5000 Ne1=   7234.0000)
            Final RMS occupancy error   :  0.000000 (Ne1=   7234.0000)
               Final occupancy bounds   : [  0.0000,  1.0000]
================================================================================

    3        -1.159403101970E+04     2.0534E-04     1.8578E-04    -2.9314E+00
MG BCs: +ve charge blocks (gridpoints):     31402 (   17516154).
MG BCs: -ve charge blocks (gridpoints):      8482 (    1118252).
MG BCs:     Elided blocks (gridpoints):    169227 (  177662059).
MG BCs: Computational effort saved:  99.9797%.
MG BCs: Charge after coarse-graining:           -9.0009833.
MG DL_MG: Calling solver with defect correction order = 8
MG DL_MG: Solver finished
MG Hartree energy from (\int phi*rho dr):              1436.400855
MG Hartree energy from (\int eps (grad phi)^2 dr):     1435.756352
MG Discrepancy due to finite box and discretization:     -0.644503 (  -0.04487%)
MG Correction to account for finite box:                  0.468986
MG Remaining discrepancy, due to discretization:         -0.175517 (  -0.01222%)
      ideal mu1:      -0.780308793275
             Q0:  -11594.504612441058
             G0:      -0.433017799692
   RMS gradient:       0.000100045877
MG BCs: +ve charge blocks (gridpoints):     31401 (   17517023).
MG BCs: -ve charge blocks (gridpoints):      8476 (    1118006).
MG BCs:     Elided blocks (gridpoints):    169228 (  177661436).
MG BCs: Computational effort saved:  99.9797%.
MG BCs: Charge after coarse-graining:           -9.0009835.
MG DL_MG: Calling solver with defect correction order = 8
MG DL_MG: Solver finished
MG Hartree energy from (\int phi*rho dr):              1437.521602
MG Hartree energy from (\int eps (grad phi)^2 dr):     1436.877064
MG Discrepancy due to finite box and discretization:     -0.644538 (  -0.04484%)
MG Correction to account for finite box:                  0.468926
MG Remaining discrepancy, due to discretization:         -0.175612 (  -0.01222%)
     Trial step:       0.472774059935
             Q1:  -11594.602912910283
 Quadratic coef:       0.106419113961
 Linear coef   :      -0.204719583185
           Qmin:  -11594.603067751808
Quadratic minimum step length (  0.454740247724) accepted
    Initial Ne1:    7233.99999321
      Final Ne1:    7234.00000000

=================== Penalty functional idempotency correction ==================
 RMS occupancy error at iteration   1:  0.000186 (step -0.4992 Ne1=   7234.0000)
            Final RMS occupancy error   :  0.000000 (Ne1=   7234.0000)
               Final occupancy bounds   : [ -0.0000,  1.0000]
================================================================================

    4        -1.159450461244E+04     1.0005E-04     9.0517E-05    -4.7359E-01
MG BCs: +ve charge blocks (gridpoints):     31402 (   17517009).
MG BCs: -ve charge blocks (gridpoints):      8476 (    1118025).
MG BCs:     Elided blocks (gridpoints):    169227 (  177661431).
MG BCs: Computational effort saved:  99.9797%.
MG BCs: Charge after coarse-graining:           -9.0009835.
MG DL_MG: Calling solver with defect correction order = 8
MG DL_MG: Solver finished
MG Hartree energy from (\int phi*rho dr):              1437.478798
MG Hartree energy from (\int eps (grad phi)^2 dr):     1436.834261
MG Discrepancy due to finite box and discretization:     -0.644536 (  -0.04484%)
MG Correction to account for finite box:                  0.468928
MG Remaining discrepancy, due to discretization:         -0.175608 (  -0.01222%)
      ideal mu1:      -0.780316567670
             Q0:  -11594.603489688248
             G0:      -0.103077191962
   RMS gradient:       0.000048953368
MG BCs: +ve charge blocks (gridpoints):     31401 (   17517123).
MG BCs: -ve charge blocks (gridpoints):      8475 (    1117879).
MG BCs:     Elided blocks (gridpoints):    169228 (  177661463).
MG BCs: Computational effort saved:  99.9797%.
MG BCs: Charge after coarse-graining:           -9.0009835.
MG DL_MG: Calling solver with defect correction order = 8
MG DL_MG: Solver finished
MG Hartree energy from (\int phi*rho dr):              1437.908888
MG Hartree energy from (\int eps (grad phi)^2 dr):     1437.264239
MG Discrepancy due to finite box and discretization:     -0.644650 (  -0.04483%)
MG Correction to account for finite box:                  0.468907
MG Remaining discrepancy, due to discretization:         -0.175743 (  -0.01222%)
     Trial step:       0.463669486954
             Q1:  -11594.628473395249
 Quadratic coef:       0.022810041713
 Linear coef   :      -0.047793748714
           Qmin:  -11594.628525179687
Quadratic minimum step length (  0.485761999564) accepted
    Initial Ne1:    7234.00167167
      Final Ne1:    7234.00000000

=================== Penalty functional idempotency correction ==================
 RMS occupancy error at iteration   1:  0.000064 (step -0.4997 Ne1=   7234.0000)
            Final RMS occupancy error   :  0.000000 (Ne1=   7234.0000)
               Final occupancy bounds   : [ -0.0000,  1.0000]
================================================================================

    5        -1.159460348969E+04     4.8953E-05     4.4291E-05    -9.8877E-02
MG BCs: +ve charge blocks (gridpoints):     31401 (   17517126).
MG BCs: -ve charge blocks (gridpoints):      8475 (    1117876).
MG BCs:     Elided blocks (gridpoints):    169228 (  177661463).
MG BCs: Computational effort saved:  99.9797%.
MG BCs: Charge after coarse-graining:           -9.0009835.
MG DL_MG: Calling solver with defect correction order = 8
MG DL_MG: Solver finished
MG Hartree energy from (\int phi*rho dr):              1437.929422
MG Hartree energy from (\int eps (grad phi)^2 dr):     1437.284767
MG Discrepancy due to finite box and discretization:     -0.644655 (  -0.04483%)
MG Correction to account for finite box:                  0.468906
MG Remaining discrepancy, due to discretization:         -0.175749 (  -0.01222%)
      ideal mu1:      -0.780360487859
             Q0:  -11594.628571805661
             G0:      -0.029292668382
   RMS gradient:       0.000026117850
MG BCs: +ve charge blocks (gridpoints):     31402 (   17516790).
MG BCs: -ve charge blocks (gridpoints):      8476 (    1118086).
MG BCs:     Elided blocks (gridpoints):    169227 (  177661589).
MG BCs: Computational effort saved:  99.9797%.
MG BCs: Charge after coarse-graining:           -9.0009833.
MG DL_MG: Calling solver with defect correction order = 8
MG DL_MG: Solver finished
MG Hartree energy from (\int phi*rho dr):              1437.320493
MG Hartree energy from (\int eps (grad phi)^2 dr):     1436.675846
MG Discrepancy due to finite box and discretization:     -0.644647 (  -0.04485%)
MG Correction to account for finite box:                  0.468905
MG Remaining discrepancy, due to discretization:         -0.175742 (  -0.01223%)
     Trial step:       0.474587207076
             Q1:  -11594.637596029090
 Quadratic coef:       0.004877702246
 Linear coef   :      -0.013901925675
           Qmin:  -11594.638477265637
Quadratic minimum step length (  0.676309842908) accepted
    Initial Ne1:    7234.00097130
      Final Ne1:    7234.00000000

=================== Penalty functional idempotency correction ==================
 RMS occupancy error at iteration   1:  0.000035 (step -0.4998 Ne1=   7234.0000)
            Final RMS occupancy error   :  0.000000 (Ne1=   7234.0000)
               Final occupancy bounds   : [ -0.0000,  1.0000]
================================================================================

    6        -1.159462857181E+04     2.6118E-05     2.3630E-05    -2.5082E-02
MG BCs: +ve charge blocks (gridpoints):     31402 (   17516616).
MG BCs: -ve charge blocks (gridpoints):      8476 (    1118190).
MG BCs:     Elided blocks (gridpoints):    169227 (  177661659).
MG BCs: Computational effort saved:  99.9797%.
MG BCs: Charge after coarse-graining:           -9.0009833.
MG DL_MG: Calling solver with defect correction order = 8
MG DL_MG: Solver finished
MG Hartree energy from (\int phi*rho dr):              1437.061125
MG Hartree energy from (\int eps (grad phi)^2 dr):     1436.416481
MG Discrepancy due to finite box and discretization:     -0.644644 (  -0.04486%)
MG Correction to account for finite box:                  0.468904
MG Remaining discrepancy, due to discretization:         -0.175739 (  -0.01223%)
      ideal mu1:      -0.780121410698
             Q0:  -11594.638485439005
             G0:      -0.014189255123
   RMS gradient:       0.000018199948
MG BCs: +ve charge blocks (gridpoints):     31401 (   17517055).
MG BCs: -ve charge blocks (gridpoints):      8477 (    1117926).
MG BCs:     Elided blocks (gridpoints):    169228 (  177661484).
MG BCs: Computational effort saved:  99.9797%.
MG BCs: Charge after coarse-graining:           -9.0009834.
MG DL_MG: Calling solver with defect correction order = 8
MG DL_MG: Solver finished
MG Hartree energy from (\int phi*rho dr):              1437.601365
MG Hartree energy from (\int eps (grad phi)^2 dr):     1436.956749
MG Discrepancy due to finite box and discretization:     -0.644616 (  -0.04484%)
MG Correction to account for finite box:                  0.468895
MG Remaining discrepancy, due to discretization:         -0.175721 (  -0.01222%)
     Trial step:       0.566540377611
             Q1:  -11594.642104727100
 Quadratic coef:       0.004419497860
 Linear coef   :      -0.008038785955
           Qmin:  -11594.642140949296
Quadratic minimum step length (  0.515250484876) accepted
    Initial Ne1:    7234.00012593
      Final Ne1:    7234.00000000

=================== Penalty functional idempotency correction ==================
 RMS occupancy error at iteration   1:  0.000002 (step -0.5000 Ne1=   7234.0000)
            Final RMS occupancy error   :  0.000000 (Ne1=   7234.0000)
               Final occupancy bounds   : [  0.0000,  1.0000]
================================================================================

    7        -1.159463848544E+04     1.8200E-05     1.6466E-05    -9.9136E-03
MG BCs: +ve charge blocks (gridpoints):     31401 (   17517042).
MG BCs: -ve charge blocks (gridpoints):      8477 (    1117935).
MG BCs:     Elided blocks (gridpoints):    169228 (  177661488).
MG BCs: Computational effort saved:  99.9797%.
MG BCs: Charge after coarse-graining:           -9.0009834.
MG DL_MG: Calling solver with defect correction order = 8
MG DL_MG: Solver finished
MG Hartree energy from (\int phi*rho dr):              1437.552386
MG Hartree energy from (\int eps (grad phi)^2 dr):     1436.907768
MG Discrepancy due to finite box and discretization:     -0.644619 (  -0.04484%)
MG Correction to account for finite box:                  0.468896
MG Remaining discrepancy, due to discretization:         -0.175723 (  -0.01222%)
      ideal mu1:      -0.780416507451
             Q0:  -11594.642141063465
             G0:      -0.008359706041
   RMS gradient:       0.000013970257
MG BCs: +ve charge blocks (gridpoints):     31403 (   17517097).
MG BCs: -ve charge blocks (gridpoints):      8476 (    1117934).
MG BCs:     Elided blocks (gridpoints):    169226 (  177661434).
MG BCs: Computational effort saved:  99.9797%.
MG BCs: Charge after coarse-graining:           -9.0009834.
MG DL_MG: Calling solver with defect correction order = 8
MG DL_MG: Solver finished
MG Hartree energy from (\int phi*rho dr):              1437.608129
MG Hartree energy from (\int eps (grad phi)^2 dr):     1436.963545
MG Discrepancy due to finite box and discretization:     -0.644584 (  -0.04484%)
MG Correction to account for finite box:                  0.468886
MG Remaining discrepancy, due to discretization:         -0.175698 (  -0.01222%)
     Trial step:       0.540287149825
             Q1:  -11594.645485047367
 Quadratic coef:       0.001172657847
 Linear coef   :      -0.004516641750
           Qmin:  -11594.646490169378
Quadratic minimum step length (  1.040492546311) accepted
    Initial Ne1:    7234.00014884
      Final Ne1:    7234.00000000

=================== Penalty functional idempotency correction ==================
 RMS occupancy error at iteration   1:  0.000024 (step -0.4992 Ne1=   7234.0000)
            Final RMS occupancy error   :  0.000000 (Ne1=   7234.0000)
               Final occupancy bounds   : [ -0.0000,  1.0000]
================================================================================

    8        -1.159464214106E+04     1.3970E-05     1.2640E-05    -3.6556E-03
MG BCs: +ve charge blocks (gridpoints):     31403 (   17517183).
MG BCs: -ve charge blocks (gridpoints):      8475 (    1117890).
MG BCs:     Elided blocks (gridpoints):    169226 (  177661392).
MG BCs: Computational effort saved:  99.9797%.
MG BCs: Charge after coarse-graining:           -9.0009834.
MG DL_MG: Calling solver with defect correction order = 8
MG DL_MG: Solver finished
MG Hartree energy from (\int phi*rho dr):              1437.658222
MG Hartree energy from (\int eps (grad phi)^2 dr):     1437.013671
MG Discrepancy due to finite box and discretization:     -0.644550 (  -0.04483%)
MG Correction to account for finite box:                  0.468875
MG Remaining discrepancy, due to discretization:         -0.175675 (  -0.01222%)
      ideal mu1:      -0.780429219918
             Q0:  -11594.646480172523
             G0:      -0.012462796850
   RMS gradient:       0.000017094678
MG BCs: +ve charge blocks (gridpoints):     31403 (   17517063).
MG BCs: -ve charge blocks (gridpoints):      8476 (    1118028).
MG BCs:     Elided blocks (gridpoints):    169226 (  177661374).
MG BCs: Computational effort saved:  99.9797%.
MG BCs: Charge after coarse-graining:           -9.0009834.
MG DL_MG: Calling solver with defect correction order = 8
MG DL_MG: Solver finished
MG Hartree energy from (\int phi*rho dr):              1437.354669
MG Hartree energy from (\int eps (grad phi)^2 dr):     1436.710191
MG Discrepancy due to finite box and discretization:     -0.644478 (  -0.04484%)
MG Correction to account for finite box:                  0.468846
MG Remaining discrepancy, due to discretization:         -0.175633 (  -0.01222%)
     Trial step:       0.749776468196
             Q1:  -11594.652540699462
 Quadratic coef:       0.003283784867
 Linear coef   :      -0.009344311806
           Qmin:  -11594.653127697153
Quadratic minimum step length (  1.066778943791) accepted
    Initial Ne1:    7234.00049079
      Final Ne1:    7234.00000000

=================== Penalty functional idempotency correction ==================
 RMS occupancy error at iteration   1:  0.000156 (step -0.4943 Ne1=   7234.0000)
 RMS occupancy error at iteration   2:  0.000001 (step -0.5000 Ne1=   7234.0000)
            Final RMS occupancy error   :  0.000000 (Ne1=   7234.0000)
               Final occupancy bounds   : [  0.0000,  1.0000]
================================================================================

    9        -1.159464648017E+04     1.7095E-05     1.5467E-05    -4.3391E-03
MG BCs: +ve charge blocks (gridpoints):     31401 (   17517025).
MG BCs: -ve charge blocks (gridpoints):      8476 (    1118098).
MG BCs:     Elided blocks (gridpoints):    169228 (  177661342).
MG BCs: Computational effort saved:  99.9797%.
MG BCs: Charge after coarse-graining:           -9.0009833.
MG DL_MG: Calling solver with defect correction order = 8
MG DL_MG: Solver finished
MG Hartree energy from (\int phi*rho dr):              1437.222402
MG Hartree energy from (\int eps (grad phi)^2 dr):     1436.577957
MG Discrepancy due to finite box and discretization:     -0.644445 (  -0.04484%)
MG Correction to account for finite box:                  0.468831
MG Remaining discrepancy, due to discretization:         -0.175614 (  -0.01222%)
      ideal mu1:      -0.780012402273
   10        -1.159465303759E+04     2.0732E-05     1.8757E-05    -6.5574E-03
Finished density kernel iterations (  10)

Writing density kernel to file "complex_32401.vacuum_dkn" ... done


>>> Density kernel optimised for the current NGWF basis:
     ~~~~~~~~~~~~~~~~~~~~~~~~~~~~~~~~~~~~~~~~~~~~~~~~~~~~~~~~~~~
     Total energy                =  -1.15946530375893E+04  Eh
     Estimated bandgap           =  -2.8897E-01  Eh
     RMS occupancy error         =   1.8884E-11
     [H,K] commutator            =   1.8757E-05
     Occupancy bounds            = [  0.000:  1.000]
     ~~~~~~~~~~~~~~~~~~~~~~~~~~~~~~~~~~~~~~~~~~~~~~~~~~~~~~~~~~~




################################################################################
########################### NGWF CG iteration  001 #############################
################################################################################
****** Reciprocal space K.E. preconditioning with k_zero =  3.5000 a0^-1 *******

>>> Checking for convergence of NGWFs:   NOT CONVERGED
  ========================================================================
         NGWF RMS gradient =  1.5632E-03 >  2.0000E-06  | above tolerance
  ========================================================================

>>> Improving NGWFs using line search:
============ Calculation of NGWF S^-1 using Hotelling algorithm ================ 
         Iteration  |  Frobenius norm and Maximum abs value    (of I-S*S_n^-1)   
               1       0.19311306E+00     0.51117218E-02
               2       0.86319623E-03     0.39364765E-04
               3       0.29363991E-07     0.23926755E-08
               4       0.12900838E-12     0.66613381E-14
================================================================================
MG BCs: +ve charge blocks (gridpoints):     30939 (   17461185).
MG BCs: -ve charge blocks (gridpoints):      8478 (    1117922).
MG BCs:     Elided blocks (gridpoints):    169694 (  177717358).
MG BCs: Computational effort saved:  99.9799%.
MG BCs: Charge after coarse-graining:           -9.0009879.
MG DL_MG: Calling solver with defect correction order = 8
MG DL_MG: Solver finished
MG Hartree energy from (\int phi*rho dr):              1405.753385
MG Hartree energy from (\int eps (grad phi)^2 dr):     1405.109695
MG Discrepancy due to finite box and discretization:     -0.643690 (  -0.04579%)
MG Correction to account for finite box:                  0.468783
MG Remaining discrepancy, due to discretization:         -0.174907 (  -0.01244%)
============ Calculation of NGWF S^-1 using Hotelling algorithm ================ 
         Iteration  |  Frobenius norm and Maximum abs value    (of I-S*S_n^-1)   
               1       0.18589904E+01     0.42480340E-01
               2       0.71573279E-01     0.25070964E-02
               3       0.14364859E-03     0.96889461E-05
               4       0.10435339E-08     0.14985135E-09
               5       0.10981005E-12     0.51070259E-14
================================================================================
------------------------------- NGWF line search -------------------------------
RMS gradient                =       0.00156322687958
Trial step length           =               0.122474
Gradient along search dir.  =       -271.41517487312
Functional at step 0        =  -11594.65303758927621
Functional at step 1        =  -11625.40335687855259
Functional predicted        =  -11705.54644604622627
Selected quadratic step     =               0.817150
--------------------------- NGWF line search finished --------------------------
                                               
Writing NGWFs to file "complex_32401.vacuum_tightbox_ngwfs"....  done

>>> Optimising kernel for current NGWFs:
   Initial electron number for spin 1:    7268.55910580
     Final electron number for spin 1:    7234.00000000

=================== Penalty functional idempotency correction ==================
 RMS occupancy error at iteration   1:  0.004239 (step -0.4863 Ne1=   7234.0000)
 RMS occupancy error at iteration   2:  0.000068 (step -0.5003 Ne1=   7234.0000)
            Final RMS occupancy error   :  0.000000 (Ne1=   7234.0000)
               Final occupancy bounds   : [  0.0000,  1.0000]
================================================================================

................................................................................
<<<<<<<<<<<<<< LNV (Original version) density kernel optimisation >>>>>>>>>>>>>>
~~~~~~~~~~~~~~~~~~~~~~~~~~~~~~~~~~~~~~~~~~~~~~~~~~~~~~~~~~~~~~~~~~~~~~~~~~~~~~~~
   iter  |      energy (Eh)       | rms gradient |  commutator  |   dE (Eh)
MG BCs: +ve charge blocks (gridpoints):     24868 (   17186988).
MG BCs: -ve charge blocks (gridpoints):      8603 (    1101323).
MG BCs:     Elided blocks (gridpoints):    175772 (  178008154).
MG BCs: Computational effort saved:  99.9829%.
MG BCs: Charge after coarse-graining:           -9.0006628.
MG DL_MG: Calling solver with defect correction order = 8
MG DL_MG: Solver finished
MG Hartree energy from (\int phi*rho dr):              1249.744820
MG Hartree energy from (\int eps (grad phi)^2 dr):     1249.101063
MG Discrepancy due to finite box and discretization:     -0.643757 (  -0.05151%)
MG Correction to account for finite box:                  0.468551
MG Remaining discrepancy, due to discretization:         -0.175206 (  -0.01402%)
      ideal mu1:      -0.718791196234
             Q0:  -11704.731674342300
             G0:      -9.842372881269
   RMS gradient:       0.000479336231
MG BCs: +ve charge blocks (gridpoints):     24932 (   17205426).
MG BCs: -ve charge blocks (gridpoints):      8578 (    1096871).
MG BCs:     Elided blocks (gridpoints):    175708 (  177994168).
MG BCs: Computational effort saved:  99.9829%.
MG BCs: Charge after coarse-graining:           -9.0006583.
MG DL_MG: Calling solver with defect correction order = 8
MG DL_MG: Solver finished
MG Hartree energy from (\int phi*rho dr):              1270.468161
MG Hartree energy from (\int eps (grad phi)^2 dr):     1269.817688
MG Discrepancy due to finite box and discretization:     -0.650473 (  -0.05120%)
MG Correction to account for finite box:                  0.468149
MG Remaining discrepancy, due to discretization:         -0.182324 (  -0.01435%)
     Trial step:       0.894340957812
             Q1:  -11701.602464823867
 Quadratic coef:      11.931646708214
 Linear coef   :      -8.802437189782
           Qmin:  -11706.355148921602
Quadratic minimum step length (  0.329894954984) accepted
    Initial Ne1:    7233.99962075
      Final Ne1:    7234.00000000

=================== Penalty functional idempotency correction ==================
 RMS occupancy error at iteration   1:  0.000355 (step -0.4986 Ne1=   7234.0000)
 RMS occupancy error at iteration   2:  0.000000 (step -0.5000 Ne1=   7234.0000)
            Final RMS occupancy error   :  0.000000 (Ne1=   7234.0000)
               Final occupancy bounds   : [  0.0000,  1.0000]
================================================================================

    1        -1.170473167434E+04     4.7934E-04     4.3368E-04
MG BCs: +ve charge blocks (gridpoints):     24895 (   17193943).
MG BCs: -ve charge blocks (gridpoints):      8593 (    1099722).
MG BCs:     Elided blocks (gridpoints):    175745 (  178002800).
MG BCs: Computational effort saved:  99.9829%.
MG BCs: Charge after coarse-graining:           -9.0006610.
MG DL_MG: Calling solver with defect correction order = 8
MG DL_MG: Solver finished
MG Hartree energy from (\int phi*rho dr):              1256.019186
MG Hartree energy from (\int eps (grad phi)^2 dr):     1255.373098
MG Discrepancy due to finite box and discretization:     -0.646088 (  -0.05144%)
MG Correction to account for finite box:                  0.468364
MG Remaining discrepancy, due to discretization:         -0.177724 (  -0.01415%)
      ideal mu1:      -0.725602518924
             Q0:  -11706.317415763857
             G0:      -0.985491249997
   RMS gradient:       0.000152946737
MG BCs: +ve charge blocks (gridpoints):     24897 (   17193898).
MG BCs: -ve charge blocks (gridpoints):      8591 (    1100463).
MG BCs:     Elided blocks (gridpoints):    175743 (  178002104).
MG BCs: Computational effort saved:  99.9829%.
MG BCs: Charge after coarse-graining:           -9.0006610.
MG DL_MG: Calling solver with defect correction order = 8
MG DL_MG: Solver finished
MG Hartree energy from (\int phi*rho dr):              1257.301888
MG Hartree energy from (\int eps (grad phi)^2 dr):     1256.655433
MG Discrepancy due to finite box and discretization:     -0.646455 (  -0.05142%)
MG Correction to account for finite box:                  0.468352
MG Remaining discrepancy, due to discretization:         -0.178103 (  -0.01417%)
     Trial step:       0.543174529979
             Q1:  -11706.509904372506
 Quadratic coef:       0.342805137867
 Linear coef   :      -0.535293746516
           Qmin:  -11706.526382435741
Quadratic minimum step length (  0.424086305961) accepted
    Initial Ne1:    7233.99995035
      Final Ne1:    7234.00000000

=================== Penalty functional idempotency correction ==================
 RMS occupancy error at iteration   1:  0.000142 (step -0.4994 Ne1=   7234.0000)
            Final RMS occupancy error   :  0.000000 (Ne1=   7234.0000)
               Final occupancy bounds   : [ -0.0000,  1.0000]
================================================================================

    2        -1.170631741576E+04     1.5295E-04     1.3838E-04    -1.5857E+00
MG BCs: +ve charge blocks (gridpoints):     24895 (   17193830).
MG BCs: -ve charge blocks (gridpoints):      8592 (    1100329).
MG BCs:     Elided blocks (gridpoints):    175745 (  178002306).
MG BCs: Computational effort saved:  99.9829%.
MG BCs: Charge after coarse-graining:           -9.0006610.
MG DL_MG: Calling solver with defect correction order = 8
MG DL_MG: Solver finished
MG Hartree energy from (\int phi*rho dr):              1257.020190
MG Hartree energy from (\int eps (grad phi)^2 dr):     1256.373819
MG Discrepancy due to finite box and discretization:     -0.646371 (  -0.05142%)
MG Correction to account for finite box:                  0.468354
MG Remaining discrepancy, due to discretization:         -0.178017 (  -0.01416%)
      ideal mu1:      -0.726663465877
             Q0:  -11706.526867146022
             G0:      -0.146805111853
   RMS gradient:       0.000058474139
MG BCs: +ve charge blocks (gridpoints):     24896 (   17193206).
MG BCs: -ve charge blocks (gridpoints):      8594 (    1100776).
MG BCs:     Elided blocks (gridpoints):    175744 (  178002483).
MG BCs: Computational effort saved:  99.9829%.
MG BCs: Charge after coarse-graining:           -9.0006610.
MG DL_MG: Calling solver with defect correction order = 8
MG DL_MG: Solver finished
MG Hartree energy from (\int phi*rho dr):              1256.532810
MG Hartree energy from (\int eps (grad phi)^2 dr):     1255.886473
MG Discrepancy due to finite box and discretization:     -0.646337 (  -0.05144%)
MG Correction to account for finite box:                  0.468346
MG Remaining discrepancy, due to discretization:         -0.177991 (  -0.01417%)
     Trial step:       0.479950914064
             Q1:  -11706.571821985184
 Quadratic coef:       0.025504408461
 Linear coef   :      -0.070459247623
           Qmin:  -11706.575530356376
Quadratic minimum step length (  0.662963431465) accepted
    Initial Ne1:    7234.00061129
      Final Ne1:    7234.00000000

=================== Penalty functional idempotency correction ==================
 RMS occupancy error at iteration   1:  0.000062 (step -0.4998 Ne1=   7234.0000)
            Final RMS occupancy error   :  0.000000 (Ne1=   7234.0000)
               Final occupancy bounds   : [ -0.0000,  1.0000]
================================================================================

    3        -1.170652686715E+04     5.8474E-05     5.2905E-05    -2.0945E-01
MG BCs: +ve charge blocks (gridpoints):     24896 (   17192982).
MG BCs: -ve charge blocks (gridpoints):      8593 (    1100931).
MG BCs:     Elided blocks (gridpoints):    175744 (  178002552).
MG BCs: Computational effort saved:  99.9829%.
MG BCs: Charge after coarse-graining:           -9.0006610.
MG DL_MG: Calling solver with defect correction order = 8
MG DL_MG: Solver finished
MG Hartree energy from (\int phi*rho dr):              1256.347007
MG Hartree energy from (\int eps (grad phi)^2 dr):     1255.700683
MG Discrepancy due to finite box and discretization:     -0.646325 (  -0.05144%)
MG Correction to account for finite box:                  0.468343
MG Remaining discrepancy, due to discretization:         -0.177982 (  -0.01417%)
      ideal mu1:      -0.725610766518
             Q0:  -11706.575618794886
             G0:      -0.035859247306
   RMS gradient:       0.000028890884
MG BCs: +ve charge blocks (gridpoints):     24894 (   17192788).
MG BCs: -ve charge blocks (gridpoints):      8592 (    1100980).
MG BCs:     Elided blocks (gridpoints):    175746 (  178002697).
MG BCs: Computational effort saved:  99.9829%.
MG BCs: Charge after coarse-graining:           -9.0006611.
MG DL_MG: Calling solver with defect correction order = 8
MG DL_MG: Solver finished
MG Hartree energy from (\int phi*rho dr):              1256.364255
MG Hartree energy from (\int eps (grad phi)^2 dr):     1255.718037
MG Discrepancy due to finite box and discretization:     -0.646219 (  -0.05144%)
MG Correction to account for finite box:                  0.468339
MG Remaining discrepancy, due to discretization:         -0.177880 (  -0.01416%)
     Trial step:       0.564083242902
             Q1:  -11706.584529654589
 Quadratic coef:       0.011316740805
 Linear coef   :      -0.020227600508
           Qmin:  -11706.584657524087
Quadratic minimum step length (  0.504122639503) accepted
    Initial Ne1:    7234.00022971
      Final Ne1:    7234.00000000

=================== Penalty functional idempotency correction ==================
 RMS occupancy error at iteration   1:  0.000018 (step -0.4999 Ne1=   7234.0000)
            Final RMS occupancy error   :  0.000000 (Ne1=   7234.0000)
               Final occupancy bounds   : [ -0.0000,  1.0000]
================================================================================

    4        -1.170657561879E+04     2.8891E-05     2.6139E-05    -4.8752E-02
MG BCs: +ve charge blocks (gridpoints):     24894 (   17192792).
MG BCs: -ve charge blocks (gridpoints):      8592 (    1100975).
MG BCs:     Elided blocks (gridpoints):    175746 (  178002698).
MG BCs: Computational effort saved:  99.9829%.
MG BCs: Charge after coarse-graining:           -9.0006611.
MG DL_MG: Calling solver with defect correction order = 8
MG DL_MG: Solver finished
MG Hartree energy from (\int phi*rho dr):              1256.362242
MG Hartree energy from (\int eps (grad phi)^2 dr):     1255.716012
MG Discrepancy due to finite box and discretization:     -0.646230 (  -0.05144%)
MG Correction to account for finite box:                  0.468339
MG Remaining discrepancy, due to discretization:         -0.177890 (  -0.01416%)
      ideal mu1:      -0.725682728625
             Q0:  -11706.584662631969
             G0:      -0.012196356764
   RMS gradient:       0.000016870052
MG BCs: +ve charge blocks (gridpoints):     24893 (   17193321).
MG BCs: -ve charge blocks (gridpoints):      8592 (    1100772).
MG BCs:     Elided blocks (gridpoints):    175747 (  178002372).
MG BCs: Computational effort saved:  99.9829%.
MG BCs: Charge after coarse-graining:           -9.0006610.
MG DL_MG: Calling solver with defect correction order = 8
MG DL_MG: Solver finished
MG Hartree energy from (\int phi*rho dr):              1256.763076
MG Hartree energy from (\int eps (grad phi)^2 dr):     1256.116880
MG Discrepancy due to finite box and discretization:     -0.646196 (  -0.05142%)
MG Correction to account for finite box:                  0.468338
MG Remaining discrepancy, due to discretization:         -0.177858 (  -0.01415%)
     Trial step:       0.533260849220
             Q1:  -11706.588147021015
 Quadratic coef:       0.003019450520
 Linear coef   :      -0.006503839566
           Qmin:  -11706.588164918960
Quadratic minimum step length (  0.574316914151) accepted
    Initial Ne1:    7234.00010633
      Final Ne1:    7234.00000000

=================== Penalty functional idempotency correction ==================
 RMS occupancy error at iteration   1:  0.000011 (step -0.4999 Ne1=   7234.0000)
            Final RMS occupancy error   :  0.000000 (Ne1=   7234.0000)
               Final occupancy bounds   : [ -0.0000,  1.0000]
================================================================================

    5        -1.170658466263E+04     1.6870E-05     1.5263E-05    -9.0438E-03
MG BCs: +ve charge blocks (gridpoints):     24893 (   17193356).
MG BCs: -ve charge blocks (gridpoints):      8592 (    1100757).
MG BCs:     Elided blocks (gridpoints):    175747 (  178002352).
MG BCs: Computational effort saved:  99.9829%.
MG BCs: Charge after coarse-graining:           -9.0006610.
MG DL_MG: Calling solver with defect correction order = 8
MG DL_MG: Solver finished
MG Hartree energy from (\int phi*rho dr):              1256.793967
MG Hartree energy from (\int eps (grad phi)^2 dr):     1256.147774
MG Discrepancy due to finite box and discretization:     -0.646193 (  -0.05142%)
MG Correction to account for finite box:                  0.468337
MG Remaining discrepancy, due to discretization:         -0.177856 (  -0.01415%)
      ideal mu1:      -0.725992930511
             Q0:  -11706.588166053290
             G0:      -0.004307132438
   RMS gradient:       0.000010025845
MG BCs: +ve charge blocks (gridpoints):     24894 (   17193372).
MG BCs: -ve charge blocks (gridpoints):      8591 (    1100800).
MG BCs:     Elided blocks (gridpoints):    175746 (  178002293).
MG BCs: Computational effort saved:  99.9829%.
MG BCs: Charge after coarse-graining:           -9.0006609.
MG DL_MG: Calling solver with defect correction order = 8
MG DL_MG: Solver finished
MG Hartree energy from (\int phi*rho dr):              1256.758905
MG Hartree energy from (\int eps (grad phi)^2 dr):     1256.112723
MG Discrepancy due to finite box and discretization:     -0.646182 (  -0.05142%)
MG Correction to account for finite box:                  0.468331
MG Remaining discrepancy, due to discretization:         -0.177852 (  -0.01415%)
     Trial step:       0.553408280894
             Q1:  -11706.589731947985
 Quadratic coef:       0.000817708064
 Linear coef   :      -0.002383602758
           Qmin:  -11706.589903091961
Quadratic minimum step length (  0.806587071530) accepted
    Initial Ne1:    7234.00008270
      Final Ne1:    7234.00000000

=================== Penalty functional idempotency correction ==================
 RMS occupancy error at iteration   1:  0.000012 (step -0.4997 Ne1=   7234.0000)
            Final RMS occupancy error   :  0.000000 (Ne1=   7234.0000)
               Final occupancy bounds   : [ -0.0000,  1.0000]
================================================================================

    6        -1.170658816605E+04     1.0026E-05     9.0709E-06    -3.5034E-03
MG BCs: +ve charge blocks (gridpoints):     24895 (   17193383).
MG BCs: -ve charge blocks (gridpoints):      8591 (    1100804).
MG BCs:     Elided blocks (gridpoints):    175745 (  178002278).
MG BCs: Computational effort saved:  99.9829%.
MG BCs: Charge after coarse-graining:           -9.0006609.
MG DL_MG: Calling solver with defect correction order = 8
MG DL_MG: Solver finished
MG Hartree energy from (\int phi*rho dr):              1256.742761
MG Hartree energy from (\int eps (grad phi)^2 dr):     1256.096584
MG Discrepancy due to finite box and discretization:     -0.646177 (  -0.05142%)
MG Correction to account for finite box:                  0.468328
MG Remaining discrepancy, due to discretization:         -0.177850 (  -0.01415%)
      ideal mu1:      -0.725936481824
             Q0:  -11706.589902437758
             G0:      -0.003243409990
   RMS gradient:       0.000008701443
MG BCs: +ve charge blocks (gridpoints):     24894 (   17193120).
MG BCs: -ve charge blocks (gridpoints):      8592 (    1100870).
MG BCs:     Elided blocks (gridpoints):    175746 (  178002475).
MG BCs: Computational effort saved:  99.9829%.
MG BCs: Charge after coarse-graining:           -9.0006610.
MG DL_MG: Calling solver with defect correction order = 8
MG DL_MG: Solver finished
MG Hartree energy from (\int phi*rho dr):              1256.613844
MG Hartree energy from (\int eps (grad phi)^2 dr):     1255.967649
MG Discrepancy due to finite box and discretization:     -0.646195 (  -0.05142%)
MG Correction to account for finite box:                  0.468335
MG Remaining discrepancy, due to discretization:         -0.177860 (  -0.01415%)
     Trial step:       0.668110742801
             Q1:  -11706.590589703759
 Quadratic coef:       0.001479691056
 Linear coef   :      -0.002166957058
           Qmin:  -11706.590695796423
Quadratic minimum step length (  0.489212691810) accepted
    Initial Ne1:    7234.00006513
      Final Ne1:    7234.00000000

=================== Penalty functional idempotency correction ==================
 RMS occupancy error at iteration   1:  0.000001 (step -0.5000 Ne1=   7234.0000)
            Final RMS occupancy error   :  0.000000 (Ne1=   7234.0000)
               Final occupancy bounds   : [  0.0000,  1.0000]
================================================================================

    7        -1.170658990244E+04     8.7014E-06     7.8727E-06    -1.7364E-03
MG BCs: +ve charge blocks (gridpoints):     24894 (   17193167).
MG BCs: -ve charge blocks (gridpoints):      8592 (    1100868).
MG BCs:     Elided blocks (gridpoints):    175746 (  178002430).
MG BCs: Computational effort saved:  99.9829%.
MG BCs: Charge after coarse-graining:           -9.0006610.
MG DL_MG: Calling solver with defect correction order = 8
MG DL_MG: Solver finished
MG Hartree energy from (\int phi*rho dr):              1256.648278
MG Hartree energy from (\int eps (grad phi)^2 dr):     1256.002088
MG Discrepancy due to finite box and discretization:     -0.646190 (  -0.05142%)
MG Correction to account for finite box:                  0.468333
MG Remaining discrepancy, due to discretization:         -0.177857 (  -0.01415%)
      ideal mu1:      -0.725795131621
             Q0:  -11706.590695812833
             G0:      -0.002152457261
   RMS gradient:       0.000007088508
MG BCs: +ve charge blocks (gridpoints):     24894 (   17193173).
MG BCs: -ve charge blocks (gridpoints):      8592 (    1100858).
MG BCs:     Elided blocks (gridpoints):    175746 (  178002434).
MG BCs: Computational effort saved:  99.9829%.
MG BCs: Charge after coarse-graining:           -9.0006610.
MG DL_MG: Calling solver with defect correction order = 8
MG DL_MG: Solver finished
MG Hartree energy from (\int phi*rho dr):              1256.592944
MG Hartree energy from (\int eps (grad phi)^2 dr):     1255.946745
MG Discrepancy due to finite box and discretization:     -0.646199 (  -0.05142%)
MG Correction to account for finite box:                  0.468333
MG Remaining discrepancy, due to discretization:         -0.177865 (  -0.01415%)
     Trial step:       0.571706441203
             Q1:  -11706.591676540091
 Quadratic coef:       0.000249846422
 Linear coef   :      -0.001230573681
           Qmin:  -11706.592211055247
Quadratic minimum step length (  1.407918701198) accepted
    Initial Ne1:    7234.00012411
      Final Ne1:    7234.00000000

=================== Penalty functional idempotency correction ==================
 RMS occupancy error at iteration   1:  0.000024 (step -0.4988 Ne1=   7234.0000)
            Final RMS occupancy error   :  0.000000 (Ne1=   7234.0000)
               Final occupancy bounds   : [ -0.0000,  1.0000]
================================================================================

    8        -1.170659069581E+04     7.0885E-06     6.4134E-06    -7.9338E-04
MG BCs: +ve charge blocks (gridpoints):     24894 (   17193129).
MG BCs: -ve charge blocks (gridpoints):      8592 (    1100876).
MG BCs:     Elided blocks (gridpoints):    175746 (  178002460).
MG BCs: Computational effort saved:  99.9829%.
MG BCs: Charge after coarse-graining:           -9.0006610.
MG DL_MG: Calling solver with defect correction order = 8
MG DL_MG: Solver finished
MG Hartree energy from (\int phi*rho dr):              1256.511165
[...]
MG Hartree energy from (\int eps (grad phi)^2 dr):     1214.747639
MG Discrepancy due to finite box and discretization:     -0.183438 (  -0.01510%)
MG Correction to account for finite box:                  0.006339
MG Remaining discrepancy, due to discretization:         -0.177099 (  -0.01458%)
     Trial step:       0.364428834186
             Q1:  -11740.609994023689
 Quadratic coef:       0.000000001195
 Linear coef   :      -0.000000001079
           Qmin:  -11740.609994024049
Quadratic minimum step length (  0.164567974687) accepted
    Initial Ne1:    7234.00000000
      Final Ne1:    7234.00000000

=================== Penalty functional idempotency correction ==================
 RMS occupancy error at iteration   1:  0.000000 (step -0.5000 Ne1=   7234.0000)
            Final RMS occupancy error   :  0.000000 (Ne1=   7234.0000)
               Final occupancy bounds   : [  0.0000,  1.0000]
================================================================================

    7        -1.174060999402E+04     8.3150E-09     7.5231E-09    -4.6566E-10

Reusing previously generated solute cavity.
MG BCs: +ve charge blocks (gridpoints):     29116 (   19390019).
MG BCs: -ve charge blocks (gridpoints):      8581 (    1068919).
MG BCs:     Elided blocks (gridpoints):    171524 (  175837527).
MG BCs: Computational effort saved:  99.9808%.
MG BCs: Charge after coarse-graining:           -9.0009622.
MG DL_MG: Calling solver with defect correction order = 8
MG DL_MG: Solver finished
MG Hartree energy from (\int phi*rho dr):              1214.931077
MG Hartree energy from (\int eps (grad phi)^2 dr):     1214.747639
MG Discrepancy due to finite box and discretization:     -0.183438 (  -0.01510%)
MG Correction to account for finite box:                  0.006339
MG Remaining discrepancy, due to discretization:         -0.177099 (  -0.01458%)
      ideal mu1:      -0.480838320054
             Q0:  -11740.609994023805
             G0:      -0.000000002886
   RMS gradient:       0.000000006244

Reusing previously generated solute cavity.
MG BCs: +ve charge blocks (gridpoints):     29116 (   19390019).
MG BCs: -ve charge blocks (gridpoints):      8581 (    1068919).
MG BCs:     Elided blocks (gridpoints):    171524 (  175837527).
MG BCs: Computational effort saved:  99.9808%.
MG BCs: Charge after coarse-graining:           -9.0009622.
MG DL_MG: Calling solver with defect correction order = 8
MG DL_MG: Solver finished
MG Hartree energy from (\int phi*rho dr):              1214.931078
MG Hartree energy from (\int eps (grad phi)^2 dr):     1214.747639
MG Discrepancy due to finite box and discretization:     -0.183438 (  -0.01510%)
MG Correction to account for finite box:                  0.006339
MG Remaining discrepancy, due to discretization:         -0.177099 (  -0.01458%)
     Trial step:       0.244894498018
             Q1:  -11740.609994023573
 Quadratic coef:       0.000000000940
 Linear coef   :      -0.000000000707
           Qmin:  -11740.609994023938
Quadratic minimum step length (  0.092022369361) accepted
    Initial Ne1:    7234.00000000
      Final Ne1:    7234.00000000

=================== Penalty functional idempotency correction ==================
 RMS occupancy error at iteration   1:  0.000000 (step -0.5000 Ne1=   7234.0000)
            Final RMS occupancy error   :  0.000000 (Ne1=   7234.0000)
               Final occupancy bounds   : [  0.0000,  1.0000]
================================================================================

    8        -1.174060999402E+04     6.2439E-09     5.6492E-09     0.0000E+00

Reusing previously generated solute cavity.
MG BCs: +ve charge blocks (gridpoints):     29116 (   19390019).
MG BCs: -ve charge blocks (gridpoints):      8581 (    1068919).
MG BCs:     Elided blocks (gridpoints):    171524 (  175837527).
MG BCs: Computational effort saved:  99.9808%.
MG BCs: Charge after coarse-graining:           -9.0009622.
MG DL_MG: Calling solver with defect correction order = 8
MG DL_MG: Solver finished
MG Hartree energy from (\int phi*rho dr):              1214.931077
MG Hartree energy from (\int eps (grad phi)^2 dr):     1214.747639
MG Discrepancy due to finite box and discretization:     -0.183438 (  -0.01510%)
MG Correction to account for finite box:                  0.006339
MG Remaining discrepancy, due to discretization:         -0.177099 (  -0.01458%)
      ideal mu1:      -0.480838318287
             Q0:  -11740.609994023805
             G0:      -0.000000002638
   RMS gradient:       0.000000005118

Reusing previously generated solute cavity.
MG BCs: +ve charge blocks (gridpoints):     29116 (   19390019).
MG BCs: -ve charge blocks (gridpoints):      8581 (    1068919).
MG BCs:     Elided blocks (gridpoints):    171524 (  175837527).
MG BCs: Computational effort saved:  99.9808%.
MG BCs: Charge after coarse-graining:           -9.0009622.
MG DL_MG: Calling solver with defect correction order = 8
MG DL_MG: Solver finished
MG Hartree energy from (\int phi*rho dr):              1214.931077
MG Hartree energy from (\int eps (grad phi)^2 dr):     1214.747639
MG Discrepancy due to finite box and discretization:     -0.183438 (  -0.01510%)
MG Correction to account for finite box:                  0.006339
MG Remaining discrepancy, due to discretization:         -0.177099 (  -0.01458%)
     Trial step:       0.150119192481
             Q1:  -11740.609994023456
 Quadratic coef:       0.000000000746
 Linear coef   :      -0.000000000396
           Qmin:  -11740.609994023858
Quadratic minimum step length (  0.039849717327) accepted
    Initial Ne1:    7234.00000000
      Final Ne1:    7234.00000000

=================== Penalty functional idempotency correction ==================
 RMS occupancy error at iteration   1:  0.000000 (step -0.5000 Ne1=   7234.0000)
            Final RMS occupancy error   :  0.000000 (Ne1=   7234.0000)
               Final occupancy bounds   : [ -0.0000,  1.0000]
================================================================================

    9        -1.174060999402E+04     5.1176E-09     4.6301E-09     0.0000E+00

Reusing previously generated solute cavity.
MG BCs: +ve charge blocks (gridpoints):     29116 (   19390019).
MG BCs: -ve charge blocks (gridpoints):      8581 (    1068919).
MG BCs:     Elided blocks (gridpoints):    171524 (  175837527).
MG BCs: Computational effort saved:  99.9808%.
MG BCs: Charge after coarse-graining:           -9.0009622.
MG DL_MG: Calling solver with defect correction order = 8
MG DL_MG: Solver finished
MG Hartree energy from (\int phi*rho dr):              1214.931077
MG Hartree energy from (\int eps (grad phi)^2 dr):     1214.747639
MG Discrepancy due to finite box and discretization:     -0.183438 (  -0.01510%)
MG Correction to account for finite box:                  0.006339
MG Remaining discrepancy, due to discretization:         -0.177099 (  -0.01458%)
      ideal mu1:      -0.480838317225
   10        -1.174060999402E+04     4.6696E-09     4.2248E-09     1.1642E-10
Finished density kernel iterations (  10)

Writing density kernel to file "complex_32401.dkn" ... done


>>> Density kernel optimised for the current NGWF basis:
     ~~~~~~~~~~~~~~~~~~~~~~~~~~~~~~~~~~~~~~~~~~~~~~~~~~~~~~~~~~~
     Total energy                =  -1.17406099940237E+04  Eh
     Estimated bandgap           =   9.4702E-02  Eh
     RMS occupancy error         =   6.4463E-16
     [H,K] commutator            =   4.2248E-09
     Occupancy bounds            = [ -0.000:  1.000]
     ~~~~~~~~~~~~~~~~~~~~~~~~~~~~~~~~~~~~~~~~~~~~~~~~~~~~~~~~~~~




################################################################################
########################### NGWF CG iteration  005 #############################
################################################################################
****** Reciprocal space K.E. preconditioning with k_zero =  3.5000 a0^-1 *******

>>> Checking for convergence of NGWFs: 
           ........................................................
           |         *** NGWF optimisation converged ***          |
           | RMS NGWF gradient =    0.00000091006776              |
           | Criteria satisfied:                                  |
           | -> RMS NGWF gradient lower than set threshold.       |
           ========================================================

Reusing previously generated solute cavity.
MG BCs: +ve charge blocks (gridpoints):     29116 (   19390019).
MG BCs: -ve charge blocks (gridpoints):      8581 (    1068919).
MG BCs:     Elided blocks (gridpoints):    171524 (  175837527).
MG BCs: Computational effort saved:  99.9808%.
MG BCs: Charge after coarse-graining:           -9.0009622.
MG DL_MG: Calling solver with defect correction order = 8
MG DL_MG: Solver finished
MG Hartree energy from (\int phi*rho dr):              1214.931077
MG Hartree energy from (\int eps (grad phi)^2 dr):     1214.747639
MG Discrepancy due to finite box and discretization:     -0.183438 (  -0.01510%)
MG Correction to account for finite box:                  0.006339
MG Remaining discrepancy, due to discretization:         -0.177099 (  -0.01458%)

================================================================================
           ---------------- ENERGY COMPONENTS (Eh) ----------------
           | Kinetic                    :     8580.44234209658134 |
           | Pseudo. (local,OBC,corr'd) :    -5079.84591382521467 |
           | Pseudopotential (non-local):     1410.32945540020046 |
           | Hartree (molecular)        :     1214.93107718983197 |
           | Exchange-correlation       :    -3377.25943658905499 |
           | Ion-ion (open BC)          :   836836.92345560737886 |
           | Dispersion Correction      :       -3.26757136145214 |
           | Smeared ion non-self corr. :  -836788.55965140904300 |
           | Smeared ion self corr.     :   -14534.96330857569956 |
           | Solvent cavitation energy  :        2.34655320731701 |
           | Solute-solvent dis-rep en. :       -1.68699576457038 |
           | Total                      :   -11740.60999402377092 |
           --------------------------------------------------------
           ------ LOCAL ENERGY COMPONENTS FROM MATRIX TRACES ------
           | Pseudopotential (local)    :    -5079.84591382524923 |
           | Hartree                    :    -2001.22812844663645 |
           --------------------------------------------------------
           Integrated density           :     7233.99999999797092
           Integrated density tr(KS)    :     7234.00000000000091
================================================================================


                        <<<<< CALCULATION SUMMARY >>>>>                         
|ITER|    RMS GRADIENT   |     TOTAL ENERGY    |   step   |     Epredicted              
   0     0.00003843814255 -11740.55095729324967   0.620714 -11740.60188763054066        
   1     0.00001048405367 -11740.60924394347239   0.102579 -11740.60987009130804        
   2     0.00000462492028 -11740.60996765340678   0.018638 -11740.60998979312353        
   3     0.00000206416506 -11740.60999297408853   0.003769 -11740.60999386599724        
   4     0.00000091006776 -11740.60999402368907  <-- CG                                 

=================== Finished the calculation in solvent ========================
= Adjusting the following parameters: 
= read_denskern: F
= read_tightbox_ngwfs: F
= maxit_pen: 0 (restored to user-specified value)
= restart read filename prefix: ""
= restart write filename prefix: ""
================================================================================

================================================================================
IS: Calculation in solvent completed (NGWFs converged).      

Individual components of total energy in solvent:     hartree           kcal/mol
- Usual non-electrostatic DFT terms:    -12956.20062865626824    -8130138.465960
- Electrostatic fixed charge energy:      1214.93107718983197      762380.744730
- Apolar cavitation energy:                  2.34655320731701        1472.484337
- Apolar dispersion-repulsion energy:       -1.68699576457038       -1058.605802
 -------------------------------------------------------------------------------
- Total energy in solvent:              -11740.60999402368907    -7367343.842695

Components of total energy in solvent:                hartree           kcal/mol
- Usual non-electrostatic DFT terms:    -12956.20062865626824    -8130138.465960
- Electrostatic energy:                   1214.93107718983197      762380.744730
- Apolar energy terms:                       0.65955744274663         413.878535
 -------------------------------------------------------------------------------
- Total energy in solvent:              -11740.60999402368907    -7367343.842695

Calculation of free energy of solvation:              hartree           kcal/mol
- Total energy in solvent:         (+)  -11740.60999402368907    -7367343.842695
- Total energy in vacuum:          (-)  -11736.80027210491244    -7364953.206149
 -------------------------------------------------------------------------------
- Total free energy of solvation:           -3.80972191877663       -2390.636546

Components of polar term in f.e. of solvation:        hartree           kcal/mol
- Electrostatic:                            -4.75534587935749       -2984.024527
- Change in nonelectrostatic DFT terms:      0.28606651783412         179.509446
 -------------------------------------------------------------------------------
- Polar term in f.e. of solvation:          -4.46927936152338       -2804.515081

Components of free energy of solvation:               hartree           kcal/mol
- Polar term in f.e. of solvation: (+)      -4.46927936152338       -2804.515081
- Apolar (cavitation, dis., rep.): (+)       0.65955744274663         413.878535
 -------------------------------------------------------------------------------
- Total free energy of solvation:           -3.80972191877675       -2390.636546
================================================================================


------------------------------ TIMING INFORMATION ------------------------------
AVERAGE TIME:   32620.453s on     40 node(s)                                    
TOTAL TIME:     32620.453s on     40 node(s)                                    
================= AVERAGE TIMINGS FROM ALL NODES (CUMULATIVE) ==================
|| TAG                                    #calls    cpu time   %total  Gflops ||
|| work_imbalance                       :     1        0.00s   0.000%  ------ ||
|| parallel_prepare_fd_halos_request    :  2313        0.02s   0.000%  ------ ||
|| sparse_set_to_garbage                :   218        0.05s   0.000%  ------ ||
|| parallel_prepare_fd_halos_satisfy    :  2313        0.07s   0.000%  ------ ||
|| ngwfs_initialise_from_radial         :     1        0.18s   0.001%  ------ ||
|| basis_extract_function_from_box      :  6381        0.22s   0.001%  ------ ||
|| parallel_prepare_fd_halos_alloc      :  2313        0.27s   0.001%  ------ ||
|| restart_ngwfs_tightbox_input         :     1        0.90s   0.003%  ------ ||
|| pseudopotentials_nonlocal_mat        :    37        1.57s   0.005%  ------ ||
|| density_init_guess_real              :     1        4.01s   0.012%  ------ ||
|| parallel_prepare_fd_halos_comms_imbal:  2313        4.10s   0.013%  ------ ||
|| openbc_locps_radial                  :     1        4.63s   0.014%  ------ ||
|| restart_kernel_read                  :     1        6.07s   0.019%  ------ ||
|| parallel_prepare_fd_halos_clear      :  2313       17.03s   0.052%  ------ ||
|| restart_kernel_write                 :    20       17.04s   0.052%  ------ ||
|| sparse_init                          :     2       23.02s   0.071%  ------ ||
|| parallel_prepare_fd_halos_comms_wait :  2313       29.54s   0.091%  ------ ||
|| projectors_func_ovlp_box             :    37       29.68s   0.091%  ------ ||
|| function_ops_brappd_ketppd           :    37       33.03s   0.101%  ------ ||
|| projectors_init_fftbox_recip         :   246       33.74s   0.103%  ------ ||
|| palser_mano_kernel_optimise          :     1       40.33s   0.124%  ------ ||
|| parallel_prepare_fd_halos            :  2313       51.04s   0.156%  ------ ||
|| pseudo_make_structure_factor         :     2       55.55s   0.170%  ------ ||
|| fourier_apply_box_pair               :  9251       67.28s   0.206% 565.261 ||
|| basis_copy_function_to_box           : 104.2k      69.88s   0.214%  ------ ||
|| ngwf_gradient_coeffs                 :    19       77.47s   0.237%  ------ ||
|| restart_ngwfs_tightbox_output        :    17       86.33s   0.265%  ------ ||
|| sparse_embed_hotelling_invert_embed  :    37      112.03s   0.343%  ------ ||
|| finite_difference_derivative         :  2313      129.00s   0.395%  ------ ||
|| integrals_kinetic                    :    37      205.25s   0.629%  ------ ||
|| openbc_locps_on_grid                 :     2      206.41s   0.633%  ------ ||
|| fourier_apply_cell_backward          :  1543      252.29s   0.773%  84.479 ||
|| projectors_gradient_batch            :   209      261.91s   0.803%  ------ ||
|| fourier_apply_cell_forward           :  1541      268.56s   0.823%  79.258 ||
|| basis_dot_function_with_box          : 15.79M     296.16s   0.908%  ------ ||
|| sparse_trace                         :  5996      296.98s   0.910%  ------ ||
|| kernel_purify                        :   589      423.59s   1.299%  ------ ||
|| hamiltonian_energy_components        :     4      440.10s   1.349%  ------ ||
|| xc_energy_potential                  :   385      611.04s   1.873%  ------ ||
|| basis_add_function_to_box            : 33.09M     641.97s   1.968%  ------ ||
|| lnv_gradient_norm                    :   190      703.12s   2.155%  ------ ||
|| kernel_fix                           :   190      714.08s   2.189%  ------ ||
|| ngwf_gradient_build_batch            :   209      970.52s   2.975%  ------ ||
|| integrals_locpot_mat_els_batch       :  2189     1085.66s   3.328%  ------ ||
|| cell_grid_deposit_box_real           : 65354     1167.35s   3.579%  ------ ||
|| cell_grid_extract_box_real           : 60392     1219.73s   3.739%  ------ ||
|| ngwf_gradient_batch                  :   209     1333.94s   4.089%  ------ ||
|| density_batch_row_sums               :  4224     1510.92s   4.632%  ------ ||
|| ngwf_gradient_lnv                    :    19     1535.41s   4.707%  ------ ||
|| density_fftbox_deposit_to_cell       : 62976     2024.90s   6.207%  ------ ||
|| sparse_product                       :  7699     2597.27s   7.962%  ------ ||
|| multigrid_prepare_bound_cond         :   385     3015.30s   9.244%  ------ ||
|| potential_apply_to_ngwf_batch        :  2189     4138.06s  12.685%  ------ ||
|| density_fftbox_interpolate_multiply  : 62976     4615.72s  14.150%  ------ ||
|| fourier_apply_box                    : 217.0k    4631.92s  14.199% 932.730 ||
|| integrals_locpot_dbl_grid            :   199     5246.33s  16.083%  ------ ||
|| density_batch_interp_deposit         :  4224     7466.44s  22.889%  ------ ||
|| dl_mg_solver_calls                   :   385     8034.40s  24.630%  ------ ||
|| density_on_dbl_grid                  :   384     9489.47s  29.091%  ------ ||
|| multigrid_calculate_hartree          :   385    11231.26s  34.430%  ------ ||
|| hamiltonian_lhxc_calculate           :   380    21385.51s  65.559%  ------ ||
|| lnv_denskernel_optimise_cg           :    19    28166.32s  86.346%  ------ ||
|| ngwf_cg_optimise                     :     2    31799.17s  97.482%  ------ ||
|| total_time                           :     1    32620.45s 100.000%  ------ ||
================================================================================
Overhead of generating timer report: 
- 0 ms averaging over threads,
- 5 ms ensuring consistency across MPI ranks,
- 2 ms printing in order.

Job completed: 04-01-2020 04:39 (-0000)

