 +---------------------------------------------------------------+
 |                                                               |
 |        ####### #     # ####### ####### ####### ######         |
 |        #     # ##    # #          #    #       #     #        |
 |        #     # # #   # #          #    #       #     #        |
 |        #     # #  #  # #####      #    #####   ######         |
 |        #     # #   # # #          #    #       #              |
 |        #     # #    ## #          #    #       #              |
 |        ####### #     # #######    #    ####### #              |
 |                                                               |
 |        Linear-Scaling Ab Initio Total Energy Program          |
 |                                                               |
 |          Release for academic collaborators of ODG            |
 |                                             Version 5.3.2.6.  |
 |                                                               |
 +---------------------------------------------------------------+
 |                                                               |
 |  Authors:                                                     |
 |  Jacek Dziedzic, Peter D. Haynes, Nicholas D. M. Hine,        |
 |  Arash. A. Mostofi, Mike C. Payne and Chris-Kriton Skylaris   |
 |                                                               |
 |  Contributors:                                                |
 |  J. Aarons, L. Andrinopoulos, P. W. Avraam, R. A. Bell,       |
 |  A. Bhandari, G. A. Bramley, R. J. Charlton, S. J. Clark,     |
 |  R. J. Clements, G. C. Constantinescu, F. Corsetti,           |
 |  N. Corsini, O. Dieguez, S. M. M. Dubois, K. K. B. Duff,      |
 |  J. M. Escartin, A. Greco, H. Helal, Q. O. Hill, L. P. Lee,   |
 |  J.-H. Li, E. B. Linscott, G. Moynihan, D. D. O`Regan,        |
 |  O. K. Okan, M. J. S. Phipps, C. J. Pickard,                  |
 |  J. C. A. Prentice, M. I. J. Probert, L. E. Ratcliff,         |
 |  M. Robinson, A. Ruiz Serrano, J. S. Spencer, E. W. Tait,     |
 |  G. Teobaldi, D. Turban, V. Vitale, K. A. Wilkinson,          |
 |  C. Weber, J. C. Womack, N. Yeung and T. J. Zuehlsdorff       |
 |                                                               |
 |                                   Copyright (c) 2004-2019     |
 |                                                               |
 |  Please cite:                                                 |
 |  "Introducing ONETEP: Linear-scaling density functional       |
 |   simulations on parallel computers".                         |
 |   C.-K. Skylaris, P. D. Haynes, A. A. Mostofi, M. C. Payne.   |
 |   J. Chem. Phys. 122 084119 (2005).                           |
 |                                                               |
 |          in all publications arising from your use of ONETEP. |
 |                                                               |
 +---------------------------------------------------------------+
 |                                                               |
 |   ONETEP is based on developments described in the following  |
 |   publications:                                               |
 |                                                               |
 |  "Nonorthogonal generalized Wannier function pseudopotential  |
 |   plane-wave method".                                         |
 |   C.-K. Skylaris, A. A. Mostofi, P. D. Haynes, O. Dieguez,    |
 |   M. C. Payne.                                                |
 |   Phys. Rev. B 66 035119 (2002).                              |
 |                                                               |
 |  "Preconditioned iterative minimization for linear-scaling    |
 |   electronic structure calculations".                         |
 |   A. A. Mostofi, P. D. Haynes, C.-K. Skylaris, M. C. Payne.   |
 |   J. Chem. Phys. 119(17), pp.8842-8848 (2003).                |
 |                                                               |
 |  "Total-energy calculations on a real space grid with         |
 |   localized functions and a plane-wave basis".                |
 |   A. A. Mostofi, C.-K. Skylaris, P. D. Haynes, M. C. Payne.   |
 |   Comput. Phys. Commun. 147, pp.788-802 (2002).               |
 |                                                               |
 |  "Accurate kinetic energy evaluation in electronic structure  |
 |   calculations with localized functions on real space grids"  |
 |   C.-K. Skylaris, A. A. Mostofi, P. D. Haynes, C. J. Pickard, |
 |   M. C. Payne.                                                |
 |   Comput. Phys. Commun. 140, pp.315-322 (2001).               |
 |                                                               |
 |  "Accurate ionic forces and geometry optimization in linear-  |
 |   scaling density-functional theory with local orbitals"      |
 |   N. D. M. Hine, M. Robinson, P. D. Haynes, C.-K. Skylaris,   |
 |   M. C. Payne, and A. A. Mostofi.                             |
 |   Phys. Rev. B 83 195102 (2011).                              |
 |                                                               |
 +---------------------------------------------------------------+

Job started: 02-04-2020 00:38 (+0100)
 
Reading parameters from file "host_31641.dat" ...... done

If your calculation crashes here, before "Checking processes and threads..."
is displayed, then your stack size is insufficient.
If so, use "ulimit -s unlimited" at runtime.
You can disable this check with "check_stack_size F".

Checking processes and threads...
   Determining the default number of threads...
      No default threads set at compilation time: defaulting to 1.
      OpenMP library call suggests 4 threads.
      Hybrid MPI-OpenMP compilation detected.
      Number of MPI processes > 1.
      OMP_NUM_THREADS environment variable present and
      its value matches the one obtained from the OpenMP library call.
      Using this value as default.
      Default threads: 4
      Default applies to threads_max and threads_num_fftboxes.
      Settings in the input file override this default.
   ... done

   Running with 60 MPI processes.
   There are 6 MPI processes running on the same node as the root process.
   Each MPI process is using: 
               1 threads for simulation cell FFTs.
               1 threads for parallel FFT box operations.
               4 threads for loops over batched FFT box operations.
               4 threads in other parallel regions.
... done

Basic input checks...... done

Reading geometry and species blocks from file "host_31641.dat" ...
  <species_atomic_set> block not found: NGWF initialisation set to SOLVE
IS: Dielectric excluded regions:
    - NONE.
    
  Number of PPD points along a3 set to 1.  This is 
  the default value, it may have been provided also in the input file.
... done
 Writing xyz coordinates to file "host_31641.xyz" ... done


--------------------------------------------------------------------------------
---------------------------------- INPUT FILE ----------------------------------
--------------------------------------------------------------------------------

cutoff_energy       : 800 eV                                                    
xc_functional PBE                                                               
task SINGLEPOINT                                                                
write_xyz true                                                                  
output_detail VERBOSE                                                           
ngwf_threshold_orig : 0.000002                                                  
kernel_cutoff       : 1000                                                      
k_zero              : 3.5                                                       
elec_cg_max 0                                                                   
occ_mix 1.0                                                                     
dispersion 1                                                                    
maxit_ngwf_cg 40                                                                
minit_lnv 10                                                                    
maxit_lnv 10                                                                    
write_denskern T                                                                
write_tightbox_ngwfs T                                                          
charge 9                                                                        
is_implicit_solvent T                                                           
is_auto_solvation T                                                             
is_include_apolar T                                                             
is_smeared_ion_rep T                                                            
is_solvent_surf_tension 4.7624E-5 Ha/bohr**2                                    
is_apolar_scaling_factor 0.281075                                               
is_solvation_beta 1.3                                                           
is_density_threshold 0.00035                                                    
is_bulk_permittivity 78.54                                                      
is_dielectric_model fix_initial                                                 
is_smeared_ion_width 0.8                                                        
mg_defco_fd_order 8                                                             
is_bc_coarseness 10                                                             
is_bc_surface_coarseness 1                                                      
fine_grid_scale 2.0                                                             
%block species                                                                  
N   N   7 4 8.0                                                                 
H   H   1 1 8.0                                                                 
C   C   6 4 8.0                                                                 
S   S  16 9 8.0                                                                 
O   O   8 4 8.0                                                                 
%endblock species                                                               
%block species_pot                                                              
N   N_00.recpot                                                                 
H   H_04.recpot                                                                 
C   C_01.recpot                                                                 
S   S_00.recpot                                                                 
O   O_02.recpot                                                                 
%endblock species_pot                                                           
%block lattice_cart                                                             
137.614   0.000   0.000                                                         
0.000 142.646   0.000                                                           
0.000   0.000   160.855                                                         
%endblock lattice_cart                                                          
%block positions_abs                                                            
     Hash =  -000000787607774259130225
%endblock positions_abs                                                         

--------------------------------------------------------------------------------
-------------------------------- END INPUT FILE --------------------------------
--------------------------------------------------------------------------------


 
 ESDF WARNING(1): "kernelcutoff" (esdf_physical) has no units. Assume "bohr".
 ESDF WARNING(2): "kzero" (esdf_physical) has no units. Assume "1/bohr".
 ESDF WARNING(3
 ): "issmearedionwidth" (esdf_physical) has no units. Assume "bohr".
<<<<<<<<<<<<<<<<<<<<<<<<<<<<<<<<< Full system >>>>>>>>>>>>>>>>>>>>>>>>>>>>>>>>>>
<<<<<<<<<<<<<<<<<<<<<<<<< Pseudopotential information >>>>>>>>>>>>>>>>>>>>>>>>>>
File: N_00.recpot [ 2001 points up to Gmax=  52.9 (1/bohr)]
  Atomic number:  7;  ionic charge:  5.000000
    Shell 1: l = 0; rc = 1.48 bohr
File: H_04.recpot [ 2001 points up to Gmax=  52.9 (1/bohr)]
  Atomic number:  1;  ionic charge:  1.000000
    Local potential
File: C_01.recpot [ 2001 points up to Gmax=  52.9 (1/bohr)]
  Atomic number:  6;  ionic charge:  4.000000
    Shell 1: l = 0; rc = 1.48 bohr
File: S_00.recpot [ 2001 points up to Gmax=  52.9 (1/bohr)]
  Atomic number: 16;  ionic charge:  6.000000
    Shell 1: l = 0; rc = 1.90 bohr
    Shell 2: l = 2; rc = 1.84 bohr
File: O_02.recpot [ 2001 points up to Gmax=  52.9 (1/bohr)]
  Atomic number:  8;  ionic charge:  6.000000
    Shell 1: l = 0; rc = 1.31 bohr
<<<<<<<<<<<<<<<<<<<<<<<<<<<<<<<<<<<<<<<<>>>>>>>>>>>>>>>>>>>>>>>>>>>>>>>>>>>>>>>>

-------------------------- Atom counting information ---------------------------
Symbol    Natoms    Nngwfs    Nprojs
  N        236       944       236
  H       1311      1311         0
  C        810      3240       810
  S          6        54        36
  O        239       956       239
.......   ......    ......    ......
Totals:   2602      6505      1321
--------------------------------------------------------------------------------

=============================== PSINC grid sizes ===============================
                      Simulation cell:  273 x 286 x 320
                              FFT-box:   99 x 105 x  99
                                  PPD:    7 x  11 x   1
Grid space d1=  0.504080586081a0 (KE cutoff=  29.89538Eh = 813.49465eV)
Grid space d2=  0.498762237762a0 (KE cutoff=  30.53633Eh = 830.93588eV)
Grid space d3=  0.502671875000a0 (KE cutoff=  30.06317Eh = 818.06059eV)
================================================================================

********************* Fourier parallelisation information **********************
       Coarse grid (whole simulation cell) dimensions:    273   286   320
          Real-space ('12') slabs/node (min max mean):      5     6     5
         Recip-space ('23') slabs/node (min max mean):      2     3     2
********************************************************************************

********************* Fourier parallelisation information **********************
       Double grid (whole simulation cell) dimensions:    546   572   640
          Real-space ('12') slabs/node (min max mean):     10    11    10
         Recip-space ('23') slabs/node (min max mean):      4     5     4
********************************************************************************
ONETEP fine grid is 546 x 572 x 640 gridpoints, 137.6140 x 142.6460 x 160.8550 bohr.
FD multigrid is     545 x 569 x 633 gridpoints, 137.3620 x 141.8979 x 159.0956 bohr.


Calculating local pseudopotential in open BC on a radial grid ...
Discrepancy between calculated realspace psloc and -Z/x on [5a0,255.264a0]:
max |rel. diff| # avg |rel. diff| #  avg rel. diff #  f # pseudopotential file
 0.000296759711    0.000009439468   0.000000085927   54  'N_00.recpot'
 0.000490027943    0.000021572324  -0.000000031900   54  'H_04.recpot'
 0.000320795249    0.000014598087   0.000000111901   54  'C_01.recpot'
 0.000388730920    0.000016096375   0.000000514750   54  'S_00.recpot'
 0.000828383344    0.000035421288   0.000000087443   54  'O_02.recpot'
... done

Atom SCF Calculation for N  : Z (AE atom) =   7 : Z (PS atom) =   5
Config String:
Orbitals (num,occ):  2     2.00 3.00
Orbitals   (num,l):  2        0    1
Real-space Grid (nr,dr,rmax): 1203    0.0066555740    8.0000000000
Spherical Bessel Basis (nsws,lmax,cutoff):   47    1  176.3951722778
Confining potential (l,width,scale):  0    3.0000000000  100.0000000000
Confining potential (l,width,scale):  1    3.0000000000  100.0000000000
  1         -4.7312375307   -3.4155304497    7.0523828109   -1.9351020946
  2         -9.7309464766   -2.0532547791    8.2966052865   -2.2494486027
  3         -9.6627394379   -2.1124926340    8.2327997121   -2.2369778124
  4         -9.6814993499   -2.1215521045    8.2229805960   -2.2365178421
  5         -9.6843326483   -2.1250939529    8.2191374534   -2.2362718126
  6         -9.6859628709   -2.1267894855    8.2172963573   -2.2362066344
  7         -9.6867347035   -2.1276425665    8.2163697352   -2.2361903369
  8         -9.6870802100   -2.1280764625    8.2158983890   -2.2361891460
  9         -9.6872290423   -2.1282977424    8.2156580222   -2.2361920435
 10         -9.6872901988   -2.1284107021    8.2155353368   -2.2361953393
 11         -9.6873135296   -2.1284684031    8.2154726809   -2.2361979819
 12         -9.6873212476   -2.1284978948    8.2154406648   -2.2361998431
 13         -9.6873229586   -2.1285129774    8.2154242957   -2.2362010676
 14         -9.6873226456   -2.1285206957    8.2154159216   -2.2362018403
 15         -9.6873218534   -2.1285246479    8.2154116349   -2.2362023142
 16         -9.6873212599   -2.1285262679    8.2154098784   -2.2362025420
 17         -9.6873207834   -2.1285272564    8.2154088068   -2.2362026955
 18         -9.6873204210   -2.1285278596    8.2154081529   -2.2362027982
 19         -9.6873201550   -2.1285282280    8.2154077538   -2.2362028667
 20         -9.6873199645   -2.1285284529    8.2154075102   -2.2362029121
 21         -9.6873198305   -2.1285285903    8.2154073614   -2.2362029421
 22         -9.6873197377   -2.1285286742    8.2154072705   -2.2362029618
Atom SCF converged after  22 iterations to a total energy of     -9.68731974

Atom SCF Calculation for H  : Z (AE atom) =   1 : Z (PS atom) =   1
Config String:
Orbitals (num,occ):  1     1.00
Orbitals   (num,l):  1        0
Real-space Grid (nr,dr,rmax): 1203    0.0066555740    8.0000000000
Spherical Bessel Basis (nsws,lmax,cutoff):   47    0  176.3951722778
Confining potential (l,width,scale):  0    3.0000000000  100.0000000000
  1         -0.3194257691   -0.2393854593    0.2820953124   -0.2424203209
  2         -0.3951823392   -0.2377116493    0.2886404059   -0.2475147891
  3         -0.4317044583   -0.2352244387    0.2921333887   -0.2514046172
  4         -0.4470703708   -0.2341892222    0.2934391879   -0.2531009782
  5         -0.4532132900   -0.2338556667    0.2938388426   -0.2537313520
  6         -0.4556579251   -0.2337612552    0.2939448584   -0.2539550462
  7         -0.4566418315   -0.2337377355    0.2939680120   -0.2540342273
  8         -0.4570437922   -0.2337331116    0.2939708287   -0.2540627372
  9         -0.4572102946   -0.2337328328    0.2939698291   -0.2540732650
 10         -0.4572800424   -0.2337332404    0.2939687193   -0.2540772588
 11         -0.4573095100   -0.2337335791    0.2939680317   -0.2540788122
 12         -0.4573220379   -0.2337337762    0.2939676699   -0.2540794294
 13         -0.4573273880   -0.2337338775    0.2939674931   -0.2540796787
 14         -0.4573296803   -0.2337339266    0.2939674099   -0.2540797808
 15         -0.4573306647   -0.2337339495    0.2939673718   -0.2540798230
 16         -0.4573310882   -0.2337339601    0.2939673545   -0.2540798406
 17         -0.4573312706   -0.2337339649    0.2939673467   -0.2540798479
 18         -0.4573313493   -0.2337339670    0.2939673433   -0.2540798510
Atom SCF converged after  18 iterations to a total energy of     -0.45733135

Atom SCF Calculation for C  : Z (AE atom) =   6 : Z (PS atom) =   4
Config String:
Orbitals (num,occ):  2     2.00 2.00
Orbitals   (num,l):  2        0    1
Real-space Grid (nr,dr,rmax): 1203    0.0066555740    8.0000000000
Spherical Bessel Basis (nsws,lmax,cutoff):   47    1  176.3951722778
Confining potential (l,width,scale):  0    3.0000000000  100.0000000000
Confining potential (l,width,scale):  1    3.0000000000  100.0000000000
  1         -5.2976922011   -1.3069684169    4.5135249990   -1.4493313817
  2         -5.3721716256   -1.3429755895    4.4750154450   -1.4361613026
  3         -5.3809959565   -1.3617365618    4.4541655428   -1.4305930207
  4         -5.3918938866   -1.3667928461    4.4484735100   -1.4294652294
  5         -5.3956096428   -1.3688539142    4.4461376126   -1.4290734646
  6         -5.3968271862   -1.3696852393    4.4451910874   -1.4289366866
  7         -5.3972028401   -1.3700178062    4.4448112275   -1.4288900460
  8         -5.3973067903   -1.3701500158    4.4446598370   -1.4288749220
  9         -5.3973286940   -1.3702023868    4.4445997329   -1.4288704293
 10         -5.3973289850   -1.3702230869    4.4445759233   -1.4288693188
 11         -5.3973254264   -1.3702312560    4.4445665049   -1.4288691775
 12         -5.3973224003   -1.3702344755    4.4445627836   -1.4288692549
 13         -5.3973208708   -1.3702354890    4.4445616088   -1.4288693270
 14         -5.3973198783   -1.3702360102    4.4445610034   -1.4288693814
 15         -5.3973192535   -1.3702362780    4.4445606917   -1.4288694190
 16         -5.3973188684   -1.3702364155    4.4445605313   -1.4288694437
 17         -5.3973186349   -1.3702364860    4.4445604489   -1.4288694595
 18         -5.3973184951   -1.3702365221    4.4445604065   -1.4288694693
 19         -5.3973184122   -1.3702365405    4.4445603848   -1.4288694753
Atom SCF converged after  19 iterations to a total energy of     -5.39731841

Atom SCF Calculation for S  : Z (AE atom) =  16 : Z (PS atom) =   6
Config String:
Orbitals (num,occ):  3     2.00 4.00 0.00
Orbitals   (num,l):  3        0    1    2
Real-space Grid (nr,dr,rmax): 1203    0.0066555740    8.0000000000
Spherical Bessel Basis (nsws,lmax,cutoff):   47    2  176.3951722778
Confining potential (l,width,scale):  0    3.0000000000  100.0000000000
Confining potential (l,width,scale):  1    3.0000000000  100.0000000000
Confining potential (l,width,scale):  2    3.0000000000  100.0000000000
  1        -12.4735062396   -1.0328741412   10.1554312477   -2.4512393157
  2         -9.9458301913   -2.4607392455    8.3041325857   -2.0306994528
  3        -10.1450417646   -2.2931184565    8.4831893826   -2.0812538287
  4        -10.1528335592   -2.2733105793    8.5050388867   -2.0896035179
  5        -10.1571940363   -2.2633716629    8.5160794258   -2.0939370707
  6        -10.1594380571   -2.2584938667    8.5215163935   -2.0961289008
  7        -10.1605856507   -2.2561081821    8.5241804044   -2.0972291378
  8        -10.1611799191   -2.2549395235    8.5254868240   -2.0977806248
  9        -10.1614918752   -2.2543658586    8.5261285885   -2.0980571586
 10        -10.1616572884   -2.2540839121    8.5264441898   -2.0981959233
 11        -10.1617455602   -2.2539453058    8.5265994231   -2.0982656006
 12        -10.1617928447   -2.2538772062    8.5266757320   -2.0983006047
 13        -10.1618182292   -2.2538437891    8.5267131983   -2.0983181961
 14        -10.1618318741   -2.2538274201    8.5267315620   -2.0983270391
 15        -10.1618392144   -2.2538194197    8.5267405433   -2.0983314852
 16        -10.1618431651   -2.2538155200    8.5267449245   -2.0983337210
 17        -10.1618452923   -2.2538136252    8.5267470551   -2.0983348455
 18        -10.1618464380   -2.2538127080    8.5267480875   -2.0983354110
 19        -10.1618470552   -2.2538122659    8.5267485856   -2.0983356955
 20        -10.1618473878   -2.2538120540    8.5267488248   -2.0983358386
 21        -10.1618475670   -2.2538119530    8.5267489389   -2.0983359106
 22        -10.1618476637   -2.2538119053    8.5267489929   -2.0983359468
Atom SCF converged after  22 iterations to a total energy of    -10.16184766

Atom SCF Calculation for O  : Z (AE atom) =   8 : Z (PS atom) =   6
Config String:
Orbitals (num,occ):  2     2.00 4.00
Orbitals   (num,l):  2        0    1
Real-space Grid (nr,dr,rmax): 1203    0.0066555740    8.0000000000
Spherical Bessel Basis (nsws,lmax,cutoff):   47    1  176.3951722778
Confining potential (l,width,scale):  0    3.0000000000  100.0000000000
Confining potential (l,width,scale):  1    3.0000000000  100.0000000000
  1         -1.8735052164   -7.5539365035   10.1554312477   -2.4512393157
  2        -16.0318313751   -3.1285771268   13.6395848164   -3.2358799643
  3        -15.9524020423   -3.0762819706   13.6967272503   -3.2536856837
  4        -15.8521515939   -3.0781493909   13.6951909330   -3.2561700440
  5        -15.8357139793   -3.0748501933   13.6988803334   -3.2580493133
  6        -15.8246052853   -3.0740779781   13.6997881576   -3.2588327446
  7        -15.8189019501   -3.0737449687   13.7001869911   -3.2592378801
  8        -15.8159785510   -3.0736026016   13.7003615168   -3.2594475790
  9        -15.8144776168   -3.0735437994   13.7004360379   -3.2595560735
 10        -15.8137058024   -3.0735207882   13.7004667348   -3.2596122456
 11        -15.8133083127   -3.0735125946   13.7004786868   -3.2596413656
 12        -15.8131032938   -3.0735102195   13.7004828997   -3.2596564858
 13        -15.8129973902   -3.0735099286   13.7004840891   -3.2596643505
 14        -15.8129426040   -3.0735102506   13.7004842061   -3.2596684489
 15        -15.8129142203   -3.0735106556   13.7004840157   -3.2596705887
 16        -15.8128994940   -3.0735109855   13.7004837906   -3.2596717080
 17        -15.8128918425   -3.0735112169   13.7004836103   -3.2596722946
 18        -15.8128878614   -3.0735113674   13.7004834848   -3.2596726026
 19        -15.8128857871   -3.0735114608   13.7004834035   -3.2596727646
 20        -15.8128847048   -3.0735115170   13.7004833533   -3.2596728500
 21        -15.8128841394   -3.0735115501   13.7004833231   -3.2596728951
 22        -15.8128838436   -3.0735115693   13.7004833054   -3.2596729190
 23        -15.8128836887   -3.0735115802   13.7004832951   -3.2596729316
 24        -15.8128836074   -3.0735115864   13.7004832893   -3.2596729383
Atom SCF converged after  24 iterations to a total energy of    -15.81288361

========================== Calculation in vacuum ==============================
= Adjusting the following parameters: 
= is_implicit_solvent: F
= is_include_apolar: F
= write_denskern: T
= write_tightbox_ngwfs: T
= restart read filename prefix: ""
= restart write filename prefix: "vacuum_"
===============================================================================

Determining parallel strategy ...
... using space-filling curve
... NGWF load balancing: max    109;  min    108;  average    108
... Projector load balancing: max     25;  min     21;  average     22
... done
Calculating direct Ion-Ion energy ...
Ion-Ion Energy        :    826821.40188413066790
======================= Empirical dispersion information =======================
Model : Elstner
Dispersion Correction Energy: -0.32171475E+01 Hartree
================================================================================
Basis initialisation ...... NGWF spheres initialised
... Projector spheres initialised
... NGWF tight boxes initialised
... Tight-boxes gathered
... NGWF basis size (local,global):     931380  56013419
... Nonlocal pseudopotential projector initialisation
... done

========================== Sparse matrix information ===========================
                        Overlap matrix filling:   6.69%
                        Density kernel filling: 100.00%
              NGWF-Proj overlap matrix filling:   1.75%
                    Hamiltonian matrix filling:   7.53%
                  NGWF diagonal matrix filling:   0.05%
                             KS matrix filling: 100.00% 
                           KSKS matrix filling: 100.00% 
================================================================================

Sparse matrix initialisation ... done

Generating smeared ion density ... done
Smeared ion self correction:     -14457.169564
Smeared ion non-self correction: -826773.524518
NGWF initialisation ...... done
============ Calculation of NGWF S^-1 using Hotelling algorithm ================ 
         Iteration  |  Frobenius norm and Maximum abs value    (of I-S*S_n^-1)   
               1       0.78445449E+02     0.98232564E+00
               2       0.76569225E+02     0.96512250E+00
               3       0.73538866E+02     0.93203399E+00
               4       0.69244667E+02     0.87057768E+00
               5       0.63909130E+02     0.76527428E+00
               6       0.57926802E+02     0.70143167E+00
               7       0.51930484E+02     0.66693593E+00
               8       0.46387089E+02     0.64178153E+00
               9       0.40279536E+02     0.60038420E+00
              10       0.31937976E+02     0.52771190E+00
              11       0.21313432E+02     0.42358428E+00
              12       0.10748069E+02     0.28574946E+00
              13       0.34552633E+01     0.13544702E+00
              14       0.52137239E+00     0.32469903E-01
              15       0.22598599E-01     0.19730310E-02
              16       0.97963318E-04     0.10025169E-04
              17       0.31070341E-08     0.43956394E-09
              18       0.88478484E-13     0.39968029E-14
================================================================================
Calculating local pseudopotential in open BC on the fine real space grid ...
... done

MG BCs: +ve charge blocks (gridpoints):     20923 (   16458144).
MG BCs: -ve charge blocks (gridpoints):      8160 (    1096031).
MG BCs:     Elided blocks (gridpoints):    179717 (  178742290).
MG BCs: Computational effort saved:  99.9852%.
MG BCs: Charge after coarse-graining:           -9.0002337.
MG DL_MG: Calling solver with defect correction order = 8
MG DL_MG: Solver finished
MG Hartree energy from (\int phi*rho dr):              1462.722316
MG Hartree energy from (\int eps (grad phi)^2 dr):     1462.111163
MG Discrepancy due to finite box and discretization:     -0.611153 (  -0.04178%)
MG Correction to account for finite box:                  0.464423
MG Remaining discrepancy, due to discretization:         -0.146730 (  -0.01003%)
Up spin density kernel initialisation ... 
======= Optimisation of K by Palser-Manolopoulos canonical purification ======== 
         Iteration  |  Band structure energy |    c_n   
               1       -2582.61223800042580    0.5266631
               2       -2758.05644116005169    0.5168507
               3       -2937.87458529023024    0.5153430
               4       -3087.90742965024992    0.5292871
               5       -3179.84957789112786    0.5659889
               6       -3218.07349315217834    0.6108961
               7       -3231.05784961525114    0.6205039
               8       -3236.77085774063607    0.6158414
               9       -3239.56622151353076    0.6255008
              10       -3240.72360576115261    0.6545667
              11       -3241.14802078654066    0.6895608
              12       -3241.31069708147425    0.6976711
              13       -3241.39076720039884    0.6579122
              14       -3241.44365342258789    0.5873939
              15       -3241.47886303699488    0.5174579
              16       -3241.49443180050184    0.4941410
              17       -3241.49706632147809    0.5188034
              18       -3241.49769254658804    0.5202112
              19       -3241.49788727472787    0.5041692
              20       -3241.49800242379661    0.5001101
              21       -3241.49812621400179    0.5000001
              22       -3241.49824349712799    0.5000000
              23       -3241.49831001020630    0.5000000
              24       -3241.49832390957226    0.5000000
              25       -3241.49832437856548    0.5000061
              26       -3241.49832437907071    0.5000061
Termination criterion satisfied: band energy change below threshold.
Final occupancy bounds: [    0.00000000000000:    1.00000000000000]
Closest occupancy to 0.5:     1.00000000000000
================================================================================
... done

Writing density kernel to file "host_31641.vacuum_dkn" ... done

>>> Optimising kernel for current NGWFs:
   Initial electron number for spin 1:    7192.00000000
     Final electron number for spin 1:    7192.00000000

=================== Penalty functional idempotency correction ==================
 RMS occupancy error at iteration   1:  0.000000 (step -0.5000 Ne1=   7192.0000)
            Final RMS occupancy error   :  0.000000 (Ne1=   7192.0000)
               Final occupancy bounds   : [  0.0000,  1.0000]
================================================================================

................................................................................
<<<<<<<<<<<<<< LNV (Original version) density kernel optimisation >>>>>>>>>>>>>>
~~~~~~~~~~~~~~~~~~~~~~~~~~~~~~~~~~~~~~~~~~~~~~~~~~~~~~~~~~~~~~~~~~~~~~~~~~~~~~~~
   iter  |      energy (Eh)       | rms gradient |  commutator  |   dE (Eh)
MG BCs: +ve charge blocks (gridpoints):     31585 (   17546027).
MG BCs: -ve charge blocks (gridpoints):      8484 (    1130238).
MG BCs:     Elided blocks (gridpoints):    169048 (  177620200).
MG BCs: Computational effort saved:  99.9796%.
MG BCs: Charge after coarse-graining:           -9.0009757.
MG DL_MG: Calling solver with defect correction order = 8
MG DL_MG: Solver finished
MG Hartree energy from (\int phi*rho dr):              1417.695913
MG Hartree energy from (\int eps (grad phi)^2 dr):     1417.034774
MG Discrepancy due to finite box and discretization:     -0.661139 (  -0.04663%)
MG Correction to account for finite box:                  0.472151
MG Remaining discrepancy, due to discretization:         -0.188988 (  -0.01333%)
      ideal mu1:      -0.702512839633
             Q0:  -11509.168861540500
             G0:    -144.174616782089
   RMS gradient:       0.001845852958
MG BCs: +ve charge blocks (gridpoints):     31553 (   17632375).
MG BCs: -ve charge blocks (gridpoints):      8378 (    1109365).
MG BCs:     Elided blocks (gridpoints):    169080 (  177554725).
MG BCs: Computational effort saved:  99.9797%.
MG BCs: Charge after coarse-graining:           -9.0009934.
MG DL_MG: Calling solver with defect correction order = 8
MG DL_MG: Solver finished
MG Hartree energy from (\int phi*rho dr):              1442.458834
MG Hartree energy from (\int eps (grad phi)^2 dr):     1441.814005
MG Discrepancy due to finite box and discretization:     -0.644829 (  -0.04470%)
MG Correction to account for finite box:                  0.471444
MG Remaining discrepancy, due to discretization:         -0.173385 (  -0.01202%)
     Trial step:       0.500000000000
             Q1:  -11520.345981717110
 Quadratic coef:      60.910188214435
 Linear coef   :     -72.087308391045
           Qmin:  -11530.497723687384
Quadratic minimum step length (  0.295875413064) accepted
    Initial Ne1:    7192.00000000
      Final Ne1:    7192.00000000

=================== Penalty functional idempotency correction ==================
 RMS occupancy error at iteration   1:  0.003386 (step -0.4886 Ne1=   7192.0000)
 RMS occupancy error at iteration   2:  0.000025 (step -0.5000 Ne1=   7192.0000)
            Final RMS occupancy error   :  0.000000 (Ne1=   7192.0000)
               Final occupancy bounds   : [  0.0000,  1.0000]
================================================================================

    1        -1.150916886154E+04     1.8459E-03     1.6695E-03
MG BCs: +ve charge blocks (gridpoints):     31567 (   17598890).
MG BCs: -ve charge blocks (gridpoints):      8419 (    1118266).
MG BCs:     Elided blocks (gridpoints):    169066 (  177579309).
MG BCs: Computational effort saved:  99.9796%.
MG BCs: Charge after coarse-graining:           -9.0009859.
MG DL_MG: Calling solver with defect correction order = 8
MG DL_MG: Solver finished
MG Hartree energy from (\int phi*rho dr):              1424.369733
MG Hartree energy from (\int eps (grad phi)^2 dr):     1423.719173
MG Discrepancy due to finite box and discretization:     -0.650560 (  -0.04567%)
MG Correction to account for finite box:                  0.471633
MG Remaining discrepancy, due to discretization:         -0.178928 (  -0.01256%)
      ideal mu1:      -0.744773967524
             Q0:  -11530.901519392268
             G0:     -11.807494223774
   RMS gradient:       0.000524671554
MG BCs: +ve charge blocks (gridpoints):     31567 (   17617010).
MG BCs: -ve charge blocks (gridpoints):      8395 (    1112838).
MG BCs:     Elided blocks (gridpoints):    169067 (  177566617).
MG BCs: Computational effort saved:  99.9796%.
MG BCs: Charge after coarse-graining:           -9.0009893.
MG DL_MG: Calling solver with defect correction order = 8
MG DL_MG: Solver finished
MG Hartree energy from (\int phi*rho dr):              1429.772750
MG Hartree energy from (\int eps (grad phi)^2 dr):     1429.125897
MG Discrepancy due to finite box and discretization:     -0.646852 (  -0.04524%)
MG Correction to account for finite box:                  0.471094
MG Remaining discrepancy, due to discretization:         -0.175758 (  -0.01229%)
     Trial step:       0.384626710633
             Q1:  -11533.672126077814
 Quadratic coef:       1.770870978558
 Linear coef   :      -4.541477664104
           Qmin:  -11533.813224934805
Quadratic minimum step length (  0.493196183264) accepted
    Initial Ne1:    7191.99992047
      Final Ne1:    7192.00000000

=================== Penalty functional idempotency correction ==================
 RMS occupancy error at iteration   1:  0.001771 (step -0.4934 Ne1=   7192.0000)
 RMS occupancy error at iteration   2:  0.000009 (step -0.5000 Ne1=   7192.0000)
            Final RMS occupancy error   :  0.000000 (Ne1=   7192.0000)
               Final occupancy bounds   : [  0.0000,  1.0000]
================================================================================

    2        -1.153090151939E+04     5.2467E-04     4.7455E-04    -2.1733E+01
MG BCs: +ve charge blocks (gridpoints):     31569 (   17621945).
MG BCs: -ve charge blocks (gridpoints):      8386 (    1111358).
MG BCs:     Elided blocks (gridpoints):    169066 (  177563162).
MG BCs: Computational effort saved:  99.9796%.
MG BCs: Charge after coarse-graining:           -9.0009904.
MG DL_MG: Calling solver with defect correction order = 8
MG DL_MG: Solver finished
MG Hartree energy from (\int phi*rho dr):              1431.340491
MG Hartree energy from (\int eps (grad phi)^2 dr):     1430.694609
MG Discrepancy due to finite box and discretization:     -0.645882 (  -0.04512%)
MG Correction to account for finite box:                  0.470956
MG Remaining discrepancy, due to discretization:         -0.174926 (  -0.01222%)
      ideal mu1:      -0.768261393407
             Q0:  -11533.848516796017
             G0:      -1.825082178336
   RMS gradient:       0.000206409397
MG BCs: +ve charge blocks (gridpoints):     31575 (   17621531).
MG BCs: -ve charge blocks (gridpoints):      8389 (    1112162).
MG BCs:     Elided blocks (gridpoints):    169060 (  177562772).
MG BCs: Computational effort saved:  99.9796%.
MG BCs: Charge after coarse-graining:           -9.0009901.
MG DL_MG: Calling solver with defect correction order = 8
MG DL_MG: Solver finished
MG Hartree energy from (\int phi*rho dr):              1429.227857
MG Hartree energy from (\int eps (grad phi)^2 dr):     1428.582369
MG Discrepancy due to finite box and discretization:     -0.645488 (  -0.04516%)
MG Correction to account for finite box:                  0.470739
MG Remaining discrepancy, due to discretization:         -0.174749 (  -0.01223%)
     Trial step:       0.435541531505
             Q1:  -11534.308488911367
 Quadratic coef:       0.334926971724
 Linear coef   :      -0.794899087074
           Qmin:  -11534.320160327277
Quadratic minimum step length (  0.516846350107) accepted
    Initial Ne1:    7191.99996725
      Final Ne1:    7192.00000000

=================== Penalty functional idempotency correction ==================
 RMS occupancy error at iteration   1:  0.000580 (step -0.4977 Ne1=   7192.0000)
 RMS occupancy error at iteration   2:  0.000001 (step -0.5000 Ne1=   7192.0000)
            Final RMS occupancy error   :  0.000000 (Ne1=   7192.0000)
               Final occupancy bounds   : [  0.0000,  1.0000]
================================================================================

    3        -1.153384851680E+04     2.0641E-04     1.8669E-04    -2.9470E+00
MG BCs: +ve charge blocks (gridpoints):     31576 (   17621420).
MG BCs: -ve charge blocks (gridpoints):      8391 (    1112345).
MG BCs:     Elided blocks (gridpoints):    169059 (  177562700).
MG BCs: Computational effort saved:  99.9796%.
MG BCs: Charge after coarse-graining:           -9.0009900.
MG DL_MG: Calling solver with defect correction order = 8
MG DL_MG: Solver finished
MG Hartree energy from (\int phi*rho dr):              1428.841642
MG Hartree energy from (\int eps (grad phi)^2 dr):     1428.196219
MG Discrepancy due to finite box and discretization:     -0.645423 (  -0.04517%)
MG Correction to account for finite box:                  0.470698
MG Remaining discrepancy, due to discretization:         -0.174725 (  -0.01223%)
      ideal mu1:      -0.769243600524
             Q0:  -11534.324397367192
             G0:      -0.432086839573
   RMS gradient:       0.000100545977
MG BCs: +ve charge blocks (gridpoints):     31576 (   17622340).
MG BCs: -ve charge blocks (gridpoints):      8388 (    1112276).
MG BCs:     Elided blocks (gridpoints):    169059 (  177561849).
MG BCs: Computational effort saved:  99.9796%.
MG BCs: Charge after coarse-graining:           -9.0009900.
MG DL_MG: Calling solver with defect correction order = 8
MG DL_MG: Solver finished
MG Hartree energy from (\int phi*rho dr):              1430.019598
MG Hartree energy from (\int eps (grad phi)^2 dr):     1429.374209
MG Discrepancy due to finite box and discretization:     -0.645389 (  -0.04513%)
MG Correction to account for finite box:                  0.470575
MG Remaining discrepancy, due to discretization:         -0.174814 (  -0.01222%)
     Trial step:       0.474455530981
             Q1:  -11534.422556240577
 Quadratic coef:       0.106847117515
 Linear coef   :      -0.205005990900
           Qmin:  -11534.422732861125
Quadratic minimum step length (  0.455165420129) accepted
    Initial Ne1:    7191.99999302
      Final Ne1:    7192.00000000

=================== Penalty functional idempotency correction ==================
 RMS occupancy error at iteration   1:  0.000186 (step -0.4992 Ne1=   7192.0000)
            Final RMS occupancy error   :  0.000000 (Ne1=   7192.0000)
               Final occupancy bounds   : [ -0.0000,  1.0000]
================================================================================

    4        -1.153432439737E+04     1.0055E-04     9.0942E-05    -4.7588E-01
MG BCs: +ve charge blocks (gridpoints):     31575 (   17622298).
MG BCs: -ve charge blocks (gridpoints):      8388 (    1112270).
MG BCs:     Elided blocks (gridpoints):    169060 (  177561897).
MG BCs: Computational effort saved:  99.9796%.
MG BCs: Charge after coarse-graining:           -9.0009900.
MG DL_MG: Calling solver with defect correction order = 8
MG DL_MG: Solver finished
MG Hartree energy from (\int phi*rho dr):              1429.971629
MG Hartree energy from (\int eps (grad phi)^2 dr):     1429.326238
MG Discrepancy due to finite box and discretization:     -0.645390 (  -0.04513%)
MG Correction to account for finite box:                  0.470580
MG Remaining discrepancy, due to discretization:         -0.174810 (  -0.01222%)
      ideal mu1:      -0.769433475021
             Q0:  -11534.423152339528
             G0:      -0.103998613064
   RMS gradient:       0.000049473953
MG BCs: +ve charge blocks (gridpoints):     31575 (   17622463).
MG BCs: -ve charge blocks (gridpoints):      8387 (    1112124).
MG BCs:     Elided blocks (gridpoints):    169060 (  177561878).
MG BCs: Computational effort saved:  99.9796%.
MG BCs: Charge after coarse-graining:           -9.0009900.
MG DL_MG: Calling solver with defect correction order = 8
MG DL_MG: Solver finished
MG Hartree energy from (\int phi*rho dr):              1430.401996
MG Hartree energy from (\int eps (grad phi)^2 dr):     1429.756478
MG Discrepancy due to finite box and discretization:     -0.645518 (  -0.04513%)
MG Correction to account for finite box:                  0.470568
MG Remaining discrepancy, due to discretization:         -0.174950 (  -0.01223%)
     Trial step:       0.464710394861
             Q1:  -11534.448511262657
 Quadratic coef:       0.022970313414
 Linear coef   :      -0.048329236542
           Qmin:  -11534.448573358635
Quadratic minimum step length (  0.488872271621) accepted
    Initial Ne1:    7192.00162776
      Final Ne1:    7192.00000000

=================== Penalty functional idempotency correction ==================
 RMS occupancy error at iteration   1:  0.000065 (step -0.4997 Ne1=   7192.0000)
            Final RMS occupancy error   :  0.000000 (Ne1=   7192.0000)
               Final occupancy bounds   : [ -0.0000,  1.0000]
================================================================================

    5        -1.153442315234E+04     4.9474E-05     4.4748E-05    -9.8755E-02
MG BCs: +ve charge blocks (gridpoints):     31575 (   17622466).
MG BCs: -ve charge blocks (gridpoints):      8387 (    1112118).
MG BCs:     Elided blocks (gridpoints):    169060 (  177561881).
MG BCs: Computational effort saved:  99.9796%.
MG BCs: Charge after coarse-graining:           -9.0009900.
MG DL_MG: Calling solver with defect correction order = 8
MG DL_MG: Solver finished
MG Hartree energy from (\int phi*rho dr):              1430.424408
MG Hartree energy from (\int eps (grad phi)^2 dr):     1429.778883
MG Discrepancy due to finite box and discretization:     -0.645525 (  -0.04513%)
MG Correction to account for finite box:                  0.470567
MG Remaining discrepancy, due to discretization:         -0.174957 (  -0.01223%)
      ideal mu1:      -0.769369020648
             Q0:  -11534.448621109361
             G0:      -0.030222382808
   RMS gradient:       0.000026691970
MG BCs: +ve charge blocks (gridpoints):     31576 (   17622132).
MG BCs: -ve charge blocks (gridpoints):      8389 (    1112307).
MG BCs:     Elided blocks (gridpoints):    169059 (  177562026).
MG BCs: Computational effort saved:  99.9796%.
MG BCs: Charge after coarse-graining:           -9.0009898.
MG DL_MG: Calling solver with defect correction order = 8
MG DL_MG: Solver finished
MG Hartree energy from (\int phi*rho dr):              1429.790554
MG Hartree energy from (\int eps (grad phi)^2 dr):     1429.145039
MG Discrepancy due to finite box and discretization:     -0.645515 (  -0.04515%)
MG Correction to account for finite box:                  0.470566
MG Remaining discrepancy, due to discretization:         -0.174949 (  -0.01224%)
     Trial step:       0.476638255264
             Q1:  -11534.458068991778
 Quadratic coef:       0.004957261393
 Linear coef   :      -0.014405143812
           Qmin:  -11534.459085968472
Quadratic minimum step length (  0.692523761441) accepted
    Initial Ne1:    7192.00096933
      Final Ne1:    7192.00000000

=================== Penalty functional idempotency correction ==================
 RMS occupancy error at iteration   1:  0.000037 (step -0.4998 Ne1=   7192.0000)
            Final RMS occupancy error   :  0.000000 (Ne1=   7192.0000)
               Final occupancy bounds   : [ -0.0000,  1.0000]
================================================================================

    6        -1.153444862111E+04     2.6692E-05     2.4142E-05    -2.5469E-02
MG BCs: +ve charge blocks (gridpoints):     31576 (   17622008).
MG BCs: -ve charge blocks (gridpoints):      8389 (    1112377).
MG BCs:     Elided blocks (gridpoints):    169059 (  177562080).
MG BCs: Computational effort saved:  99.9796%.
MG BCs: Charge after coarse-graining:           -9.0009898.
MG DL_MG: Calling solver with defect correction order = 8
MG DL_MG: Solver finished
MG Hartree energy from (\int phi*rho dr):              1429.502795
MG Hartree energy from (\int eps (grad phi)^2 dr):     1428.857285
MG Discrepancy due to finite box and discretization:     -0.645510 (  -0.04516%)
MG Correction to account for finite box:                  0.470565
MG Remaining discrepancy, due to discretization:         -0.174945 (  -0.01224%)
      ideal mu1:      -0.769179219419
             Q0:  -11534.459094598191
             G0:      -0.015390566274
   RMS gradient:       0.000019071287
MG BCs: +ve charge blocks (gridpoints):     31575 (   17622453).
MG BCs: -ve charge blocks (gridpoints):      8389 (    1112145).
MG BCs:     Elided blocks (gridpoints):    169060 (  177561867).
MG BCs: Computational effort saved:  99.9796%.
MG BCs: Charge after coarse-graining:           -9.0009899.
MG DL_MG: Calling solver with defect correction order = 8
MG DL_MG: Solver finished
MG Hartree energy from (\int phi*rho dr):              1430.112808
MG Hartree energy from (\int eps (grad phi)^2 dr):     1429.467340
MG Discrepancy due to finite box and discretization:     -0.645468 (  -0.04513%)
MG Correction to account for finite box:                  0.470541
MG Remaining discrepancy, due to discretization:         -0.174927 (  -0.01223%)
     Trial step:       0.574528778550
             Q1:  -11534.463146436610
 Quadratic coef:       0.004790484823
 Linear coef   :      -0.008842323242
           Qmin:  -11534.463174909642
Quadratic minimum step length (  0.530235389449) accepted
    Initial Ne1:    7192.00012539
      Final Ne1:    7192.00000000

=================== Penalty functional idempotency correction ==================
 RMS occupancy error at iteration   1:  0.000002 (step -0.5000 Ne1=   7192.0000)
            Final RMS occupancy error   :  0.000000 (Ne1=   7192.0000)
               Final occupancy bounds   : [  0.0000,  1.0000]
================================================================================

    7        -1.153445909460E+04     1.9071E-05     1.7250E-05    -1.0473E-02
MG BCs: +ve charge blocks (gridpoints):     31575 (   17622421).
MG BCs: -ve charge blocks (gridpoints):      8389 (    1112165).
MG BCs:     Elided blocks (gridpoints):    169060 (  177561879).
MG BCs: Computational effort saved:  99.9796%.
MG BCs: Charge after coarse-graining:           -9.0009899.
MG DL_MG: Calling solver with defect correction order = 8
MG DL_MG: Solver finished
MG Hartree energy from (\int phi*rho dr):              1430.065716
MG Hartree energy from (\int eps (grad phi)^2 dr):     1429.420245
MG Discrepancy due to finite box and discretization:     -0.645471 (  -0.04514%)
MG Correction to account for finite box:                  0.470543
MG Remaining discrepancy, due to discretization:         -0.174928 (  -0.01223%)
      ideal mu1:      -0.769464873489
             Q0:  -11534.463175013196
             G0:      -0.009401810407
   RMS gradient:       0.000014906533
MG BCs: +ve charge blocks (gridpoints):     31575 (   17622433).
MG BCs: -ve charge blocks (gridpoints):      8388 (    1112169).
MG BCs:     Elided blocks (gridpoints):    169060 (  177561863).
MG BCs: Computational effort saved:  99.9796%.
MG BCs: Charge after coarse-graining:           -9.0009899.
MG DL_MG: Calling solver with defect correction order = 8
MG DL_MG: Solver finished
MG Hartree energy from (\int phi*rho dr):              1430.108338
MG Hartree energy from (\int eps (grad phi)^2 dr):     1429.462917
MG Discrepancy due to finite box and discretization:     -0.645421 (  -0.04513%)
MG Correction to account for finite box:                  0.470523
MG Remaining discrepancy, due to discretization:         -0.174898 (  -0.01223%)
     Trial step:       0.551937940936
             Q1:  -11534.467069821665
 Quadratic coef:       0.001294407408
 Linear coef   :      -0.005189215877
           Qmin:  -11534.468375841245
Quadratic minimum step length (  1.106346081153) accepted
    Initial Ne1:    7192.00015844
      Final Ne1:    7192.00000000

=================== Penalty functional idempotency correction ==================
 RMS occupancy error at iteration   1:  0.000030 (step -0.4991 Ne1=   7192.0000)
            Final RMS occupancy error   :  0.000000 (Ne1=   7192.0000)
               Final occupancy bounds   : [ -0.0000,  1.0000]
================================================================================

    8        -1.153446317501E+04     1.4907E-05     1.3483E-05    -4.0804E-03
MG BCs: +ve charge blocks (gridpoints):     31575 (   17622472).
MG BCs: -ve charge blocks (gridpoints):      8388 (    1112135).
MG BCs:     Elided blocks (gridpoints):    169060 (  177561858).
MG BCs: Computational effort saved:  99.9796%.
MG BCs: Charge after coarse-graining:           -9.0009900.
MG DL_MG: Calling solver with defect correction order = 8
MG DL_MG: Solver finished
MG Hartree energy from (\int phi*rho dr):              1430.149000
MG Hartree energy from (\int eps (grad phi)^2 dr):     1429.503631
MG Discrepancy due to finite box and discretization:     -0.645369 (  -0.04513%)
MG Correction to account for finite box:                  0.470501
MG Remaining discrepancy, due to discretization:         -0.174868 (  -0.01223%)
      ideal mu1:      -0.769485916517
             Q0:  -11534.468359462335
             G0:      -0.015314264893
   RMS gradient:       0.000019080822
MG BCs: +ve charge blocks (gridpoints):     31576 (   17622420).
MG BCs: -ve charge blocks (gridpoints):      8387 (    1112242).
MG BCs:     Elided blocks (gridpoints):    169059 (  177561803).
MG BCs: Computational effort saved:  99.9796%.
MG BCs: Charge after coarse-graining:           -9.0009899.
MG DL_MG: Calling solver with defect correction order = 8
MG DL_MG: Solver finished
MG Hartree energy from (\int phi*rho dr):              1429.807248
MG Hartree energy from (\int eps (grad phi)^2 dr):     1429.161985
MG Discrepancy due to finite box and discretization:     -0.645263 (  -0.04513%)
MG Correction to account for finite box:                  0.470447
MG Remaining discrepancy, due to discretization:         -0.174816 (  -0.01223%)
     Trial step:       0.781430980954
             Q1:  -11534.476098894142
 Quadratic coef:       0.004227609232
 Linear coef   :      -0.011967041038
           Qmin:  -11534.476828201008
Quadratic minimum step length (  1.105993494748) accepted
    Initial Ne1:    7192.00065341
      Final Ne1:    7192.00000000

=================== Penalty functional idempotency correction ==================
 RMS occupancy error at iteration   1:  0.000212 (step -0.4928 Ne1=   7192.0000)
 RMS occupancy error at iteration   2:  0.000001 (step -0.5000 Ne1=   7192.0000)
            Final RMS occupancy error   :  0.000000 (Ne1=   7192.0000)
               Final occupancy bounds   : [  0.0000,  1.0000]
================================================================================

    9        -1.153446835946E+04     1.9081E-05     1.7258E-05    -5.1844E-03
MG BCs: +ve charge blocks (gridpoints):     31576 (   17622388).
MG BCs: -ve charge blocks (gridpoints):      8387 (    1112292).
MG BCs:     Elided blocks (gridpoints):    169059 (  177561785).
MG BCs: Computational effort saved:  99.9796%.
MG BCs: Charge after coarse-graining:           -9.0009899.
MG DL_MG: Calling solver with defect correction order = 8
MG DL_MG: Solver finished
MG Hartree energy from (\int phi*rho dr):              1429.659753
MG Hartree energy from (\int eps (grad phi)^2 dr):     1429.014540
MG Discrepancy due to finite box and discretization:     -0.645213 (  -0.04513%)
MG Correction to account for finite box:                  0.470420
MG Remaining discrepancy, due to discretization:         -0.174793 (  -0.01223%)
      ideal mu1:      -0.768958401945
   10        -1.153447666996E+04     2.3559E-05     2.1308E-05    -8.3105E-03
Finished density kernel iterations (  10)

Writing density kernel to file "host_31641.vacuum_dkn" ... done


>>> Density kernel optimised for the current NGWF basis:
     ~~~~~~~~~~~~~~~~~~~~~~~~~~~~~~~~~~~~~~~~~~~~~~~~~~~~~~~~~~~
     Total energy                =  -1.15344766699560E+04  Eh
     Estimated bandgap           =  -2.9660E-01  Eh
     RMS occupancy error         =   1.1943E-10
     [H,K] commutator            =   2.1308E-05
     Occupancy bounds            = [  0.000:  1.000]
     ~~~~~~~~~~~~~~~~~~~~~~~~~~~~~~~~~~~~~~~~~~~~~~~~~~~~~~~~~~~




################################################################################
########################### NGWF CG iteration  001 #############################
################################################################################
****** Reciprocal space K.E. preconditioning with k_zero =  3.5000 a0^-1 *******

>>> Checking for convergence of NGWFs:   NOT CONVERGED
  ========================================================================
         NGWF RMS gradient =  1.5618E-03 >  2.0000E-06  | above tolerance
  ========================================================================

>>> Improving NGWFs using line search:
============ Calculation of NGWF S^-1 using Hotelling algorithm ================ 
         Iteration  |  Frobenius norm and Maximum abs value    (of I-S*S_n^-1)   
               1       0.19192401E+00     0.49156704E-02
               2       0.85580039E-03     0.34445600E-04
               3       0.29212809E-07     0.20114606E-08
               4       0.12437730E-12     0.75495166E-14
================================================================================
MG BCs: +ve charge blocks (gridpoints):     31066 (   17570962).
MG BCs: -ve charge blocks (gridpoints):      8398 (    1112159).
MG BCs:     Elided blocks (gridpoints):    169569 (  177613344).
MG BCs: Computational effort saved:  99.9799%.
MG BCs: Charge after coarse-graining:           -9.0009925.
MG DL_MG: Calling solver with defect correction order = 8
MG DL_MG: Solver finished
MG Hartree energy from (\int phi*rho dr):              1398.476720
MG Hartree energy from (\int eps (grad phi)^2 dr):     1397.832332
MG Discrepancy due to finite box and discretization:     -0.644388 (  -0.04608%)
MG Correction to account for finite box:                  0.470357
MG Remaining discrepancy, due to discretization:         -0.174031 (  -0.01244%)
============ Calculation of NGWF S^-1 using Hotelling algorithm ================ 
         Iteration  |  Frobenius norm and Maximum abs value    (of I-S*S_n^-1)   
               1       0.18479403E+01     0.40500000E-01
               2       0.71013079E-01     0.21568587E-02
               3       0.14217232E-03     0.70656390E-05
               4       0.10605885E-08     0.10783086E-09
               5       0.10767331E-12     0.44408921E-14
================================================================================
------------------------------- NGWF line search -------------------------------
RMS gradient                =       0.00156182098174
Trial step length           =               0.122474
Gradient along search dir.  =       -269.27141491628
Functional at step 0        =  -11534.47666995599866
Functional at step 1        =  -11564.98490233847406
Functional predicted        =  -11644.52950600318036
Selected quadratic step     =               0.817412
--------------------------- NGWF line search finished --------------------------
                                               
Writing NGWFs to file "host_31641.vacuum_tightbox_ngwfs"....  done

>>> Optimising kernel for current NGWFs:
   Initial electron number for spin 1:    7226.42650756
     Final electron number for spin 1:    7192.00000000

=================== Penalty functional idempotency correction ==================
 RMS occupancy error at iteration   1:  0.004257 (step -0.4862 Ne1=   7192.0000)
 RMS occupancy error at iteration   2:  0.000069 (step -0.5003 Ne1=   7192.0000)
            Final RMS occupancy error   :  0.000000 (Ne1=   7192.0000)
               Final occupancy bounds   : [  0.0000,  1.0000]
================================================================================

................................................................................
<<<<<<<<<<<<<< LNV (Original version) density kernel optimisation >>>>>>>>>>>>>>
~~~~~~~~~~~~~~~~~~~~~~~~~~~~~~~~~~~~~~~~~~~~~~~~~~~~~~~~~~~~~~~~~~~~~~~~~~~~~~~~
   iter  |      energy (Eh)       | rms gradient |  commutator  |   dE (Eh)
MG BCs: +ve charge blocks (gridpoints):     25173 (   17339237).
MG BCs: -ve charge blocks (gridpoints):      8569 (    1096118).
MG BCs:     Elided blocks (gridpoints):    175467 (  177861110).
MG BCs: Computational effort saved:  99.9828%.
MG BCs: Charge after coarse-graining:           -9.0006628.
MG DL_MG: Calling solver with defect correction order = 8
MG DL_MG: Solver finished
MG Hartree energy from (\int phi*rho dr):              1243.835600
MG Hartree energy from (\int eps (grad phi)^2 dr):     1243.191539
MG Discrepancy due to finite box and discretization:     -0.644061 (  -0.05178%)
MG Correction to account for finite box:                  0.470048
MG Remaining discrepancy, due to discretization:         -0.174013 (  -0.01399%)
      ideal mu1:      -0.708725191464
             Q0:  -11643.718168425956
             G0:      -9.783590489195
   RMS gradient:       0.000480841377
MG BCs: +ve charge blocks (gridpoints):     25242 (   17357815).
MG BCs: -ve charge blocks (gridpoints):      8557 (    1091336).
MG BCs:     Elided blocks (gridpoints):    175398 (  177847314).
MG BCs: Computational effort saved:  99.9828%.
MG BCs: Charge after coarse-graining:           -9.0006579.
MG DL_MG: Calling solver with defect correction order = 8
MG DL_MG: Solver finished
MG Hartree energy from (\int phi*rho dr):              1265.361234
MG Hartree energy from (\int eps (grad phi)^2 dr):     1264.710208
MG Discrepancy due to finite box and discretization:     -0.651026 (  -0.05145%)
MG Correction to account for finite box:                  0.469628
MG Remaining discrepancy, due to discretization:         -0.181398 (  -0.01434%)
     Trial step:       0.929654549566
             Q1:  -11640.049265093985
 Quadratic coef:      12.764262741342
 Linear coef   :      -9.095359409372
           Qmin:  -11645.338425789463
Quadratic minimum step length (  0.331219374993) accepted
    Initial Ne1:    7191.99960866
      Final Ne1:    7192.00000000

=================== Penalty functional idempotency correction ==================
 RMS occupancy error at iteration   1:  0.000359 (step -0.4985 Ne1=   7192.0000)
 RMS occupancy error at iteration   2:  0.000000 (step -0.5000 Ne1=   7192.0000)
            Final RMS occupancy error   :  0.000000 (Ne1=   7192.0000)
               Final occupancy bounds   : [  0.0000,  1.0000]
================================================================================

    1        -1.164371816843E+04     4.8084E-04     4.3491E-04
MG BCs: +ve charge blocks (gridpoints):     25210 (   17346095).
MG BCs: -ve charge blocks (gridpoints):      8561 (    1094366).
MG BCs:     Elided blocks (gridpoints):    175430 (  177856004).
MG BCs: Computational effort saved:  99.9828%.
MG BCs: Charge after coarse-graining:           -9.0006610.
MG DL_MG: Calling solver with defect correction order = 8
MG DL_MG: Solver finished
MG Hartree energy from (\int phi*rho dr):              1250.071947
MG Hartree energy from (\int eps (grad phi)^2 dr):     1249.425544
MG Discrepancy due to finite box and discretization:     -0.646404 (  -0.05171%)
MG Correction to account for finite box:                  0.469872
MG Remaining discrepancy, due to discretization:         -0.176532 (  -0.01412%)
      ideal mu1:      -0.715015484741
             Q0:  -11645.297503474751
             G0:      -0.984822716223
   RMS gradient:       0.000153984637
MG BCs: +ve charge blocks (gridpoints):     25214 (   17346054).
MG BCs: -ve charge blocks (gridpoints):      8561 (    1095390).
MG BCs:     Elided blocks (gridpoints):    175426 (  177855021).
MG BCs: Computational effort saved:  99.9828%.
MG BCs: Charge after coarse-graining:           -9.0006607.
MG DL_MG: Calling solver with defect correction order = 8
MG DL_MG: Solver finished
MG Hartree energy from (\int phi*rho dr):              1251.308111
MG Hartree energy from (\int eps (grad phi)^2 dr):     1250.661323
MG Discrepancy due to finite box and discretization:     -0.646787 (  -0.05169%)
MG Correction to account for finite box:                  0.469868
MG Remaining discrepancy, due to discretization:         -0.176919 (  -0.01414%)
     Trial step:       0.554905035899
             Q1:  -11645.484927075682
 Quadratic coef:       0.359059483768
 Linear coef   :      -0.546483084700
           Qmin:  -11645.505438214928
Quadratic minimum step length (  0.422278521308) accepted
    Initial Ne1:    7191.99994882
      Final Ne1:    7192.00000000

=================== Penalty functional idempotency correction ==================
 RMS occupancy error at iteration   1:  0.000142 (step -0.4994 Ne1=   7192.0000)
            Final RMS occupancy error   :  0.000000 (Ne1=   7192.0000)
               Final occupancy bounds   : [ -0.0000,  1.0000]
================================================================================

    2        -1.164529750347E+04     1.5398E-04     1.3928E-04    -1.5793E+00
MG BCs: +ve charge blocks (gridpoints):     25213 (   17346049).
MG BCs: -ve charge blocks (gridpoints):      8559 (    1095124).
MG BCs:     Elided blocks (gridpoints):    175427 (  177855292).
MG BCs: Computational effort saved:  99.9828%.
MG BCs: Charge after coarse-graining:           -9.0006608.
MG DL_MG: Calling solver with defect correction order = 8
MG DL_MG: Solver finished
MG Hartree energy from (\int phi*rho dr):              1251.011881
MG Hartree energy from (\int eps (grad phi)^2 dr):     1250.365189
MG Discrepancy due to finite box and discretization:     -0.646692 (  -0.05169%)
MG Correction to account for finite box:                  0.469869
MG Remaining discrepancy, due to discretization:         -0.176824 (  -0.01413%)
      ideal mu1:      -0.715970754436
             Q0:  -11645.505939942319
             G0:      -0.144977335638
   RMS gradient:       0.000058464412
MG BCs: +ve charge blocks (gridpoints):     25213 (   17345441).
MG BCs: -ve charge blocks (gridpoints):      8562 (    1095569).
MG BCs:     Elided blocks (gridpoints):    175427 (  177855455).
MG BCs: Computational effort saved:  99.9828%.
MG BCs: Charge after coarse-graining:           -9.0006608.
MG DL_MG: Calling solver with defect correction order = 8
MG DL_MG: Solver finished
MG Hartree energy from (\int phi*rho dr):              1250.520265
MG Hartree energy from (\int eps (grad phi)^2 dr):     1249.873606
MG Discrepancy due to finite box and discretization:     -0.646659 (  -0.05171%)
MG Correction to account for finite box:                  0.469859
MG Remaining discrepancy, due to discretization:         -0.176799 (  -0.01414%)
     Trial step:       0.484070736593
             Q1:  -11645.550671170582
 Quadratic coef:       0.025448057388
 Linear coef   :      -0.070179285652
           Qmin:  -11645.554324108343
Quadratic minimum step length (  0.667472137096) accepted
    Initial Ne1:    7192.00062382
      Final Ne1:    7192.00000000

=================== Penalty functional idempotency correction ==================
 RMS occupancy error at iteration   1:  0.000062 (step -0.4998 Ne1=   7192.0000)
            Final RMS occupancy error   :  0.000000 (Ne1=   7192.0000)
               Final occupancy bounds   : [ -0.0000,  1.0000]
================================================================================

    3        -1.164550593994E+04     5.8464E-05     5.2880E-05    -2.0844E-01
MG BCs: +ve charge blocks (gridpoints):     25212 (   17345248).
MG BCs: -ve charge blocks (gridpoints):      8562 (    1095726).
MG BCs:     Elided blocks (gridpoints):    175428 (  177855491).
MG BCs: Computational effort saved:  99.9828%.
MG BCs: Charge after coarse-graining:           -9.0006608.
MG DL_MG: Calling solver with defect correction order = 8
MG DL_MG: Solver finished
MG Hartree energy from (\int phi*rho dr):              1250.334043
MG Hartree energy from (\int eps (grad phi)^2 dr):     1249.687397
MG Discrepancy due to finite box and discretization:     -0.646647 (  -0.05172%)
MG Correction to account for finite box:                  0.469856
MG Remaining discrepancy, due to discretization:         -0.176791 (  -0.01414%)
      ideal mu1:      -0.714956369936
             Q0:  -11645.554411981022
             G0:      -0.035632397464
   RMS gradient:       0.000028976456
MG BCs: +ve charge blocks (gridpoints):     25211 (   17345109).
MG BCs: -ve charge blocks (gridpoints):      8564 (    1095736).
MG BCs:     Elided blocks (gridpoints):    175429 (  177855620).
MG BCs: Computational effort saved:  99.9828%.
MG BCs: Charge after coarse-graining:           -9.0006609.
MG DL_MG: Calling solver with defect correction order = 8
MG DL_MG: Solver finished
MG Hartree energy from (\int phi*rho dr):              1250.357333
MG Hartree energy from (\int eps (grad phi)^2 dr):     1249.710784
MG Discrepancy due to finite box and discretization:     -0.646549 (  -0.05171%)
MG Correction to account for finite box:                  0.469859
MG Remaining discrepancy, due to discretization:         -0.176690 (  -0.01413%)
     Trial step:       0.568422139839
             Q1:  -11645.563433349598
 Quadratic coef:       0.011232875038
 Linear coef   :      -0.020254243614
           Qmin:  -11645.563542198865
Quadratic minimum step length (  0.512467220404) accepted
    Initial Ne1:    7192.00023357
      Final Ne1:    7192.00000000

=================== Penalty functional idempotency correction ==================
 RMS occupancy error at iteration   1:  0.000019 (step -0.4999 Ne1=   7192.0000)
            Final RMS occupancy error   :  0.000000 (Ne1=   7192.0000)
               Final occupancy bounds   : [ -0.0000,  1.0000]
================================================================================

    4        -1.164555441198E+04     2.8976E-05     2.6209E-05    -4.8472E-02
MG BCs: +ve charge blocks (gridpoints):     25211 (   17345121).
MG BCs: -ve charge blocks (gridpoints):      8564 (    1095733).
MG BCs:     Elided blocks (gridpoints):    175429 (  177855611).
MG BCs: Computational effort saved:  99.9828%.
MG BCs: Charge after coarse-graining:           -9.0006609.
MG DL_MG: Calling solver with defect correction order = 8
MG DL_MG: Solver finished
MG Hartree energy from (\int phi*rho dr):              1250.354878
MG Hartree energy from (\int eps (grad phi)^2 dr):     1249.708319
MG Discrepancy due to finite box and discretization:     -0.646559 (  -0.05171%)
MG Correction to account for finite box:                  0.469859
MG Remaining discrepancy, due to discretization:         -0.176700 (  -0.01413%)
      ideal mu1:      -0.715027577414
             Q0:  -11645.563547380618
             G0:      -0.012439453146
   RMS gradient:       0.000017142235
MG BCs: +ve charge blocks (gridpoints):     25213 (   17345644).
MG BCs: -ve charge blocks (gridpoints):      8561 (    1095549).
MG BCs:     Elided blocks (gridpoints):    175427 (  177855272).
MG BCs: Computational effort saved:  99.9828%.
MG BCs: Charge after coarse-graining:           -9.0006607.
MG DL_MG: Calling solver with defect correction order = 8
MG DL_MG: Solver finished
MG Hartree energy from (\int phi*rho dr):              1250.769565
MG Hartree energy from (\int eps (grad phi)^2 dr):     1250.123052
MG Discrepancy due to finite box and discretization:     -0.646513 (  -0.05169%)
MG Correction to account for finite box:                  0.469845
MG Remaining discrepancy, due to discretization:         -0.176668 (  -0.01412%)
     Trial step:       0.539720032998
             Q1:  -11645.567120705615
 Quadratic coef:       0.003140497065
 Linear coef   :      -0.006713822063
           Qmin:  -11645.567135618861
Quadratic minimum step length (  0.576912538061) accepted
    Initial Ne1:    7192.00010735
      Final Ne1:    7192.00000000

=================== Penalty functional idempotency correction ==================
 RMS occupancy error at iteration   1:  0.000011 (step -0.4999 Ne1=   7192.0000)
            Final RMS occupancy error   :  0.000000 (Ne1=   7192.0000)
               Final occupancy bounds   : [ -0.0000,  1.0000]
================================================================================

    5        -1.164556354738E+04     1.7142E-05     1.5505E-05    -9.1354E-03
MG BCs: +ve charge blocks (gridpoints):     25213 (   17345678).
MG BCs: -ve charge blocks (gridpoints):      8561 (    1095532).
MG BCs:     Elided blocks (gridpoints):    175427 (  177855255).
MG BCs: Computational effort saved:  99.9828%.
MG BCs: Charge after coarse-graining:           -9.0006607.
MG DL_MG: Calling solver with defect correction order = 8
MG DL_MG: Solver finished
MG Hartree energy from (\int phi*rho dr):              1250.798169
MG Hartree energy from (\int eps (grad phi)^2 dr):     1250.151660
MG Discrepancy due to finite box and discretization:     -0.646510 (  -0.05169%)
MG Correction to account for finite box:                  0.469844
MG Remaining discrepancy, due to discretization:         -0.176666 (  -0.01412%)
      ideal mu1:      -0.715390262665
             Q0:  -11645.567136829719
             G0:      -0.004437918214
   RMS gradient:       0.000010239230
MG BCs: +ve charge blocks (gridpoints):     25213 (   17345677).
MG BCs: -ve charge blocks (gridpoints):      8562 (    1095545).
MG BCs:     Elided blocks (gridpoints):    175427 (  177855243).
MG BCs: Computational effort saved:  99.9828%.
MG BCs: Charge after coarse-graining:           -9.0006607.
MG DL_MG: Calling solver with defect correction order = 8
MG DL_MG: Solver finished
MG Hartree energy from (\int phi*rho dr):              1250.756303
MG Hartree energy from (\int eps (grad phi)^2 dr):     1250.109808
MG Discrepancy due to finite box and discretization:     -0.646495 (  -0.05169%)
MG Correction to account for finite box:                  0.469834
MG Remaining discrepancy, due to discretization:         -0.176661 (  -0.01412%)
     Trial step:       0.558006500033
             Q1:  -11645.568746582721
 Quadratic coef:       0.000866634207
 Linear coef   :      -0.002476387210
           Qmin:  -11645.568905884518
Quadratic minimum step length (  0.797245336157) accepted
    Initial Ne1:    7192.00007296
      Final Ne1:    7192.00000000

=================== Penalty functional idempotency correction ==================
 RMS occupancy error at iteration   1:  0.000011 (step -0.4998 Ne1=   7192.0000)
            Final RMS occupancy error   :  0.000000 (Ne1=   7192.0000)
               Final occupancy bounds   : [ -0.0000,  1.0000]
================================================================================

    6        -1.164556713683E+04     1.0239E-05     9.2611E-06    -3.5894E-03
MG BCs: +ve charge blocks (gridpoints):     25212 (   17345668).
MG BCs: -ve charge blocks (gridpoints):      8562 (    1095556).
MG BCs:     Elided blocks (gridpoints):    175428 (  177855241).
MG BCs: Computational effort saved:  99.9828%.
MG BCs: Charge after coarse-graining:           -9.0006607.
MG DL_MG: Calling solver with defect correction order = 8
MG DL_MG: Solver finished
MG Hartree energy from (\int phi*rho dr):              1250.738246
MG Hartree energy from (\int eps (grad phi)^2 dr):     1250.091758
MG Discrepancy due to finite box and discretization:     -0.646488 (  -0.05169%)
MG Correction to account for finite box:                  0.469829
MG Remaining discrepancy, due to discretization:         -0.176659 (  -0.01412%)
      ideal mu1:      -0.715302170910
             Q0:  -11645.568905460066
             G0:      -0.003215860845
   RMS gradient:       0.000008717688
MG BCs: +ve charge blocks (gridpoints):     25212 (   17345448).
MG BCs: -ve charge blocks (gridpoints):      8563 (    1095620).
MG BCs:     Elided blocks (gridpoints):    175428 (  177855397).
MG BCs: Computational effort saved:  99.9828%.
MG BCs: Charge after coarse-graining:           -9.0006608.
MG DL_MG: Calling solver with defect correction order = 8
MG DL_MG: Solver finished
MG Hartree energy from (\int phi*rho dr):              1250.611336
MG Hartree energy from (\int eps (grad phi)^2 dr):     1249.964833
MG Discrepancy due to finite box and discretization:     -0.646502 (  -0.05169%)
MG Correction to account for finite box:                  0.469832
MG Remaining discrepancy, due to discretization:         -0.176670 (  -0.01413%)
     Trial step:       0.666984317429
             Q1:  -11645.569588976563
 Quadratic coef:       0.001461412254
 Linear coef   :      -0.002144928750
           Qmin:  -11645.569692493180
Quadratic minimum step length (  0.489469632824) accepted
    Initial Ne1:    7192.00004482
      Final Ne1:    7192.00000000

=================== Penalty functional idempotency correction ==================
 RMS occupancy error at iteration   1:  0.000001 (step -0.5000 Ne1=   7192.0000)
            Final RMS occupancy error   :  0.000000 (Ne1=   7192.0000)
               Final occupancy bounds   : [  0.0000,  1.0000]
================================================================================

    7        -1.164556890546E+04     8.7177E-06     7.8849E-06    -1.7686E-03
MG BCs: +ve charge blocks (gridpoints):     25212 (   17345492).
MG BCs: -ve charge blocks (gridpoints):      8563 (    1095607).
MG BCs:     Elided blocks (gridpoints):    175428 (  177855366).
MG BCs: Computational effort saved:  99.9828%.
MG BCs: Charge after coarse-graining:           -9.0006608.
MG DL_MG: Calling solver with defect correction order = 8
MG DL_MG: Solver finished
MG Hartree energy from (\int phi*rho dr):              1250.645029
MG Hartree energy from (\int eps (grad phi)^2 dr):     1249.998530
MG Discrepancy due to finite box and discretization:     -0.646499 (  -0.05169%)
MG Correction to account for finite box:                  0.469831
MG Remaining discrepancy, due to discretization:         -0.176667 (  -0.01413%)
      ideal mu1:      -0.715190119994
             Q0:  -11645.569692493300
             G0:      -0.002104806593
   RMS gradient:       0.000007052716
MG BCs: +ve charge blocks (gridpoints):     25213 (   17345447).
MG BCs: -ve charge blocks (gridpoints):      8562 (    1095626).
MG BCs:     Elided blocks (gridpoints):    175427 (  177855392).
MG BCs: Computational effort saved:  99.9828%.
MG BCs: Charge after coarse-graining:           -9.0006608.
MG DL_MG: Calling solver with defect correction order = 8
MG DL_MG: Solver finished
MG Hartree energy from (\int phi*rho dr):              1250.589728
MG Hartree energy from (\int eps (grad phi)^2 dr):     1249.943224
MG Discrepancy due to finite box and discretization:     -0.646505 (  -0.05170%)
MG Correction to account for finite box:                  0.469828
MG Remaining discrepancy, due to discretization:         -0.176676 (  -0.01413%)
     Trial step:       0.571374280968
             Q1:  -11645.570649893256
 Quadratic coef:       0.000245232397
 Linear coef   :      -0.001202632354
           Qmin:  -11645.571166936110
Quadratic minimum step length (  1.401024507510) accepted
    Initial Ne1:    7192.00008377
      Final Ne1:    7192.00000000

=================== Penalty functional idempotency correction ==================
 RMS occupancy error at iteration   1:  0.000020 (step -0.4990 Ne1=   7192.0000)
            Final RMS occupancy error   :  0.000000 (Ne1=   7192.0000)
               Final occupancy bounds   : [ -0.0000,  1.0000]
================================================================================

    8        -1.164556969249E+04     7.0527E-06     6.3790E-06    -7.8703E-04
MG BCs: +ve charge blocks (gridpoints):     25211 (   17345326).
MG BCs: -ve charge blocks (gridpoints):      8562 (    1095677).
MG BCs:     Elided blocks (gridpoints):    175429 (  177855462).
MG BCs: Computational effort saved:  99.9828%.
MG BCs: Charge after coarse-graining:           -9.0006608.
[...]
MG Correction to account for finite box:                  0.006399
MG Remaining discrepancy, due to discretization:         -0.176076 (  -0.01456%)
     Trial step:       0.223056990974
             Q1:  -11679.536311772768
 Quadratic coef:       0.000000000604
 Linear coef   :      -0.000000001302
           Qmin:  -11679.536311772772
Quadratic minimum step length (  0.240531008680) accepted
    Initial Ne1:    7192.00000000
      Final Ne1:    7192.00000000

=================== Penalty functional idempotency correction ==================
 RMS occupancy error at iteration   1:  0.000000 (step -0.5000 Ne1=   7192.0000)
            Final RMS occupancy error   :  0.000000 (Ne1=   7192.0000)
               Final occupancy bounds   : [  0.0000,  1.0000]
================================================================================

    7        -1.167953631177E+04     1.1747E-08     1.0625E-08    -1.0477E-09

Reusing previously generated solute cavity.
MG BCs: +ve charge blocks (gridpoints):     29293 (   19556215).
MG BCs: -ve charge blocks (gridpoints):      8552 (    1064212).
MG BCs:     Elided blocks (gridpoints):    171347 (  175676038).
MG BCs: Computational effort saved:  99.9807%.
MG BCs: Charge after coarse-graining:           -9.0009665.
MG DL_MG: Calling solver with defect correction order = 8
MG DL_MG: Solver finished
MG Hartree energy from (\int phi*rho dr):              1209.129998
MG Hartree energy from (\int eps (grad phi)^2 dr):     1208.947522
MG Discrepancy due to finite box and discretization:     -0.182476 (  -0.01509%)
MG Correction to account for finite box:                  0.006399
MG Remaining discrepancy, due to discretization:         -0.176076 (  -0.01456%)
      ideal mu1:      -0.480066479494
             Q0:  -11679.536311772652
             G0:      -0.000000003803
   RMS gradient:       0.000000007527

Reusing previously generated solute cavity.
MG BCs: +ve charge blocks (gridpoints):     29293 (   19556215).
MG BCs: -ve charge blocks (gridpoints):      8552 (    1064212).
MG BCs:     Elided blocks (gridpoints):    171347 (  175676038).
MG BCs: Computational effort saved:  99.9807%.
MG BCs: Charge after coarse-graining:           -9.0009665.
MG DL_MG: Calling solver with defect correction order = 8
MG DL_MG: Solver finished
MG Hartree energy from (\int phi*rho dr):              1209.130009
MG Hartree energy from (\int eps (grad phi)^2 dr):     1208.947533
MG Discrepancy due to finite box and discretization:     -0.182476 (  -0.01509%)
MG Correction to account for finite box:                  0.006399
MG Remaining discrepancy, due to discretization:         -0.176076 (  -0.01456%)
     Trial step:       0.231629279306
             Q1:  -11679.536311772885
 Quadratic coef:       0.000000000648
 Linear coef   :      -0.000000000881
           Qmin:  -11679.536311772952
Quadratic minimum step length (  0.157530560840) accepted
    Initial Ne1:    7192.00000000
      Final Ne1:    7192.00000000

=================== Penalty functional idempotency correction ==================
 RMS occupancy error at iteration   1:  0.000000 (step -0.5000 Ne1=   7192.0000)
            Final RMS occupancy error   :  0.000000 (Ne1=   7192.0000)
               Final occupancy bounds   : [ -0.0000,  1.0000]
================================================================================

    8        -1.167953631177E+04     7.5274E-09     6.8084E-09    -5.8208E-10

Reusing previously generated solute cavity.
MG BCs: +ve charge blocks (gridpoints):     29293 (   19556215).
MG BCs: -ve charge blocks (gridpoints):      8552 (    1064212).
MG BCs:     Elided blocks (gridpoints):    171347 (  175676038).
MG BCs: Computational effort saved:  99.9807%.
MG BCs: Charge after coarse-graining:           -9.0009665.
MG DL_MG: Calling solver with defect correction order = 8
MG DL_MG: Solver finished
MG Hartree energy from (\int phi*rho dr):              1209.130005
MG Hartree energy from (\int eps (grad phi)^2 dr):     1208.947529
MG Discrepancy due to finite box and discretization:     -0.182476 (  -0.01509%)
MG Correction to account for finite box:                  0.006399
MG Remaining discrepancy, due to discretization:         -0.176076 (  -0.01456%)
      ideal mu1:      -0.480066482137
             Q0:  -11679.536311772885
             G0:      -0.000000002848
   RMS gradient:       0.000000005692

Reusing previously generated solute cavity.
MG BCs: +ve charge blocks (gridpoints):     29293 (   19556215).
MG BCs: -ve charge blocks (gridpoints):      8552 (    1064212).
MG BCs:     Elided blocks (gridpoints):    171347 (  175676038).
MG BCs: Computational effort saved:  99.9807%.
MG BCs: Charge after coarse-graining:           -9.0009665.
MG DL_MG: Calling solver with defect correction order = 8
MG DL_MG: Solver finished
MG Hartree energy from (\int phi*rho dr):              1209.130009
MG Hartree energy from (\int eps (grad phi)^2 dr):     1208.947533
MG Discrepancy due to finite box and discretization:     -0.182476 (  -0.01509%)
MG Correction to account for finite box:                  0.006399
MG Remaining discrepancy, due to discretization:         -0.176076 (  -0.01456%)
     Trial step:       0.191020130552
             Q1:  -11679.536311772885
 Quadratic coef:       0.000000000544
 Linear coef   :      -0.000000000544
           Qmin:  -11679.536311773021
Quadratic minimum step length (  0.095548921054) accepted
    Initial Ne1:    7192.00000000
      Final Ne1:    7192.00000000

=================== Penalty functional idempotency correction ==================
 RMS occupancy error at iteration   1:  0.000000 (step -0.5000 Ne1=   7192.0000)
            Final RMS occupancy error   :  0.000000 (Ne1=   7192.0000)
               Final occupancy bounds   : [  0.0000,  1.0000]
================================================================================

    9        -1.167953631177E+04     5.6923E-09     5.1486E-09    -2.3283E-10

Reusing previously generated solute cavity.
MG BCs: +ve charge blocks (gridpoints):     29293 (   19556215).
MG BCs: -ve charge blocks (gridpoints):      8552 (    1064212).
MG BCs:     Elided blocks (gridpoints):    171347 (  175676038).
MG BCs: Computational effort saved:  99.9807%.
MG BCs: Charge after coarse-graining:           -9.0009665.
MG DL_MG: Calling solver with defect correction order = 8
MG DL_MG: Solver finished
MG Hartree energy from (\int phi*rho dr):              1209.130007
MG Hartree energy from (\int eps (grad phi)^2 dr):     1208.947531
MG Discrepancy due to finite box and discretization:     -0.182476 (  -0.01509%)
MG Correction to account for finite box:                  0.006399
MG Remaining discrepancy, due to discretization:         -0.176076 (  -0.01456%)
      ideal mu1:      -0.480066480087
   10        -1.167953631177E+04     4.7194E-09     4.2686E-09     0.0000E+00
Finished density kernel iterations (  10)

Writing density kernel to file "host_31641.dkn" ... done


>>> Density kernel optimised for the current NGWF basis:
     ~~~~~~~~~~~~~~~~~~~~~~~~~~~~~~~~~~~~~~~~~~~~~~~~~~~~~~~~~~~
     Total energy                =  -1.16795363117729E+04  Eh
     Estimated bandgap           =   7.8041E-02  Eh
     RMS occupancy error         =   2.8490E-16
     [H,K] commutator            =   4.2686E-09
     Occupancy bounds            = [  0.000:  1.000]
     ~~~~~~~~~~~~~~~~~~~~~~~~~~~~~~~~~~~~~~~~~~~~~~~~~~~~~~~~~~~




################################################################################
########################### NGWF CG iteration  005 #############################
################################################################################
****** Reciprocal space K.E. preconditioning with k_zero =  3.5000 a0^-1 *******

>>> Checking for convergence of NGWFs: 
           ........................................................
           |         *** NGWF optimisation converged ***          |
           | RMS NGWF gradient =    0.00000094461615              |
           | Criteria satisfied:                                  |
           | -> RMS NGWF gradient lower than set threshold.       |
           ========================================================

Reusing previously generated solute cavity.
MG BCs: +ve charge blocks (gridpoints):     29293 (   19556215).
MG BCs: -ve charge blocks (gridpoints):      8552 (    1064212).
MG BCs:     Elided blocks (gridpoints):    171347 (  175676038).
MG BCs: Computational effort saved:  99.9807%.
MG BCs: Charge after coarse-graining:           -9.0009665.
MG DL_MG: Calling solver with defect correction order = 8
MG DL_MG: Solver finished
MG Hartree energy from (\int phi*rho dr):              1209.130007
MG Hartree energy from (\int eps (grad phi)^2 dr):     1208.947531
MG Discrepancy due to finite box and discretization:     -0.182476 (  -0.01509%)
MG Correction to account for finite box:                  0.006399
MG Remaining discrepancy, due to discretization:         -0.176076 (  -0.01456%)

================================================================================
           ---------------- ENERGY COMPONENTS (Eh) ----------------
           | Kinetic                    :     8528.89897770699645 |
           | Pseudo. (local,OBC,corr'd) :    -5051.70414026473190 |
           | Pseudopotential (non-local):     1402.93021087439956 |
           | Hartree (molecular)        :     1209.13000716098509 |
           | Exchange-correlation       :    -3356.94917999467589 |
           | Ion-ion (open BC)          :   826821.40188413066790 |
           | Dispersion Correction      :       -3.21714748996482 |
           | Smeared ion non-self corr. :  -826773.52451799809933 |
           | Smeared ion self corr.     :   -14457.16956389741972 |
           | Solvent cavitation energy  :        2.37359423266120 |
           | Solute-solvent dis-rep en. :       -1.70643623371595 |
           | Total                      :   -11679.53631177289935 |
           --------------------------------------------------------
           ------ LOCAL ENERGY COMPONENTS FROM MATRIX TRACES ------
           | Pseudopotential (local)    :    -5051.70414026473372 |
           | Hartree                    :    -1986.16649422440469 |
           --------------------------------------------------------
           Integrated density           :     7191.99999999890679
           Integrated density tr(KS)    :     7192.00000000000091
================================================================================


                        <<<<< CALCULATION SUMMARY >>>>>                         
|ITER|    RMS GRADIENT   |     TOTAL ENERGY    |   step   |     Epredicted              
   0     0.00003910039869 -11679.47529753355775   0.622824 -11679.52785393394879        
   1     0.00001036481752 -11679.53559643111657   0.099957 -11679.53618912779348        
   2     0.00000463311809 -11679.53628542367369   0.018635 -11679.53630750263073        
   3     0.00000209845053 -11679.53631065599620   0.003887 -11679.53631160083023        
   4     0.00000094461615 -11679.53631177288480  <-- CG                                 

=================== Finished the calculation in solvent ========================
= Adjusting the following parameters: 
= read_denskern: F
= read_tightbox_ngwfs: F
= maxit_pen: 0 (restored to user-specified value)
= restart read filename prefix: ""
= restart write filename prefix: ""
================================================================================

================================================================================
IS: Calculation in solvent completed (NGWFs converged).      

Individual components of total energy in solvent:     hartree           kcal/mol
- Usual non-electrostatic DFT terms:    -12889.33347693281758    -8088178.695660
- Electrostatic fixed charge energy:      1209.13000716098509      758740.518407
- Apolar cavitation energy:                  2.37359423266120        1489.452836
- Apolar dispersion-repulsion energy:       -1.70643623371595       -1070.804880
 -------------------------------------------------------------------------------
- Total energy in solvent:              -11679.53631177288480    -7329019.529298

Components of total energy in solvent:                hartree           kcal/mol
- Usual non-electrostatic DFT terms:    -12889.33347693281758    -8088178.695660
- Electrostatic energy:                   1209.13000716098509      758740.518407
- Apolar energy terms:                       0.66715799894525         418.647956
 -------------------------------------------------------------------------------
- Total energy in solvent:              -11679.53631177288480    -7329019.529298

Calculation of free energy of solvation:              hartree           kcal/mol
- Total energy in solvent:         (+)  -11679.53631177288480    -7329019.529298
- Total energy in vacuum:          (-)  -11675.64558557886630    -7326578.061803
 -------------------------------------------------------------------------------
- Total free energy of solvation:           -3.89072619401850       -2441.467495

Components of polar term in f.e. of solvation:        hartree           kcal/mol
- Electrostatic:                            -4.73222912984147       -2969.518548
- Change in nonelectrostatic DFT terms:      0.17434493687506         109.403097
 -------------------------------------------------------------------------------
- Polar term in f.e. of solvation:          -4.55788419296641       -2860.115451

Components of free energy of solvation:               hartree           kcal/mol
- Polar term in f.e. of solvation: (+)      -4.55788419296641       -2860.115451
- Apolar (cavitation, dis., rep.): (+)       0.66715799894525         418.647956
 -------------------------------------------------------------------------------
- Total free energy of solvation:           -3.89072619402117       -2441.467495
================================================================================


------------------------------ TIMING INFORMATION ------------------------------
AVERAGE TIME:   36041.284s on     60 node(s)                                    
TOTAL TIME:     36041.285s on     60 node(s)                                    
================= AVERAGE TIMINGS FROM ALL NODES (CUMULATIVE) ==================
|| TAG                                    #calls    cpu time   %total  Gflops ||
|| work_imbalance                       :     1        0.00s   0.000%  ------ ||
|| sparse_set_to_garbage                :   200        0.03s   0.000%  ------ ||
|| parallel_prepare_fd_halos_request    :  2181        0.04s   0.000%  ------ ||
|| ngwfs_initialise_from_radial         :     1        0.11s   0.000%  ------ ||
|| basis_extract_function_from_box      :  4011        0.17s   0.000%  ------ ||
|| parallel_prepare_fd_halos_alloc      :  2181        0.74s   0.002%  ------ ||
|| parallel_prepare_fd_halos_satisfy    :  2181        0.74s   0.002%  ------ ||
|| pseudopotentials_nonlocal_mat        :    34        2.65s   0.007%  ------ ||
|| density_init_guess_real              :     1        4.17s   0.012%  ------ ||
|| restart_kernel_read                  :     1        4.27s   0.012%  ------ ||
|| restart_ngwfs_tightbox_input         :     1        4.40s   0.012%  ------ ||
|| openbc_locps_radial                  :     1        4.56s   0.013%  ------ ||
|| parallel_prepare_fd_halos_comms_imbal:  2181       12.62s   0.035%  ------ ||
|| parallel_prepare_fd_halos_clear      :  2181       21.60s   0.060%  ------ ||
|| sparse_init                          :     2       23.08s   0.064%  ------ ||
|| projectors_func_ovlp_box             :    34       30.99s   0.086%  ------ ||
|| parallel_prepare_fd_halos_comms_wait :  2181       32.51s   0.090%  ------ ||
|| function_ops_brappd_ketppd           :    34       35.68s   0.099%  ------ ||
|| palser_mano_kernel_optimise          :     1       35.78s   0.099%  ------ ||
|| projectors_init_fftbox_recip         :   160       39.61s   0.110%  ------ ||
|| basis_copy_function_to_box           : 65158       50.05s   0.139%  ------ ||
|| pseudo_make_structure_factor         :     2       58.67s   0.163%  ------ ||
|| ngwf_gradient_coeffs                 :    18       58.83s   0.163%  ------ ||
|| fourier_apply_box_pair               :  5753       60.77s   0.169% 583.756 ||
|| parallel_prepare_fd_halos            :  2181       68.26s   0.189%  ------ ||
|| sparse_embed_hotelling_invert_embed  :    34       92.04s   0.255%  ------ ||
|| restart_kernel_write                 :    19      146.56s   0.407%  ------ ||
|| finite_difference_derivative         :  2181      163.96s   0.455%  ------ ||
|| integrals_kinetic                    :    34      173.96s   0.483%  ------ ||
|| projectors_gradient_batch            :   126      181.38s   0.503%  ------ ||
|| basis_dot_function_with_box          : 9.806M     191.53s   0.531%  ------ ||
|| fourier_apply_cell_backward          :  1455      202.82s   0.563%  99.091 ||
|| sparse_trace                         :  5813      247.06s   0.685%  ------ ||
|| openbc_locps_on_grid                 :     2      267.66s   0.743%  ------ ||
|| fourier_apply_cell_forward           :  1453      273.87s   0.760%  73.283 ||
|| kernel_purify                        :   556      355.37s   0.986%  ------ ||
|| basis_add_function_to_box            : 20.48M     475.20s   1.318%  ------ ||
|| hamiltonian_energy_components        :     4      502.73s   1.395%  ------ ||
|| lnv_gradient_norm                    :   180      529.91s   1.470%  ------ ||
|| xc_energy_potential                  :   363      549.54s   1.525%  ------ ||
|| kernel_fix                           :   180      595.01s   1.651%  ------ ||
|| integrals_locpot_mat_els_batch       :  1323      891.51s   2.474%  ------ ||
|| ngwf_gradient_build_batch            :   126      916.91s   2.544%  ------ ||
|| restart_ngwfs_tightbox_output        :    16     1248.53s   3.464%  ------ ||
|| density_batch_row_sums               :  2534     1267.41s   3.517%  ------ ||
|| ngwf_gradient_batch                  :   126     1274.51s   3.536%  ------ ||
|| ngwf_gradient_lnv                    :    18     1451.53s   4.027%  ------ ||
|| cell_grid_deposit_box_real           : 41682     1538.66s   4.269%  ------ ||
|| cell_grid_extract_box_real           : 45984     1786.28s   4.956%  ------ ||
|| sparse_product                       :  7366     2173.41s   6.030%  ------ ||
|| density_fftbox_deposit_to_cell       : 39458     2219.62s   6.159%  ------ ||
|| potential_apply_to_ngwf_batch        :  1323     4236.13s  11.754%  ------ ||
|| density_fftbox_interpolate_multiply  : 39458     4468.95s  12.400%  ------ ||
|| integrals_locpot_dbl_grid            :   189     5154.54s  14.302%  ------ ||
|| multigrid_prepare_bound_cond         :   363     5228.72s  14.508%  ------ ||
|| fourier_apply_box                    : 135.9k    5468.59s  15.173% 742.514 ||
|| density_batch_interp_deposit         :  2534     7746.96s  21.495%  ------ ||
|| dl_mg_solver_calls                   :   363     8458.15s  23.468%  ------ ||
|| density_on_dbl_grid                  :   362     9516.10s  26.403%  ------ ||
|| multigrid_calculate_hartree          :   363    13916.64s  38.613%  ------ ||
|| hamiltonian_lhxc_calculate           :   358    23986.16s  66.552%  ------ ||
|| lnv_denskernel_optimise_cg           :    18    30301.47s  84.074%  ------ ||
|| ngwf_cg_optimise                     :     2    35050.41s  97.251%  ------ ||
|| total_time                           :     1    36041.28s 100.000%  ------ ||
================================================================================
Overhead of generating timer report: 
- 0 ms averaging over threads,
- 15 ms ensuring consistency across MPI ranks,
- 0 ms printing in order.

Job completed: 02-04-2020 10:39 (+0100)

Application 40065859 resources: utime ~7518830s, stime ~259798s, Rss ~3847516, inblocks ~403631679, outblocks ~76204371
