 +---------------------------------------------------------------+
 |                                                               |
 |        ####### #     # ####### ####### ####### ######         |
 |        #     # ##    # #          #    #       #     #        |
 |        #     # # #   # #          #    #       #     #        |
 |        #     # #  #  # #####      #    #####   ######         |
 |        #     # #   # # #          #    #       #              |
 |        #     # #    ## #          #    #       #              |
 |        ####### #     # #######    #    ####### #              |
 |                                                               |
 |        Linear-Scaling Ab Initio Total Energy Program          |
 |                                                               |
 |          Release for academic collaborators of ODG            |
 |                                             Version 5.3.2.6.  |
 |                                                               |
 +---------------------------------------------------------------+
 |                                                               |
 |  Authors:                                                     |
 |  Jacek Dziedzic, Peter D. Haynes, Nicholas D. M. Hine,        |
 |  Arash. A. Mostofi, Mike C. Payne and Chris-Kriton Skylaris   |
 |                                                               |
 |  Contributors:                                                |
 |  J. Aarons, L. Andrinopoulos, P. W. Avraam, R. A. Bell,       |
 |  A. Bhandari, G. A. Bramley, R. J. Charlton, S. J. Clark,     |
 |  R. J. Clements, G. C. Constantinescu, F. Corsetti,           |
 |  N. Corsini, O. Dieguez, S. M. M. Dubois, K. K. B. Duff,      |
 |  J. M. Escartin, A. Greco, H. Helal, Q. O. Hill, L. P. Lee,   |
 |  J.-H. Li, E. B. Linscott, G. Moynihan, D. D. O`Regan,        |
 |  O. K. Okan, M. J. S. Phipps, C. J. Pickard,                  |
 |  J. C. A. Prentice, M. I. J. Probert, L. E. Ratcliff,         |
 |  M. Robinson, A. Ruiz Serrano, J. S. Spencer, E. W. Tait,     |
 |  G. Teobaldi, D. Turban, V. Vitale, K. A. Wilkinson,          |
 |  C. Weber, J. C. Womack, N. Yeung and T. J. Zuehlsdorff       |
 |                                                               |
 |                                   Copyright (c) 2004-2019     |
 |                                                               |
 |  Please cite:                                                 |
 |  "Introducing ONETEP: Linear-scaling density functional       |
 |   simulations on parallel computers".                         |
 |   C.-K. Skylaris, P. D. Haynes, A. A. Mostofi, M. C. Payne.   |
 |   J. Chem. Phys. 122 084119 (2005).                           |
 |                                                               |
 |          in all publications arising from your use of ONETEP. |
 |                                                               |
 +---------------------------------------------------------------+
 |                                                               |
 |   ONETEP is based on developments described in the following  |
 |   publications:                                               |
 |                                                               |
 |  "Nonorthogonal generalized Wannier function pseudopotential  |
 |   plane-wave method".                                         |
 |   C.-K. Skylaris, A. A. Mostofi, P. D. Haynes, O. Dieguez,    |
 |   M. C. Payne.                                                |
 |   Phys. Rev. B 66 035119 (2002).                              |
 |                                                               |
 |  "Preconditioned iterative minimization for linear-scaling    |
 |   electronic structure calculations".                         |
 |   A. A. Mostofi, P. D. Haynes, C.-K. Skylaris, M. C. Payne.   |
 |   J. Chem. Phys. 119(17), pp.8842-8848 (2003).                |
 |                                                               |
 |  "Total-energy calculations on a real space grid with         |
 |   localized functions and a plane-wave basis".                |
 |   A. A. Mostofi, C.-K. Skylaris, P. D. Haynes, M. C. Payne.   |
 |   Comput. Phys. Commun. 147, pp.788-802 (2002).               |
 |                                                               |
 |  "Accurate kinetic energy evaluation in electronic structure  |
 |   calculations with localized functions on real space grids"  |
 |   C.-K. Skylaris, A. A. Mostofi, P. D. Haynes, C. J. Pickard, |
 |   M. C. Payne.                                                |
 |   Comput. Phys. Commun. 140, pp.315-322 (2001).               |
 |                                                               |
 |  "Accurate ionic forces and geometry optimization in linear-  |
 |   scaling density-functional theory with local orbitals"      |
 |   N. D. M. Hine, M. Robinson, P. D. Haynes, C.-K. Skylaris,   |
 |   M. C. Payne, and A. A. Mostofi.                             |
 |   Phys. Rev. B 83 195102 (2011).                              |
 |                                                               |
 +---------------------------------------------------------------+

Job started: 03-06-2020 22:39 (+0100)
 
Reading parameters from file "host_33541.dat" ...... done

If your calculation crashes here, before "Checking processes and threads..."
is displayed, then your stack size is insufficient.
If so, use "ulimit -s unlimited" at runtime.
You can disable this check with "check_stack_size F".

Checking processes and threads...
   Determining the default number of threads...
      No default threads set at compilation time: defaulting to 1.
      OpenMP library call suggests 4 threads.
      Hybrid MPI-OpenMP compilation detected.
      Number of MPI processes > 1.
      OMP_NUM_THREADS environment variable present and
      its value matches the one obtained from the OpenMP library call.
      Using this value as default.
      Default threads: 4
      Default applies to threads_max and threads_num_fftboxes.
      Settings in the input file override this default.
   ... done

   Running with 40 MPI processes.
   There are 10 MPI processes running on the same node as the root process.
   Each MPI process is using: 
               1 threads for simulation cell FFTs.
               1 threads for parallel FFT box operations.
               4 threads for loops over batched FFT box operations.
               4 threads in other parallel regions.
... done

Basic input checks...... done

Reading geometry and species blocks from file "host_33541.dat" ...
  <species_atomic_set> block not found: NGWF initialisation set to SOLVE
IS: Dielectric excluded regions:
    - NONE.
    
  Number of PPD points along a3 set to 1.  This is 
  the default value, it may have been provided also in the input file.
... done
 Writing xyz coordinates to file "host_33541.xyz" ... done


--------------------------------------------------------------------------------
---------------------------------- INPUT FILE ----------------------------------
--------------------------------------------------------------------------------

cutoff_energy       : 800 eV                                                    
xc_functional PBE                                                               
task SINGLEPOINT                                                                
write_xyz true                                                                  
output_detail VERBOSE                                                           
ngwf_threshold_orig : 0.000002                                                  
kernel_cutoff       : 1000                                                      
k_zero              : 3.5                                                       
elec_cg_max 0                                                                   
occ_mix 1.0                                                                     
dispersion 1                                                                    
maxit_ngwf_cg 40                                                                
minit_lnv 10                                                                    
maxit_lnv 10                                                                    
write_denskern T                                                                
write_tightbox_ngwfs T                                                          
charge 9                                                                        
is_implicit_solvent T                                                           
is_auto_solvation T                                                             
is_include_apolar T                                                             
is_smeared_ion_rep T                                                            
is_solvent_surf_tension 4.7624E-5 Ha/bohr**2                                    
is_apolar_scaling_factor 0.281075                                               
is_solvation_beta 1.3                                                           
is_density_threshold 0.00035                                                    
is_bulk_permittivity 78.54                                                      
is_dielectric_model fix_initial                                                 
is_smeared_ion_width 0.8                                                        
mg_defco_fd_order 8                                                             
is_bc_coarseness 10                                                             
is_bc_surface_coarseness 1                                                      
fine_grid_scale 2.0                                                             
%block species                                                                  
N   N   7 4 8.0                                                                 
H   H   1 1 8.0                                                                 
C   C   6 4 8.0                                                                 
S   S  16 9 8.0                                                                 
O   O   8 4 8.0                                                                 
%endblock species                                                               
%block species_pot                                                              
N   N_00.recpot                                                                 
H   H_04.recpot                                                                 
C   C_01.recpot                                                                 
S   S_00.recpot                                                                 
O   O_02.recpot                                                                 
%endblock species_pot                                                           
%block lattice_cart                                                             
137.614   0.000   0.000                                                         
0.000 142.646   0.000                                                           
0.000   0.000   160.855                                                         
%endblock lattice_cart                                                          
%block positions_abs                                                            
     Hash =  -000007403837009928436940
%endblock positions_abs                                                         

--------------------------------------------------------------------------------
-------------------------------- END INPUT FILE --------------------------------
--------------------------------------------------------------------------------


 
 ESDF WARNING(1): "kernelcutoff" (esdf_physical) has no units. Assume "bohr".
 ESDF WARNING(2): "kzero" (esdf_physical) has no units. Assume "1/bohr".
 ESDF WARNING(3
 ): "issmearedionwidth" (esdf_physical) has no units. Assume "bohr".
<<<<<<<<<<<<<<<<<<<<<<<<<<<<<<<<< Full system >>>>>>>>>>>>>>>>>>>>>>>>>>>>>>>>>>
<<<<<<<<<<<<<<<<<<<<<<<<< Pseudopotential information >>>>>>>>>>>>>>>>>>>>>>>>>>
File: N_00.recpot [ 2001 points up to Gmax=  52.9 (1/bohr)]
  Atomic number:  7;  ionic charge:  5.000000
    Shell 1: l = 0; rc = 1.48 bohr
File: H_04.recpot [ 2001 points up to Gmax=  52.9 (1/bohr)]
  Atomic number:  1;  ionic charge:  1.000000
    Local potential
File: C_01.recpot [ 2001 points up to Gmax=  52.9 (1/bohr)]
  Atomic number:  6;  ionic charge:  4.000000
    Shell 1: l = 0; rc = 1.48 bohr
File: S_00.recpot [ 2001 points up to Gmax=  52.9 (1/bohr)]
  Atomic number: 16;  ionic charge:  6.000000
    Shell 1: l = 0; rc = 1.90 bohr
    Shell 2: l = 2; rc = 1.84 bohr
File: O_02.recpot [ 2001 points up to Gmax=  52.9 (1/bohr)]
  Atomic number:  8;  ionic charge:  6.000000
    Shell 1: l = 0; rc = 1.31 bohr
<<<<<<<<<<<<<<<<<<<<<<<<<<<<<<<<<<<<<<<<>>>>>>>>>>>>>>>>>>>>>>>>>>>>>>>>>>>>>>>>

-------------------------- Atom counting information ---------------------------
Symbol    Natoms    Nngwfs    Nprojs
  N        236       944       236
  H       1311      1311         0
  C        810      3240       810
  S          6        54        36
  O        239       956       239
.......   ......    ......    ......
Totals:   2602      6505      1321
--------------------------------------------------------------------------------

=============================== PSINC grid sizes ===============================
                      Simulation cell:  273 x 286 x 320
                              FFT-box:   99 x 105 x  99
                                  PPD:    7 x  11 x   1
Grid space d1=  0.504080586081a0 (KE cutoff=  29.89538Eh = 813.49465eV)
Grid space d2=  0.498762237762a0 (KE cutoff=  30.53633Eh = 830.93588eV)
Grid space d3=  0.502671875000a0 (KE cutoff=  30.06317Eh = 818.06059eV)
================================================================================

********************* Fourier parallelisation information **********************
       Coarse grid (whole simulation cell) dimensions:    273   286   320
          Real-space ('12') slabs/node (min max mean):      8     8     8
         Recip-space ('23') slabs/node (min max mean):      3     4     3
********************************************************************************

********************* Fourier parallelisation information **********************
       Double grid (whole simulation cell) dimensions:    546   572   640
          Real-space ('12') slabs/node (min max mean):     16    16    16
         Recip-space ('23') slabs/node (min max mean):      6     7     6
********************************************************************************
ONETEP fine grid is 546 x 572 x 640 gridpoints, 137.6140 x 142.6460 x 160.8550 bohr.
FD multigrid is     545 x 569 x 633 gridpoints, 137.3620 x 141.8979 x 159.0956 bohr.


Calculating local pseudopotential in open BC on a radial grid ...
Discrepancy between calculated realspace psloc and -Z/x on [5a0,255.264a0]:
max |rel. diff| # avg |rel. diff| #  avg rel. diff #  f # pseudopotential file
 0.000296759711    0.000009439468   0.000000085927   54  'N_00.recpot'
 0.000490027943    0.000021572324  -0.000000031900   54  'H_04.recpot'
 0.000320795249    0.000014598087   0.000000111901   54  'C_01.recpot'
 0.000388730920    0.000016096375   0.000000514750   54  'S_00.recpot'
 0.000828383344    0.000035421288   0.000000087443   54  'O_02.recpot'
... done

Atom SCF Calculation for N  : Z (AE atom) =   7 : Z (PS atom) =   5
Config String:
Orbitals (num,occ):  2     2.00 3.00
Orbitals   (num,l):  2        0    1
Real-space Grid (nr,dr,rmax): 1203    0.0066555740    8.0000000000
Spherical Bessel Basis (nsws,lmax,cutoff):   47    1  176.3951722778
Confining potential (l,width,scale):  0    3.0000000000  100.0000000000
Confining potential (l,width,scale):  1    3.0000000000  100.0000000000
  1         -4.7312375307   -3.4155304497    7.0523828109   -1.9351020946
  2         -9.7309464766   -2.0532547791    8.2966052865   -2.2494486027
  3         -9.6627394379   -2.1124926340    8.2327997121   -2.2369778124
  4         -9.6814993499   -2.1215521045    8.2229805960   -2.2365178421
  5         -9.6843326483   -2.1250939529    8.2191374534   -2.2362718126
  6         -9.6859628709   -2.1267894855    8.2172963573   -2.2362066344
  7         -9.6867347035   -2.1276425665    8.2163697352   -2.2361903369
  8         -9.6870802100   -2.1280764625    8.2158983890   -2.2361891460
  9         -9.6872290423   -2.1282977424    8.2156580222   -2.2361920435
 10         -9.6872901988   -2.1284107021    8.2155353368   -2.2361953393
 11         -9.6873135296   -2.1284684031    8.2154726809   -2.2361979819
 12         -9.6873212476   -2.1284978948    8.2154406648   -2.2361998431
 13         -9.6873229586   -2.1285129774    8.2154242957   -2.2362010676
 14         -9.6873226456   -2.1285206957    8.2154159216   -2.2362018403
 15         -9.6873218534   -2.1285246479    8.2154116349   -2.2362023142
 16         -9.6873212599   -2.1285262679    8.2154098784   -2.2362025420
 17         -9.6873207834   -2.1285272564    8.2154088068   -2.2362026955
 18         -9.6873204210   -2.1285278597    8.2154081529   -2.2362027982
 19         -9.6873201550   -2.1285282280    8.2154077538   -2.2362028667
 20         -9.6873199645   -2.1285284529    8.2154075102   -2.2362029121
 21         -9.6873198305   -2.1285285903    8.2154073614   -2.2362029421
 22         -9.6873197377   -2.1285286742    8.2154072705   -2.2362029618
Atom SCF converged after  22 iterations to a total energy of     -9.68731974

Atom SCF Calculation for H  : Z (AE atom) =   1 : Z (PS atom) =   1
Config String:
Orbitals (num,occ):  1     1.00
Orbitals   (num,l):  1        0
Real-space Grid (nr,dr,rmax): 1203    0.0066555740    8.0000000000
Spherical Bessel Basis (nsws,lmax,cutoff):   47    0  176.3951722778
Confining potential (l,width,scale):  0    3.0000000000  100.0000000000
  1         -0.3194257691   -0.2393854593    0.2820953124   -0.2424203209
  2         -0.3951823392   -0.2377116493    0.2886404059   -0.2475147891
  3         -0.4317044583   -0.2352244387    0.2921333887   -0.2514046172
  4         -0.4470703708   -0.2341892222    0.2934391879   -0.2531009782
  5         -0.4532132900   -0.2338556667    0.2938388426   -0.2537313520
  6         -0.4556579251   -0.2337612552    0.2939448584   -0.2539550462
  7         -0.4566418315   -0.2337377355    0.2939680120   -0.2540342273
  8         -0.4570437922   -0.2337331116    0.2939708287   -0.2540627372
  9         -0.4572102946   -0.2337328328    0.2939698291   -0.2540732650
 10         -0.4572800424   -0.2337332404    0.2939687193   -0.2540772588
 11         -0.4573095100   -0.2337335791    0.2939680317   -0.2540788122
 12         -0.4573220379   -0.2337337762    0.2939676699   -0.2540794294
 13         -0.4573273880   -0.2337338775    0.2939674931   -0.2540796787
 14         -0.4573296803   -0.2337339266    0.2939674099   -0.2540797808
 15         -0.4573306647   -0.2337339495    0.2939673718   -0.2540798230
 16         -0.4573310882   -0.2337339601    0.2939673545   -0.2540798406
 17         -0.4573312706   -0.2337339649    0.2939673467   -0.2540798479
 18         -0.4573313493   -0.2337339670    0.2939673433   -0.2540798510
Atom SCF converged after  18 iterations to a total energy of     -0.45733135

Atom SCF Calculation for C  : Z (AE atom) =   6 : Z (PS atom) =   4
Config String:
Orbitals (num,occ):  2     2.00 2.00
Orbitals   (num,l):  2        0    1
Real-space Grid (nr,dr,rmax): 1203    0.0066555740    8.0000000000
Spherical Bessel Basis (nsws,lmax,cutoff):   47    1  176.3951722778
Confining potential (l,width,scale):  0    3.0000000000  100.0000000000
Confining potential (l,width,scale):  1    3.0000000000  100.0000000000
  1         -5.2976922011   -1.3069684169    4.5135249990   -1.4493313817
  2         -5.3721716256   -1.3429755895    4.4750154450   -1.4361613026
  3         -5.3809959565   -1.3617365618    4.4541655428   -1.4305930207
  4         -5.3918938866   -1.3667928461    4.4484735100   -1.4294652294
  5         -5.3956096428   -1.3688539142    4.4461376126   -1.4290734646
  6         -5.3968271862   -1.3696852393    4.4451910874   -1.4289366866
  7         -5.3972028401   -1.3700178062    4.4448112275   -1.4288900460
  8         -5.3973067903   -1.3701500158    4.4446598370   -1.4288749220
  9         -5.3973286940   -1.3702023868    4.4445997329   -1.4288704293
 10         -5.3973289850   -1.3702230869    4.4445759233   -1.4288693188
 11         -5.3973254264   -1.3702312560    4.4445665049   -1.4288691775
 12         -5.3973224003   -1.3702344755    4.4445627836   -1.4288692549
 13         -5.3973208708   -1.3702354890    4.4445616088   -1.4288693270
 14         -5.3973198783   -1.3702360102    4.4445610034   -1.4288693814
 15         -5.3973192535   -1.3702362780    4.4445606917   -1.4288694190
 16         -5.3973188684   -1.3702364155    4.4445605313   -1.4288694437
 17         -5.3973186349   -1.3702364860    4.4445604489   -1.4288694595
 18         -5.3973184951   -1.3702365221    4.4445604065   -1.4288694693
 19         -5.3973184122   -1.3702365405    4.4445603848   -1.4288694753
Atom SCF converged after  19 iterations to a total energy of     -5.39731841

Atom SCF Calculation for S  : Z (AE atom) =  16 : Z (PS atom) =   6
Config String:
Orbitals (num,occ):  3     2.00 4.00 0.00
Orbitals   (num,l):  3        0    1    2
Real-space Grid (nr,dr,rmax): 1203    0.0066555740    8.0000000000
Spherical Bessel Basis (nsws,lmax,cutoff):   47    2  176.3951722778
Confining potential (l,width,scale):  0    3.0000000000  100.0000000000
Confining potential (l,width,scale):  1    3.0000000000  100.0000000000
Confining potential (l,width,scale):  2    3.0000000000  100.0000000000
  1        -12.4735062396   -1.0328741412   10.1554312477   -2.4512393157
  2         -9.9458301913   -2.4607392455    8.3041325857   -2.0306994528
  3        -10.1450417646   -2.2931184565    8.4831893826   -2.0812538287
  4        -10.1528335592   -2.2733105793    8.5050388867   -2.0896035179
  5        -10.1571940363   -2.2633716629    8.5160794258   -2.0939370707
  6        -10.1594380571   -2.2584938667    8.5215163935   -2.0961289008
  7        -10.1605856507   -2.2561081821    8.5241804044   -2.0972291378
  8        -10.1611799191   -2.2549395235    8.5254868240   -2.0977806248
  9        -10.1614918752   -2.2543658586    8.5261285885   -2.0980571586
 10        -10.1616572884   -2.2540839121    8.5264441898   -2.0981959233
 11        -10.1617455602   -2.2539453058    8.5265994231   -2.0982656006
 12        -10.1617928447   -2.2538772062    8.5266757320   -2.0983006047
 13        -10.1618182292   -2.2538437891    8.5267131983   -2.0983181961
 14        -10.1618318741   -2.2538274201    8.5267315620   -2.0983270391
 15        -10.1618392144   -2.2538194197    8.5267405433   -2.0983314852
 16        -10.1618431651   -2.2538155200    8.5267449245   -2.0983337210
 17        -10.1618452923   -2.2538136252    8.5267470551   -2.0983348455
 18        -10.1618464380   -2.2538127080    8.5267480875   -2.0983354110
 19        -10.1618470552   -2.2538122659    8.5267485856   -2.0983356955
 20        -10.1618473878   -2.2538120540    8.5267488248   -2.0983358386
 21        -10.1618475670   -2.2538119530    8.5267489389   -2.0983359106
 22        -10.1618476637   -2.2538119053    8.5267489929   -2.0983359468
Atom SCF converged after  22 iterations to a total energy of    -10.16184766

Atom SCF Calculation for O  : Z (AE atom) =   8 : Z (PS atom) =   6
Config String:
Orbitals (num,occ):  2     2.00 4.00
Orbitals   (num,l):  2        0    1
Real-space Grid (nr,dr,rmax): 1203    0.0066555740    8.0000000000
Spherical Bessel Basis (nsws,lmax,cutoff):   47    1  176.3951722778
Confining potential (l,width,scale):  0    3.0000000000  100.0000000000
Confining potential (l,width,scale):  1    3.0000000000  100.0000000000
  1         -1.8735052164   -7.5539365035   10.1554312477   -2.4512393157
  2        -16.0318313751   -3.1285771268   13.6395848164   -3.2358799643
  3        -15.9524020423   -3.0762819706   13.6967272503   -3.2536856837
  4        -15.8521515939   -3.0781493909   13.6951909330   -3.2561700440
  5        -15.8357139793   -3.0748501933   13.6988803334   -3.2580493133
  6        -15.8246052853   -3.0740779781   13.6997881576   -3.2588327446
  7        -15.8189019501   -3.0737449687   13.7001869911   -3.2592378801
  8        -15.8159785510   -3.0736026016   13.7003615168   -3.2594475790
  9        -15.8144776168   -3.0735437994   13.7004360379   -3.2595560735
 10        -15.8137058024   -3.0735207882   13.7004667348   -3.2596122456
 11        -15.8133083127   -3.0735125946   13.7004786868   -3.2596413656
 12        -15.8131032938   -3.0735102195   13.7004828997   -3.2596564858
 13        -15.8129973902   -3.0735099286   13.7004840891   -3.2596643505
 14        -15.8129426040   -3.0735102506   13.7004842061   -3.2596684489
 15        -15.8129142203   -3.0735106556   13.7004840157   -3.2596705887
 16        -15.8128994940   -3.0735109855   13.7004837906   -3.2596717080
 17        -15.8128918425   -3.0735112169   13.7004836103   -3.2596722946
 18        -15.8128878614   -3.0735113674   13.7004834848   -3.2596726026
 19        -15.8128857871   -3.0735114608   13.7004834035   -3.2596727646
 20        -15.8128847048   -3.0735115170   13.7004833533   -3.2596728500
 21        -15.8128841394   -3.0735115501   13.7004833231   -3.2596728951
 22        -15.8128838436   -3.0735115693   13.7004833054   -3.2596729190
 23        -15.8128836887   -3.0735115802   13.7004832951   -3.2596729316
 24        -15.8128836074   -3.0735115864   13.7004832893   -3.2596729383
Atom SCF converged after  24 iterations to a total energy of    -15.81288361

========================== Calculation in vacuum ==============================
= Adjusting the following parameters: 
= is_implicit_solvent: F
= is_include_apolar: F
= write_denskern: T
= write_tightbox_ngwfs: T
= restart read filename prefix: ""
= restart write filename prefix: "vacuum_"
===============================================================================

Determining parallel strategy ...
... using space-filling curve
... NGWF load balancing: max    163;  min    162;  average    163
... Projector load balancing: max     36;  min     32;  average     33
... done
Calculating direct Ion-Ion energy ...
Ion-Ion Energy        :    822390.10334680706728
======================= Empirical dispersion information =======================
Model : Elstner
Dispersion Correction Energy: -0.31818412E+01 Hartree
================================================================================
Basis initialisation ...... NGWF spheres initialised
... Projector spheres initialised
... NGWF tight boxes initialised
... Tight-boxes gathered
... NGWF basis size (local,global):    1115481  44686155
... Nonlocal pseudopotential projector initialisation
... done

========================== Sparse matrix information ===========================
                        Overlap matrix filling:   6.60%
                        Density kernel filling: 100.00%
              NGWF-Proj overlap matrix filling:   1.73%
                    Hamiltonian matrix filling:   7.40%
                  NGWF diagonal matrix filling:   0.05%
                             KS matrix filling: 100.00% 
                           KSKS matrix filling: 100.00% 
================================================================================

Sparse matrix initialisation ... done

Generating smeared ion density ... done
Smeared ion self correction:     -14457.169564
Smeared ion non-self correction: -822341.962976
NGWF initialisation ...... done
============ Calculation of NGWF S^-1 using Hotelling algorithm ================ 
         Iteration  |  Frobenius norm and Maximum abs value    (of I-S*S_n^-1)   
               1       0.78547018E+02     0.98315612E+00
               2       0.76743193E+02     0.96670841E+00
               3       0.73804285E+02     0.93494670E+00
               4       0.69595503E+02     0.87561426E+00
               5       0.64321866E+02     0.77429265E+00
               6       0.58369848E+02     0.70803655E+00
               7       0.52351740E+02     0.67465301E+00
               8       0.46789201E+02     0.64829918E+00
               9       0.40787483E+02     0.60983675E+00
              10       0.32644534E+02     0.54353145E+00
              11       0.22153291E+02     0.43526137E+00
              12       0.11486106E+02     0.29296661E+00
              13       0.38717602E+01     0.14655049E+00
              14       0.63995374E+00     0.42779697E-01
              15       0.35744052E-01     0.48216101E-02
              16       0.31558024E-03     0.64770343E-04
              17       0.46317372E-07     0.11833008E-07
              18       0.96753791E-13     0.59952043E-14
================================================================================
Calculating local pseudopotential in open BC on the fine real space grid ...
... done

MG BCs: +ve charge blocks (gridpoints):     20896 (   16528147).
MG BCs: -ve charge blocks (gridpoints):      8085 (    1095698).
MG BCs:     Elided blocks (gridpoints):    179744 (  178672620).
MG BCs: Computational effort saved:  99.9852%.
MG BCs: Charge after coarse-graining:           -9.0002300.
MG DL_MG: Calling solver with defect correction order = 8
MG DL_MG: Solver finished
MG Hartree energy from (\int phi*rho dr):              1462.741941
MG Hartree energy from (\int eps (grad phi)^2 dr):     1462.131134
MG Discrepancy due to finite box and discretization:     -0.610807 (  -0.04176%)
MG Correction to account for finite box:                  0.464051
MG Remaining discrepancy, due to discretization:         -0.146756 (  -0.01003%)
Up spin density kernel initialisation ... 
======= Optimisation of K by Palser-Manolopoulos canonical purification ======== 
         Iteration  |  Band structure energy |    c_n   
               1       -2579.23435429542724    0.5265672
               2       -2754.81320790392056    0.5169301
               3       -2934.45431409918183    0.5156034
               4       -3084.03600380972330    0.5294434
               5       -3175.64707101985459    0.5654740
               6       -3213.79929271164383    0.6090066
               7       -3226.81282398164967    0.6174195
               8       -3232.53373246426327    0.6118967
               9       -3235.30072824615218    0.6210622
              10       -3236.41838837395971    0.6478928
              11       -3236.81933540973478    0.6787048
              12       -3236.97037294058191    0.6766391
              13       -3237.04588133632751    0.6447385
              14       -3237.09044192056808    0.6005773
              15       -3237.11490261388826    0.5612337
              16       -3237.12552766846420    0.5718268
              17       -3237.12862647886413    0.6384380
              18       -3237.12938294236028    0.6646841
              19       -3237.12962727476179    0.6526532
              20       -3237.12978679849994    0.6342658
              21       -3237.12991386571048    0.6085252
              22       -3237.13002594024829    0.5734410
              23       -3237.13012662801066    0.5343953
              24       -3237.13021135584677    0.5075114
              25       -3237.13027676075671    0.5003469
              26       -3237.13031661306104    0.5000007
              27       -3237.13032773709529    0.5000000
              28       -3237.13032837968922    0.5000010
              29       -3237.13032838164509    0.5000010
Termination criterion satisfied: band energy change below threshold.
Final occupancy bounds: [    0.00000000000003:    1.00000000000000]
Closest occupancy to 0.5:     1.00000000000000
================================================================================
... done

Writing density kernel to file "host_33541.vacuum_dkn" ... done

>>> Optimising kernel for current NGWFs:
   Initial electron number for spin 1:    7192.00000000
     Final electron number for spin 1:    7192.00000000

=================== Penalty functional idempotency correction ==================
 RMS occupancy error at iteration   1:  0.000000 (step -0.5000 Ne1=   7192.0000)
            Final RMS occupancy error   :  0.000000 (Ne1=   7192.0000)
               Final occupancy bounds   : [  0.0000,  1.0000]
================================================================================

................................................................................
<<<<<<<<<<<<<< LNV (Original version) density kernel optimisation >>>>>>>>>>>>>>
~~~~~~~~~~~~~~~~~~~~~~~~~~~~~~~~~~~~~~~~~~~~~~~~~~~~~~~~~~~~~~~~~~~~~~~~~~~~~~~~
   iter  |      energy (Eh)       | rms gradient |  commutator  |   dE (Eh)
MG BCs: +ve charge blocks (gridpoints):     31558 (   17656516).
MG BCs: -ve charge blocks (gridpoints):      8445 (    1129647).
MG BCs:     Elided blocks (gridpoints):    169072 (  177510302).
MG BCs: Computational effort saved:  99.9796%.
MG BCs: Charge after coarse-graining:           -9.0009708.
MG DL_MG: Calling solver with defect correction order = 8
MG DL_MG: Solver finished
MG Hartree energy from (\int phi*rho dr):              1418.680144
MG Hartree energy from (\int eps (grad phi)^2 dr):     1418.021366
MG Discrepancy due to finite box and discretization:     -0.658778 (  -0.04644%)
MG Correction to account for finite box:                  0.469791
MG Remaining discrepancy, due to discretization:         -0.188988 (  -0.01332%)
      ideal mu1:      -0.687983904755
             Q0:  -11506.831691496191
             G0:    -146.545953074290
   RMS gradient:       0.001860971036
MG BCs: +ve charge blocks (gridpoints):     31523 (   17741058).
MG BCs: -ve charge blocks (gridpoints):      8321 (    1108975).
MG BCs:     Elided blocks (gridpoints):    169108 (  177446432).
MG BCs: Computational effort saved:  99.9797%.
MG BCs: Charge after coarse-graining:           -9.0009905.
MG DL_MG: Calling solver with defect correction order = 8
MG DL_MG: Solver finished
MG Hartree energy from (\int phi*rho dr):              1443.550587
MG Hartree energy from (\int eps (grad phi)^2 dr):     1442.908590
MG Discrepancy due to finite box and discretization:     -0.641997 (  -0.04447%)
MG Correction to account for finite box:                  0.468621
MG Remaining discrepancy, due to discretization:         -0.173376 (  -0.01201%)
     Trial step:       0.500000000000
             Q1:  -11518.522626453429
 Quadratic coef:      61.582041579906
 Linear coef   :     -73.272976537145
           Qmin:  -11528.627530643738
Quadratic minimum step length (  0.297460812671) accepted
    Initial Ne1:    7192.00000000
      Final Ne1:    7192.00000000

=================== Penalty functional idempotency correction ==================
 RMS occupancy error at iteration   1:  0.003456 (step -0.4883 Ne1=   7192.0000)
 RMS occupancy error at iteration   2:  0.000027 (step -0.5001 Ne1=   7192.0000)
            Final RMS occupancy error   :  0.000000 (Ne1=   7192.0000)
               Final occupancy bounds   : [  0.0000,  1.0000]
================================================================================

    1        -1.150683169150E+04     1.8610E-03     1.6832E-03
MG BCs: +ve charge blocks (gridpoints):     31520 (   17708406).
MG BCs: -ve charge blocks (gridpoints):      8370 (    1117702).
MG BCs:     Elided blocks (gridpoints):    169111 (  177470357).
MG BCs: Computational effort saved:  99.9797%.
MG BCs: Charge after coarse-graining:           -9.0009826.
MG DL_MG: Calling solver with defect correction order = 8
MG DL_MG: Solver finished
MG Hartree energy from (\int phi*rho dr):              1425.461745
MG Hartree energy from (\int eps (grad phi)^2 dr):     1424.813898
MG Discrepancy due to finite box and discretization:     -0.647848 (  -0.04545%)
MG Correction to account for finite box:                  0.468972
MG Remaining discrepancy, due to discretization:         -0.178875 (  -0.01255%)
      ideal mu1:      -0.735709124224
             Q0:  -11529.040438721422
             G0:     -12.393158231430
   RMS gradient:       0.000537486625
MG BCs: +ve charge blocks (gridpoints):     31514 (   17725640).
MG BCs: -ve charge blocks (gridpoints):      8342 (    1112305).
MG BCs:     Elided blocks (gridpoints):    169117 (  177458520).
MG BCs: Computational effort saved:  99.9797%.
MG BCs: Charge after coarse-graining:           -9.0009861.
MG DL_MG: Calling solver with defect correction order = 8
MG DL_MG: Solver finished
MG Hartree energy from (\int phi*rho dr):              1430.676275
MG Hartree energy from (\int eps (grad phi)^2 dr):     1430.032078
MG Discrepancy due to finite box and discretization:     -0.644197 (  -0.04503%)
MG Correction to account for finite box:                  0.468493
MG Remaining discrepancy, due to discretization:         -0.175704 (  -0.01228%)
     Trial step:       0.385655813304
             Q1:  -11531.943291236879
 Quadratic coef:       1.876641001694
 Linear coef   :      -4.779493517151
           Qmin:  -11532.083583129419
Quadratic minimum step length (  0.491100710758) accepted
    Initial Ne1:    7191.99989749
      Final Ne1:    7192.00000000

=================== Penalty functional idempotency correction ==================
 RMS occupancy error at iteration   1:  0.001851 (step -0.4929 Ne1=   7192.0000)
 RMS occupancy error at iteration   2:  0.000012 (step -0.5002 Ne1=   7192.0000)
            Final RMS occupancy error   :  0.000000 (Ne1=   7192.0000)
               Final occupancy bounds   : [  0.0000,  1.0000]
================================================================================

    2        -1.152904043872E+04     5.3749E-04     4.8614E-04    -2.2209E+01
MG BCs: +ve charge blocks (gridpoints):     31513 (   17730264).
MG BCs: -ve charge blocks (gridpoints):      8338 (    1110929).
MG BCs:     Elided blocks (gridpoints):    169118 (  177455272).
MG BCs: Computational effort saved:  99.9797%.
MG BCs: Charge after coarse-graining:           -9.0009871.
MG DL_MG: Calling solver with defect correction order = 8
MG DL_MG: Solver finished
MG Hartree energy from (\int phi*rho dr):              1432.152895
MG Hartree energy from (\int eps (grad phi)^2 dr):     1431.509622
MG Discrepancy due to finite box and discretization:     -0.643273 (  -0.04492%)
MG Correction to account for finite box:                  0.468374
MG Remaining discrepancy, due to discretization:         -0.174899 (  -0.01221%)
      ideal mu1:      -0.761883879533
             Q0:  -11532.122146739974
             G0:      -2.004461936256
   RMS gradient:       0.000216235765
MG BCs: +ve charge blocks (gridpoints):     31521 (   17729461).
MG BCs: -ve charge blocks (gridpoints):      8334 (    1112068).
MG BCs:     Elided blocks (gridpoints):    169110 (  177454936).
MG BCs: Computational effort saved:  99.9797%.
MG BCs: Charge after coarse-graining:           -9.0009866.
MG DL_MG: Calling solver with defect correction order = 8
MG DL_MG: Solver finished
MG Hartree energy from (\int phi*rho dr):              1429.905432
MG Hartree energy from (\int eps (grad phi)^2 dr):     1429.262538
MG Discrepancy due to finite box and discretization:     -0.642894 (  -0.04496%)
MG Correction to account for finite box:                  0.468206
MG Remaining discrepancy, due to discretization:         -0.174688 (  -0.01222%)
     Trial step:       0.435196328134
             Q1:  -11532.639001366100
 Quadratic coef:       0.355479848418
 Linear coef   :      -0.872334474544
           Qmin:  -11532.657315919651
Quadratic minimum step length (  0.533977892018) accepted
    Initial Ne1:    7191.99991488
      Final Ne1:    7192.00000000

=================== Penalty functional idempotency correction ==================
 RMS occupancy error at iteration   1:  0.000702 (step -0.4951 Ne1=   7192.0000)
 RMS occupancy error at iteration   2:  0.000008 (step -0.5005 Ne1=   7192.0000)
            Final RMS occupancy error   :  0.000000 (Ne1=   7192.0000)
               Final occupancy bounds   : [  0.0000,  1.0000]
================================================================================

    3        -1.153212214674E+04     2.1624E-04     1.9558E-04    -3.0817E+00
MG BCs: +ve charge blocks (gridpoints):     31520 (   17729247).
MG BCs: -ve charge blocks (gridpoints):      8332 (    1112290).
MG BCs:     Elided blocks (gridpoints):    169111 (  177454928).
MG BCs: Computational effort saved:  99.9797%.
MG BCs: Charge after coarse-graining:           -9.0009866.
MG DL_MG: Calling solver with defect correction order = 8
MG DL_MG: Solver finished
MG Hartree energy from (\int phi*rho dr):              1429.406140
MG Hartree energy from (\int eps (grad phi)^2 dr):     1428.763320
MG Discrepancy due to finite box and discretization:     -0.642820 (  -0.04497%)
MG Correction to account for finite box:                  0.468168
MG Remaining discrepancy, due to discretization:         -0.174652 (  -0.01222%)
      ideal mu1:      -0.762378614244
             Q0:  -11532.662293566274
             G0:      -0.578032337479
   RMS gradient:       0.000116303150
MG BCs: +ve charge blocks (gridpoints):     31519 (   17730375).
MG BCs: -ve charge blocks (gridpoints):      8332 (    1112002).
MG BCs:     Elided blocks (gridpoints):    169112 (  177454088).
MG BCs: Computational effort saved:  99.9797%.
MG BCs: Charge after coarse-graining:           -9.0009867.
MG DL_MG: Calling solver with defect correction order = 8
MG DL_MG: Solver finished
MG Hartree energy from (\int phi*rho dr):              1430.652235
MG Hartree energy from (\int eps (grad phi)^2 dr):     1430.009368
MG Discrepancy due to finite box and discretization:     -0.642867 (  -0.04494%)
MG Correction to account for finite box:                  0.468119
MG Remaining discrepancy, due to discretization:         -0.174748 (  -0.01221%)
     Trial step:       0.482063499875
             Q1:  -11532.812444424490
 Quadratic coef:       0.128497433430
 Linear coef   :      -0.278648291646
           Qmin:  -11532.813356642719
Quadratic minimum step length (  0.522680364576) accepted
    Initial Ne1:    7191.99990115
      Final Ne1:    7192.00000000

=================== Penalty functional idempotency correction ==================
 RMS occupancy error at iteration   1:  0.000464 (step -0.4821 Ne1=   7192.0000)
 RMS occupancy error at iteration   2:  0.000013 (step -0.5002 Ne1=   7192.0000)
            Final RMS occupancy error   :  0.000000 (Ne1=   7192.0000)
               Final occupancy bounds   : [  0.0000,  1.0000]
================================================================================

    4        -1.153266229357E+04     1.1630E-04     1.0519E-04    -5.4015E-01
MG BCs: +ve charge blocks (gridpoints):     31519 (   17730462).
MG BCs: -ve charge blocks (gridpoints):      8331 (    1111963).
MG BCs:     Elided blocks (gridpoints):    169112 (  177454040).
MG BCs: Computational effort saved:  99.9797%.
MG BCs: Charge after coarse-graining:           -9.0009868.
MG DL_MG: Calling solver with defect correction order = 8
MG DL_MG: Solver finished
MG Hartree energy from (\int phi*rho dr):              1430.758675
MG Hartree energy from (\int eps (grad phi)^2 dr):     1430.115803
MG Discrepancy due to finite box and discretization:     -0.642872 (  -0.04493%)
MG Correction to account for finite box:                  0.468115
MG Remaining discrepancy, due to discretization:         -0.174757 (  -0.01221%)
      ideal mu1:      -0.762582941592
             Q0:  -11532.813958106562
             G0:      -0.257956423967
   RMS gradient:       0.000077973703
MG BCs: +ve charge blocks (gridpoints):     31521 (   17730598).
MG BCs: -ve charge blocks (gridpoints):      8329 (    1111830).
MG BCs:     Elided blocks (gridpoints):    169110 (  177454037).
MG BCs: Computational effort saved:  99.9797%.
MG BCs: Charge after coarse-graining:           -9.0009868.
MG DL_MG: Calling solver with defect correction order = 8
MG DL_MG: Solver finished
MG Hartree energy from (\int phi*rho dr):              1431.261131
MG Hartree energy from (\int eps (grad phi)^2 dr):     1430.618031
MG Discrepancy due to finite box and discretization:     -0.643100 (  -0.04493%)
MG Correction to account for finite box:                  0.468176
MG Remaining discrepancy, due to discretization:         -0.174924 (  -0.01222%)
     Trial step:       0.501961279247
             Q1:  -11532.898292430211
 Quadratic coef:       0.045149812917
 Linear coef   :      -0.129484136564
           Qmin:  -11532.906794269875
Quadratic minimum step length (  0.719781751385) accepted
    Initial Ne1:    7191.99981577
      Final Ne1:    7192.00000000

=================== Penalty functional idempotency correction ==================
 RMS occupancy error at iteration   1:  0.001064 (step -0.4331 Ne1=   7192.0000)
 RMS occupancy error at iteration   2:  0.000042 (step -0.4994 Ne1=   7192.0000)
            Final RMS occupancy error   :  0.000000 (Ne1=   7192.0000)
               Final occupancy bounds   : [ -0.0000,  1.0000]
================================================================================

    5        -1.153281395811E+04     7.7974E-05     7.0525E-05    -1.5166E-01
MG BCs: +ve charge blocks (gridpoints):     31518 (   17730682).
MG BCs: -ve charge blocks (gridpoints):      8327 (    1111753).
MG BCs:     Elided blocks (gridpoints):    169113 (  177454030).
MG BCs: Computational effort saved:  99.9797%.
MG BCs: Charge after coarse-graining:           -9.0009868.
MG DL_MG: Calling solver with defect correction order = 8
MG DL_MG: Solver finished
MG Hartree energy from (\int phi*rho dr):              1431.482490
MG Hartree energy from (\int eps (grad phi)^2 dr):     1430.839291
MG Discrepancy due to finite box and discretization:     -0.643199 (  -0.04493%)
MG Correction to account for finite box:                  0.468202
MG Remaining discrepancy, due to discretization:         -0.174997 (  -0.01222%)
      ideal mu1:      -0.762410309861
             Q0:  -11532.905193185201
             G0:      -0.225040080556
   RMS gradient:       0.000073486049
MG BCs: +ve charge blocks (gridpoints):     31514 (   17729669).
MG BCs: -ve charge blocks (gridpoints):      8330 (    1112344).
MG BCs:     Elided blocks (gridpoints):    169117 (  177454452).
MG BCs: Computational effort saved:  99.9797%.
MG BCs: Charge after coarse-graining:           -9.0009865.
MG DL_MG: Calling solver with defect correction order = 8
MG DL_MG: Solver finished
MG Hartree energy from (\int phi*rho dr):              1429.879589
MG Hartree energy from (\int eps (grad phi)^2 dr):     1429.236342
MG Discrepancy due to finite box and discretization:     -0.643247 (  -0.04499%)
MG Correction to account for finite box:                  0.468289
MG Remaining discrepancy, due to discretization:         -0.174959 (  -0.01224%)
     Trial step:       0.601084493814
             Q1:  -11532.990195236518
 Quadratic coef:       0.050266051592
 Linear coef   :      -0.135268102909
           Qmin:  -11532.996196253300
Quadratic minimum step length (  0.808772089619) accepted
    Initial Ne1:    7192.00064036
      Final Ne1:    7192.00000000

=================== Penalty functional idempotency correction ==================
 RMS occupancy error at iteration   1:  0.003196 (step -0.3414 Ne1=   7192.0000)
 RMS occupancy error at iteration   2:  0.000227 (step -0.4894 Ne1=   7192.0000)
 RMS occupancy error at iteration   3:  0.000003 (step -0.5000 Ne1=   7192.0000)
            Final RMS occupancy error   :  0.000000 (Ne1=   7192.0000)
               Final occupancy bounds   : [  0.0000,  1.0000]
================================================================================

    6        -1.153290519319E+04     7.3486E-05     6.6466E-05    -9.1235E-02
MG BCs: +ve charge blocks (gridpoints):     31513 (   17729412).
MG BCs: -ve charge blocks (gridpoints):      8333 (    1112534).
MG BCs:     Elided blocks (gridpoints):    169118 (  177454519).
MG BCs: Computational effort saved:  99.9797%.
MG BCs: Charge after coarse-graining:           -9.0009864.
MG DL_MG: Calling solver with defect correction order = 8
MG DL_MG: Solver finished
MG Hartree energy from (\int phi*rho dr):              1429.338977
MG Hartree energy from (\int eps (grad phi)^2 dr):     1428.695716
MG Discrepancy due to finite box and discretization:     -0.643261 (  -0.04500%)
MG Correction to account for finite box:                  0.468313
MG Remaining discrepancy, due to discretization:         -0.174948 (  -0.01224%)
      ideal mu1:      -0.762441175196
             Q0:  -11532.998300378793
             G0:      -0.207384338638
   RMS gradient:       0.000070006873
MG BCs: +ve charge blocks (gridpoints):     31517 (   17730862).
MG BCs: -ve charge blocks (gridpoints):      8327 (    1111761).
MG BCs:     Elided blocks (gridpoints):    169114 (  177453842).
MG BCs: Computational effort saved:  99.9797%.
MG BCs: Charge after coarse-graining:           -9.0009868.
MG DL_MG: Calling solver with defect correction order = 8
MG DL_MG: Solver finished
MG Hartree energy from (\int phi*rho dr):              1430.960819
MG Hartree energy from (\int eps (grad phi)^2 dr):     1430.317727
MG Discrepancy due to finite box and discretization:     -0.643092 (  -0.04494%)
MG Correction to account for finite box:                  0.468313
MG Remaining discrepancy, due to discretization:         -0.174779 (  -0.01221%)
     Trial step:       0.697237665434
             Q1:  -11533.069286026526
 Quadratic coef:       0.073610524385
 Linear coef   :      -0.144596172119
           Qmin:  -11533.069309426637
Quadratic minimum step length (  0.684806271395) accepted
    Initial Ne1:    7191.99999879
      Final Ne1:    7192.00000000

=================== Penalty functional idempotency correction ==================
 RMS occupancy error at iteration   1:  0.000140 (step -0.4923 Ne1=   7192.0000)
 RMS occupancy error at iteration   2:  0.000000 (step -0.5000 Ne1=   7192.0000)
            Final RMS occupancy error   :  0.000000 (Ne1=   7192.0000)
               Final occupancy bounds   : [  0.0000,  1.0000]
================================================================================

    7        -1.153299830038E+04     7.0007E-05     6.3320E-05    -9.3107E-02
MG BCs: +ve charge blocks (gridpoints):     31517 (   17730818).
MG BCs: -ve charge blocks (gridpoints):      8327 (    1111774).
MG BCs:     Elided blocks (gridpoints):    169114 (  177453873).
MG BCs: Computational effort saved:  99.9797%.
MG BCs: Charge after coarse-graining:           -9.0009868.
MG DL_MG: Calling solver with defect correction order = 8
MG DL_MG: Solver finished
MG Hartree energy from (\int phi*rho dr):              1430.931851
MG Hartree energy from (\int eps (grad phi)^2 dr):     1430.288756
MG Discrepancy due to finite box and discretization:     -0.643095 (  -0.04494%)
MG Correction to account for finite box:                  0.468313
MG Remaining discrepancy, due to discretization:         -0.174782 (  -0.01221%)
      ideal mu1:      -0.763387619932
             Q0:  -11533.069304248784
             G0:      -0.174012253848
   RMS gradient:       0.000064154452
MG BCs: +ve charge blocks (gridpoints):     31516 (   17730546).
MG BCs: -ve charge blocks (gridpoints):      8331 (    1111781).
MG BCs:     Elided blocks (gridpoints):    169115 (  177454138).
MG BCs: Computational effort saved:  99.9797%.
MG BCs: Charge after coarse-graining:           -9.0009869.
MG DL_MG: Calling solver with defect correction order = 8
MG DL_MG: Solver finished
MG Hartree energy from (\int phi*rho dr):              1430.852424
MG Hartree energy from (\int eps (grad phi)^2 dr):     1430.209373
MG Discrepancy due to finite box and discretization:     -0.643052 (  -0.04494%)
MG Correction to account for finite box:                  0.468373
MG Remaining discrepancy, due to discretization:         -0.174678 (  -0.01221%)
     Trial step:       0.690994012956
             Q1:  -11533.141635743668
 Quadratic coef:       0.047909930705
 Linear coef   :      -0.120241425590
           Qmin:  -11533.144747900105
Quadratic minimum step length (  0.867107340476) accepted
    Initial Ne1:    7191.99999869
      Final Ne1:    7192.00000000

=================== Penalty functional idempotency correction ==================
 RMS occupancy error at iteration   1:  0.001087 (step -0.4440 Ne1=   7192.0000)
 RMS occupancy error at iteration   2:  0.000016 (step -0.4995 Ne1=   7192.0000)
            Final RMS occupancy error   :  0.000000 (Ne1=   7192.0000)
               Final occupancy bounds   : [ -0.0000,  1.0000]
================================================================================

    8        -1.153306930425E+04     6.4154E-05     5.8026E-05    -7.1004E-02
MG BCs: +ve charge blocks (gridpoints):     31517 (   17730412).
MG BCs: -ve charge blocks (gridpoints):      8330 (    1111834).
MG BCs:     Elided blocks (gridpoints):    169114 (  177454219).
MG BCs: Computational effort saved:  99.9797%.
MG BCs: Charge after coarse-graining:           -9.0009869.
MG DL_MG: Calling solver with defect correction order = 8
MG DL_MG: Solver finished
MG Hartree energy from (\int phi*rho dr):              1430.834723
MG Hartree energy from (\int eps (grad phi)^2 dr):     1430.191682
MG Discrepancy due to finite box and discretization:     -0.643041 (  -0.04494%)
MG Correction to account for finite box:                  0.468388
MG Remaining discrepancy, due to discretization:         -0.174653 (  -0.01221%)
      ideal mu1:      -0.763568151292
             Q0:  -11533.143270048895
             G0:      -0.171926406717
   RMS gradient:       0.000064486056
MG BCs: +ve charge blocks (gridpoints):     31515 (   17729730).
MG BCs: -ve charge blocks (gridpoints):      8330 (    1112247).
MG BCs:     Elided blocks (gridpoints):    169116 (  177454488).
MG BCs: Computational effort saved:  99.9797%.
MG BCs: Charge after coarse-graining:           -9.0009868.
MG DL_MG: Calling solver with defect correction order = 8
MG DL_MG: Solver finished
MG Hartree energy from (\int phi*rho dr):              1429.805432
MG Hartree energy from (\int eps (grad phi)^2 dr):     1429.162377
MG Discrepancy due to finite box and discretization:     -0.643054 (  -0.04497%)
MG Correction to account for finite box:                  0.468456
MG Remaining discrepancy, due to discretization:         -0.174599 (  -0.01221%)
     Trial step:       0.774058124988
             Q1:  -11533.209049508790
 Quadratic coef:       0.067301572124
 Linear coef   :      -0.133081032019
           Qmin:  -11533.209058114926
Quadratic minimum step length (  0.765304961425) accepted
    Initial Ne1:    7192.00019841
      Final Ne1:    7192.00000000

=================== Penalty functional idempotency correction ==================
 RMS occupancy error at iteration   1:  0.002860 (step -0.3754 Ne1=   7192.0000)
 RMS occupancy error at iteration   2:  0.000078 (step -0.4981 Ne1=   7192.0000)
 RMS occupancy error at iteration   3:  0.000000 (step -0.5000 Ne1=   7192.0000)
            Final RMS occupancy error   :  0.000000 (Ne1=   7192.0000)
               Final occupancy bounds   : [  0.0000,  1.0000]
================================================================================

    9        -1.153314327005E+04     6.4486E-05     5.8326E-05    -7.3966E-02
MG BCs: +ve charge blocks (gridpoints):     31515 (   17729737).
MG BCs: -ve charge blocks (gridpoints):      8332 (    1112238).
MG BCs:     Elided blocks (gridpoints):    169116 (  177454490).
MG BCs: Computational effort saved:  99.9797%.
MG BCs: Charge after coarse-graining:           -9.0009868.
MG DL_MG: Calling solver with defect correction order = 8
MG DL_MG: Solver finished
MG Hartree energy from (\int phi*rho dr):              1429.820598
MG Hartree energy from (\int eps (grad phi)^2 dr):     1429.177531
MG Discrepancy due to finite box and discretization:     -0.643066 (  -0.04498%)
MG Correction to account for finite box:                  0.468468
MG Remaining discrepancy, due to discretization:         -0.174598 (  -0.01221%)
      ideal mu1:      -0.763255842091
   10        -1.153321077580E+04     5.8816E-05     5.3198E-05    -6.7506E-02
Finished density kernel iterations (  10)

Writing density kernel to file "host_33541.vacuum_dkn" ... done


>>> Density kernel optimised for the current NGWF basis:
     ~~~~~~~~~~~~~~~~~~~~~~~~~~~~~~~~~~~~~~~~~~~~~~~~~~~~~~~~~~~
     Total energy                =  -1.15332107757978E+04  Eh
     Estimated bandgap           =  -3.2606E-01  Eh
     RMS occupancy error         =   1.3154E-11
     [H,K] commutator            =   5.3198E-05
     Occupancy bounds            = [ -0.000:  1.000]
     ~~~~~~~~~~~~~~~~~~~~~~~~~~~~~~~~~~~~~~~~~~~~~~~~~~~~~~~~~~~




################################################################################
########################### NGWF CG iteration  001 #############################
################################################################################
****** Reciprocal space K.E. preconditioning with k_zero =  3.5000 a0^-1 *******

>>> Checking for convergence of NGWFs:   NOT CONVERGED
  ========================================================================
         NGWF RMS gradient =  1.5643E-03 >  2.0000E-06  | above tolerance
  ========================================================================

>>> Improving NGWFs using line search:
============ Calculation of NGWF S^-1 using Hotelling algorithm ================ 
         Iteration  |  Frobenius norm and Maximum abs value    (of I-S*S_n^-1)   
               1       0.19191121E+00     0.49996530E-02
               2       0.85335289E-03     0.40704510E-04
               3       0.28687510E-07     0.26322090E-08
               4       0.12840128E-12     0.73274720E-14
================================================================================
MG BCs: +ve charge blocks (gridpoints):     31043 (   17674344).
MG BCs: -ve charge blocks (gridpoints):      8345 (    1112152).
MG BCs:     Elided blocks (gridpoints):    169590 (  177509969).
MG BCs: Computational effort saved:  99.9799%.
MG BCs: Charge after coarse-graining:           -9.0009900.
MG DL_MG: Calling solver with defect correction order = 8
MG DL_MG: Solver finished
MG Hartree energy from (\int phi*rho dr):              1398.514314
MG Hartree energy from (\int eps (grad phi)^2 dr):     1397.872040
MG Discrepancy due to finite box and discretization:     -0.642274 (  -0.04593%)
MG Correction to account for finite box:                  0.468406
MG Remaining discrepancy, due to discretization:         -0.173868 (  -0.01243%)
============ Calculation of NGWF S^-1 using Hotelling algorithm ================ 
         Iteration  |  Frobenius norm and Maximum abs value    (of I-S*S_n^-1)   
               1       0.18513866E+01     0.42772550E-01
               2       0.71304948E-01     0.25995556E-02
               3       0.14364153E-03     0.10774490E-04
               4       0.11165044E-08     0.19127766E-09
               5       0.10952178E-12     0.53290705E-14
================================================================================
------------------------------- NGWF line search -------------------------------
RMS gradient                =       0.00156434651343
Trial step length           =               0.122474
Gradient along search dir.  =       -270.14296592972
Functional at step 0        =  -11533.21077579783741
Functional at step 1        =  -11563.81701027241070
Functional predicted        =  -11643.58669220151751
Selected quadratic step     =               0.817167
--------------------------- NGWF line search finished --------------------------
                                               
Writing NGWFs to file "host_33541.vacuum_tightbox_ngwfs"....  done

>>> Optimising kernel for current NGWFs:
   Initial electron number for spin 1:    7226.46791258
     Final electron number for spin 1:    7192.00000000

=================== Penalty functional idempotency correction ==================
 RMS occupancy error at iteration   1:  0.004248 (step -0.4864 Ne1=   7192.0000)
 RMS occupancy error at iteration   2:  0.000067 (step -0.5002 Ne1=   7192.0000)
            Final RMS occupancy error   :  0.000000 (Ne1=   7192.0000)
               Final occupancy bounds   : [  0.0000,  1.0000]
================================================================================

................................................................................
<<<<<<<<<<<<<< LNV (Original version) density kernel optimisation >>>>>>>>>>>>>>
~~~~~~~~~~~~~~~~~~~~~~~~~~~~~~~~~~~~~~~~~~~~~~~~~~~~~~~~~~~~~~~~~~~~~~~~~~~~~~~~
   iter  |      energy (Eh)       | rms gradient |  commutator  |   dE (Eh)
MG BCs: +ve charge blocks (gridpoints):     25186 (   17410481).
MG BCs: -ve charge blocks (gridpoints):      8510 (    1095271).
MG BCs:     Elided blocks (gridpoints):    175454 (  177790713).
MG BCs: Computational effort saved:  99.9828%.
MG BCs: Charge after coarse-graining:           -9.0006573.
MG DL_MG: Calling solver with defect correction order = 8
MG DL_MG: Solver finished
MG Hartree energy from (\int phi*rho dr):              1243.339276
MG Hartree energy from (\int eps (grad phi)^2 dr):     1242.697146
MG Discrepancy due to finite box and discretization:     -0.642130 (  -0.05165%)
MG Correction to account for finite box:                  0.468088
MG Remaining discrepancy, due to discretization:         -0.174042 (  -0.01400%)
      ideal mu1:      -0.704464307102
             Q0:  -11642.769970561960
             G0:     -10.045067689184
   RMS gradient:       0.000487224516
MG BCs: +ve charge blocks (gridpoints):     25239 (   17425188).
MG BCs: -ve charge blocks (gridpoints):      8489 (    1091588).
MG BCs:     Elided blocks (gridpoints):    175401 (  177779689).
MG BCs: Computational effort saved:  99.9828%.
MG BCs: Charge after coarse-graining:           -9.0006532.
MG DL_MG: Calling solver with defect correction order = 8
MG DL_MG: Solver finished
MG Hartree energy from (\int phi*rho dr):              1260.323604
MG Hartree energy from (\int eps (grad phi)^2 dr):     1259.675302
MG Discrepancy due to finite box and discretization:     -0.648302 (  -0.05144%)
MG Correction to account for finite box:                  0.468044
MG Remaining discrepancy, due to discretization:         -0.180258 (  -0.01430%)
     Trial step:       0.769669099993
             Q1:  -11641.515260049840
 Quadratic coef:       8.986088719825
 Linear coef   :      -7.731378207705
           Qmin:  -11644.432935697690
Quadratic minimum step length (  0.331100832207) accepted
    Initial Ne1:    7191.99964324
      Final Ne1:    7192.00000000

=================== Penalty functional idempotency correction ==================
 RMS occupancy error at iteration   1:  0.000364 (step -0.4985 Ne1=   7192.0000)
 RMS occupancy error at iteration   2:  0.000000 (step -0.5000 Ne1=   7192.0000)
            Final RMS occupancy error   :  0.000000 (Ne1=   7192.0000)
               Final occupancy bounds   : [  0.0000,  1.0000]
================================================================================

    1        -1.164276997056E+04     4.8722E-04     4.4068E-04
MG BCs: +ve charge blocks (gridpoints):     25207 (   17416851).
MG BCs: -ve charge blocks (gridpoints):      8502 (    1093803).
MG BCs:     Elided blocks (gridpoints):    175433 (  177785811).
MG BCs: Computational effort saved:  99.9828%.
MG BCs: Charge after coarse-graining:           -9.0006554.
MG DL_MG: Calling solver with defect correction order = 8
MG DL_MG: Solver finished
MG Hartree energy from (\int phi*rho dr):              1249.581695
MG Hartree energy from (\int eps (grad phi)^2 dr):     1248.937011
MG Discrepancy due to finite box and discretization:     -0.644684 (  -0.05159%)
MG Correction to account for finite box:                  0.468051
MG Remaining discrepancy, due to discretization:         -0.176633 (  -0.01414%)
      ideal mu1:      -0.710185658380
             Q0:  -11644.403424842982
             G0:      -1.010295034096
   RMS gradient:       0.000155349185
MG BCs: +ve charge blocks (gridpoints):     25209 (   17416424).
MG BCs: -ve charge blocks (gridpoints):      8506 (    1094662).
MG BCs:     Elided blocks (gridpoints):    175431 (  177785379).
MG BCs: Computational effort saved:  99.9828%.
MG BCs: Charge after coarse-graining:           -9.0006553.
MG DL_MG: Calling solver with defect correction order = 8
MG DL_MG: Solver finished
MG Hartree energy from (\int phi*rho dr):              1250.697747
MG Hartree energy from (\int eps (grad phi)^2 dr):     1250.052661
MG Discrepancy due to finite box and discretization:     -0.645086 (  -0.05158%)
MG Correction to account for finite box:                  0.468075
MG Remaining discrepancy, due to discretization:         -0.177011 (  -0.01415%)
     Trial step:       0.504814896305
             Q1:  -11644.612620756612
 Quadratic coef:       0.300816069244
 Linear coef   :      -0.510011982874
           Qmin:  -11644.619596990407
Quadratic minimum step length (  0.427938651841) accepted
    Initial Ne1:    7191.99995311
      Final Ne1:    7192.00000000

=================== Penalty functional idempotency correction ==================
 RMS occupancy error at iteration   1:  0.000157 (step -0.4988 Ne1=   7192.0000)
 RMS occupancy error at iteration   2:  0.000000 (step -0.5000 Ne1=   7192.0000)
            Final RMS occupancy error   :  0.000000 (Ne1=   7192.0000)
               Final occupancy bounds   : [  0.0000,  1.0000]
================================================================================

    2        -1.164440342484E+04     1.5535E-04     1.4051E-04    -1.6335E+00
MG BCs: +ve charge blocks (gridpoints):     25210 (   17416535).
MG BCs: -ve charge blocks (gridpoints):      8505 (    1094488).
MG BCs:     Elided blocks (gridpoints):    175430 (  177785442).
MG BCs: Computational effort saved:  99.9828%.
MG BCs: Charge after coarse-graining:           -9.0006553.
MG DL_MG: Calling solver with defect correction order = 8
MG DL_MG: Solver finished
MG Hartree energy from (\int phi*rho dr):              1250.527537
MG Hartree energy from (\int eps (grad phi)^2 dr):     1249.882515
MG Discrepancy due to finite box and discretization:     -0.645023 (  -0.05158%)
MG Correction to account for finite box:                  0.468071
MG Remaining discrepancy, due to discretization:         -0.176952 (  -0.01415%)
      ideal mu1:      -0.711041918149
             Q0:  -11644.620095136226
             G0:      -0.181495407332
   RMS gradient:       0.000065420316
MG BCs: +ve charge blocks (gridpoints):     25208 (   17415864).
MG BCs: -ve charge blocks (gridpoints):      8506 (    1094971).
MG BCs:     Elided blocks (gridpoints):    175432 (  177785630).
MG BCs: Computational effort saved:  99.9828%.
MG BCs: Charge after coarse-graining:           -9.0006553.
MG DL_MG: Calling solver with defect correction order = 8
MG DL_MG: Solver finished
MG Hartree energy from (\int phi*rho dr):              1250.065919
MG Hartree energy from (\int eps (grad phi)^2 dr):     1249.420892
MG Discrepancy due to finite box and discretization:     -0.645026 (  -0.05160%)
MG Correction to account for finite box:                  0.468089
MG Remaining discrepancy, due to discretization:         -0.176937 (  -0.01415%)
     Trial step:       0.464790066755
             Q1:  -11644.680479334784
 Quadratic coef:       0.023973063931
 Linear coef   :      -0.084357262489
           Qmin:  -11644.694304963505
Quadratic minimum step length (  0.817759836121) accepted
    Initial Ne1:    7191.99998409
      Final Ne1:    7192.00000000

=================== Penalty functional idempotency correction ==================
 RMS occupancy error at iteration   1:  0.000293 (step -0.4811 Ne1=   7192.0000)
 RMS occupancy error at iteration   2:  0.000004 (step -0.5000 Ne1=   7192.0000)
            Final RMS occupancy error   :  0.000000 (Ne1=   7192.0000)
               Final occupancy bounds   : [  0.0000,  1.0000]
================================================================================

    3        -1.164462009514E+04     6.5420E-05     5.9171E-05    -2.1667E-01
MG BCs: +ve charge blocks (gridpoints):     25209 (   17415450).
MG BCs: -ve charge blocks (gridpoints):      8511 (    1095252).
MG BCs:     Elided blocks (gridpoints):    175431 (  177785763).
MG BCs: Computational effort saved:  99.9828%.
MG BCs: Charge after coarse-graining:           -9.0006554.
MG DL_MG: Calling solver with defect correction order = 8
MG DL_MG: Solver finished
MG Hartree energy from (\int phi*rho dr):              1249.714826
MG Hartree energy from (\int eps (grad phi)^2 dr):     1249.069793
MG Discrepancy due to finite box and discretization:     -0.645033 (  -0.05161%)
MG Correction to account for finite box:                  0.468106
MG Remaining discrepancy, due to discretization:         -0.176927 (  -0.01416%)
      ideal mu1:      -0.709993465704
             Q0:  -11644.693900762475
             G0:      -0.102996685338
   RMS gradient:       0.000049516655
MG BCs: +ve charge blocks (gridpoints):     25207 (   17415357).
MG BCs: -ve charge blocks (gridpoints):      8511 (    1095277).
MG BCs:     Elided blocks (gridpoints):    175433 (  177785831).
MG BCs: Computational effort saved:  99.9828%.
MG BCs: Charge after coarse-graining:           -9.0006554.
MG DL_MG: Calling solver with defect correction order = 8
MG DL_MG: Solver finished
MG Hartree energy from (\int phi*rho dr):              1249.679582
MG Hartree energy from (\int eps (grad phi)^2 dr):     1249.034672
MG Discrepancy due to finite box and discretization:     -0.644911 (  -0.05161%)
MG Correction to account for finite box:                  0.468138
MG Remaining discrepancy, due to discretization:         -0.176773 (  -0.01415%)
     Trial step:       0.616511677764
             Q1:  -11644.734597240924
 Quadratic coef:       0.022802180833
 Linear coef   :      -0.063498659282
           Qmin:  -11644.738107934589
Quadratic minimum step length (  0.858419316493) accepted
    Initial Ne1:    7191.99998744
      Final Ne1:    7192.00000000

=================== Penalty functional idempotency correction ==================
 RMS occupancy error at iteration   1:  0.000830 (step -0.4437 Ne1=   7192.0000)
 RMS occupancy error at iteration   2:  0.000020 (step -0.4990 Ne1=   7192.0000)
            Final RMS occupancy error   :  0.000000 (Ne1=   7192.0000)
               Final occupancy bounds   : [ -0.0000,  1.0000]
================================================================================

    4        -1.164469390076E+04     4.9517E-05     4.4787E-05    -7.3806E-02
MG BCs: +ve charge blocks (gridpoints):     25205 (   17415334).
MG BCs: -ve charge blocks (gridpoints):      8512 (    1095293).
MG BCs:     Elided blocks (gridpoints):    175435 (  177785838).
MG BCs: Computational effort saved:  99.9828%.
MG BCs: Charge after coarse-graining:           -9.0006554.
MG DL_MG: Calling solver with defect correction order = 8
MG DL_MG: Solver finished
MG Hartree energy from (\int phi*rho dr):              1249.669511
MG Hartree energy from (\int eps (grad phi)^2 dr):     1249.024646
MG Discrepancy due to finite box and discretization:     -0.644864 (  -0.05160%)
MG Correction to account for finite box:                  0.468151
MG Remaining discrepancy, due to discretization:         -0.176713 (  -0.01414%)
      ideal mu1:      -0.710183121851
             Q0:  -11644.737208427396
             G0:      -0.115198453987
   RMS gradient:       0.000052710715
MG BCs: +ve charge blocks (gridpoints):     25211 (   17417317).
MG BCs: -ve charge blocks (gridpoints):      8506 (    1094557).
MG BCs:     Elided blocks (gridpoints):    175429 (  177784591).
MG BCs: Computational effort saved:  99.9828%.
MG BCs: Charge after coarse-graining:           -9.0006550.
MG DL_MG: Calling solver with defect correction order = 8
MG DL_MG: Solver finished
MG Hartree energy from (\int phi*rho dr):              1250.857298
MG Hartree energy from (\int eps (grad phi)^2 dr):     1250.212472
MG Discrepancy due to finite box and discretization:     -0.644826 (  -0.05155%)
MG Correction to account for finite box:                  0.468206
MG Remaining discrepancy, due to discretization:         -0.176620 (  -0.01412%)
     Trial step:       0.727478888379
             Q1:  -11644.775496935355
 Quadratic coef:       0.045515935290
 Linear coef   :      -0.083804443250
           Qmin:  -11644.775783844245
Quadratic minimum step length (  0.669721085907) accepted
    Initial Ne1:    7192.00040884
      Final Ne1:    7192.00000000

=================== Penalty functional idempotency correction ==================
 RMS occupancy error at iteration   1:  0.001887 (step -0.3895 Ne1=   7192.0000)
 RMS occupancy error at iteration   2:  0.000084 (step -0.4945 Ne1=   7192.0000)
 RMS occupancy error at iteration   3:  0.000000 (step -0.5000 Ne1=   7192.0000)
            Final RMS occupancy error   :  0.000000 (Ne1=   7192.0000)
               Final occupancy bounds   : [  0.0000,  1.0000]
================================================================================

    5        -1.164473720843E+04     5.2711E-05     4.7676E-05    -4.3308E-02
MG BCs: +ve charge blocks (gridpoints):     25210 (   17417156).
MG BCs: -ve charge blocks (gridpoints):      8506 (    1094594).
MG BCs:     Elided blocks (gridpoints):    175430 (  177784715).
MG BCs: Computational effort saved:  99.9828%.
MG BCs: Charge after coarse-graining:           -9.0006551.
MG DL_MG: Calling solver with defect correction order = 8
MG DL_MG: Solver finished
MG Hartree energy from (\int phi*rho dr):              1250.762685
MG Hartree energy from (\int eps (grad phi)^2 dr):     1250.117863
MG Discrepancy due to finite box and discretization:     -0.644821 (  -0.05155%)
MG Correction to account for finite box:                  0.468195
MG Remaining discrepancy, due to discretization:         -0.176627 (  -0.01412%)
      ideal mu1:      -0.711158277794
             Q0:  -11644.777042519534
             G0:      -0.075618662095
   RMS gradient:       0.000040737980
MG BCs: +ve charge blocks (gridpoints):     25208 (   17417308).
MG BCs: -ve charge blocks (gridpoints):      8505 (    1094657).
MG BCs:     Elided blocks (gridpoints):    175432 (  177784500).
MG BCs: Computational effort saved:  99.9828%.
MG BCs: Charge after coarse-graining:           -9.0006550.
MG DL_MG: Calling solver with defect correction order = 8
MG DL_MG: Solver finished
MG Hartree energy from (\int phi*rho dr):              1250.667778
MG Hartree energy from (\int eps (grad phi)^2 dr):     1250.022917
MG Discrepancy due to finite box and discretization:     -0.644861 (  -0.05156%)
MG Correction to account for finite box:                  0.468168
MG Remaining discrepancy, due to discretization:         -0.176693 (  -0.01413%)
     Trial step:       0.698002830294
             Q1:  -11644.807296394021
 Quadratic coef:       0.022528165679
 Linear coef   :      -0.052782040166
           Qmin:  -11644.807958749065
Quadratic minimum step length (  0.817687821326) accepted
    Initial Ne1:    7192.00029814
      Final Ne1:    7192.00000000

=================== Penalty functional idempotency correction ==================
 RMS occupancy error at iteration   1:  0.002261 (step -0.3783 Ne1=   7192.0000)
 RMS occupancy error at iteration   2:  0.000120 (step -0.4927 Ne1=   7192.0000)
 RMS occupancy error at iteration   3:  0.000001 (step -0.5000 Ne1=   7192.0000)
            Final RMS occupancy error   :  0.000000 (Ne1=   7192.0000)
               Final occupancy bounds   : [  0.0000,  1.0000]
================================================================================

    6        -1.164477704252E+04     4.0738E-05     3.6847E-05    -3.9834E-02
MG BCs: +ve charge blocks (gridpoints):     25211 (   17417374).
MG BCs: -ve charge blocks (gridpoints):      8506 (    1094631).
MG BCs:     Elided blocks (gridpoints):    175429 (  177784460).
MG BCs: Computational effort saved:  99.9828%.
MG BCs: Charge after coarse-graining:           -9.0006550.
MG DL_MG: Calling solver with defect correction order = 8
MG DL_MG: Solver finished
MG Hartree energy from (\int phi*rho dr):              1250.652748
MG Hartree energy from (\int eps (grad phi)^2 dr):     1250.007884
MG Discrepancy due to finite box and discretization:     -0.644864 (  -0.05156%)
MG Correction to account for finite box:                  0.468160
MG Remaining discrepancy, due to discretization:         -0.176703 (  -0.01413%)
      ideal mu1:      -0.711080355310
             Q0:  -11644.809816978988
             G0:      -0.059439126895
   RMS gradient:       0.000037479079
MG BCs: +ve charge blocks (gridpoints):     25209 (   17415318).
MG BCs: -ve charge blocks (gridpoints):      8511 (    1095260).
MG BCs:     Elided blocks (gridpoints):    175431 (  177785887).
MG BCs: Computational effort saved:  99.9828%.
MG BCs: Charge after coarse-graining:           -9.0006554.
MG DL_MG: Calling solver with defect correction order = 8
MG DL_MG: Solver finished
MG Hartree energy from (\int phi*rho dr):              1249.604233
MG Hartree energy from (\int eps (grad phi)^2 dr):     1248.959405
MG Discrepancy due to finite box and discretization:     -0.644828 (  -0.05160%)
MG Correction to account for finite box:                  0.468120
MG Remaining discrepancy, due to discretization:         -0.176708 (  -0.01414%)
     Trial step:       0.755478929940
             Q1:  -11644.825522221159
 Quadratic coef:       0.029199765811
 Linear coef   :      -0.044905007983
           Qmin:  -11644.827081327570
Quadratic minimum step length (  0.580908552469) accepted
    Initial Ne1:    7191.99999993
      Final Ne1:    7192.00000000

=================== Penalty functional idempotency correction ==================
 RMS occupancy error at iteration   1:  0.000038 (step -0.4970 Ne1=   7192.0000)
            Final RMS occupancy error   :  0.000000 (Ne1=   7192.0000)
               Final occupancy bounds   : [ -0.0000,  1.0000]
================================================================================

    7        -1.164480981698E+04     3.7479E-05     3.3899E-05    -3.2774E-02
MG BCs: +ve charge blocks (gridpoints):     25209 (   17415780).
MG BCs: -ve charge blocks (gridpoints):      8509 (    1095132).
MG BCs:     Elided blocks (gridpoints):    175431 (  177785553).
MG BCs: Computational effort saved:  99.9828%.
MG BCs: Charge after coarse-graining:           -9.0006553.
MG DL_MG: Calling solver with defect correction order = 8
MG DL_MG: Solver finished
MG Hartree energy from (\int phi*rho dr):              1249.844852
MG Hartree energy from (\int eps (grad phi)^2 dr):     1249.200016
MG Discrepancy due to finite box and discretization:     -0.644836 (  -0.05159%)
MG Correction to account for finite box:                  0.468130
MG Remaining discrepancy, due to discretization:         -0.176707 (  -0.01414%)
      ideal mu1:      -0.710562543271
             Q0:  -11644.827090126579
             G0:      -0.049154755472
   RMS gradient:       0.000034079255
MG BCs: +ve charge blocks (gridpoints):     25208 (   17415627).
MG BCs: -ve charge blocks (gridpoints):      8511 (    1095141).
MG BCs:     Elided blocks (gridpoints):    175432 (  177785697).
MG BCs: Computational effort saved:  99.9828%.
MG BCs: Charge after coarse-graining:           -9.0006553.
MG DL_MG: Calling solver with defect correction order = 8
MG DL_MG: Solver finished
MG Hartree energy from (\int phi*rho dr):              1249.667934
MG Hartree energy from (\int eps (grad phi)^2 dr):     1249.023110
[...]
MG Hartree energy from (\int eps (grad phi)^2 dr):     1208.118145
MG Discrepancy due to finite box and discretization:     -0.182638 (  -0.01512%)
MG Correction to account for finite box:                  0.006413
MG Remaining discrepancy, due to discretization:         -0.176225 (  -0.01458%)
     Trial step:       0.310828287855
             Q1:  -11679.356025168090
 Quadratic coef:       0.000000001259
 Linear coef   :      -0.000000001840
           Qmin:  -11679.356025168181
Quadratic minimum step length (  0.227206995996) accepted
    Initial Ne1:    7192.00000000
      Final Ne1:    7192.00000000

=================== Penalty functional idempotency correction ==================
 RMS occupancy error at iteration   1:  0.000000 (step -0.5000 Ne1=   7192.0000)
            Final RMS occupancy error   :  0.000000 (Ne1=   7192.0000)
               Final occupancy bounds   : [ -0.0000,  1.0000]
================================================================================

    7        -1.167935602517E+04     1.1828E-08     1.0699E-08    -1.1642E-09

Reusing previously generated solute cavity.
MG BCs: +ve charge blocks (gridpoints):     29417 (   19619675).
MG BCs: -ve charge blocks (gridpoints):      8505 (    1064268).
MG BCs:     Elided blocks (gridpoints):    171223 (  175612522).
MG BCs: Computational effort saved:  99.9807%.
MG BCs: Charge after coarse-graining:           -9.0009608.
MG DL_MG: Calling solver with defect correction order = 8
MG DL_MG: Solver finished
MG Hartree energy from (\int phi*rho dr):              1208.300779
MG Hartree energy from (\int eps (grad phi)^2 dr):     1208.118142
MG Discrepancy due to finite box and discretization:     -0.182638 (  -0.01512%)
MG Correction to account for finite box:                  0.006413
MG Remaining discrepancy, due to discretization:         -0.176225 (  -0.01458%)
      ideal mu1:      -0.480784925079
             Q0:  -11679.356025167974
             G0:      -0.000000003347
   RMS gradient:       0.000000007176

Reusing previously generated solute cavity.
MG BCs: +ve charge blocks (gridpoints):     29417 (   19619675).
MG BCs: -ve charge blocks (gridpoints):      8505 (    1064268).
MG BCs:     Elided blocks (gridpoints):    171223 (  175612522).
MG BCs: Computational effort saved:  99.9807%.
MG BCs: Charge after coarse-graining:           -9.0009608.
MG DL_MG: Calling solver with defect correction order = 8
MG DL_MG: Solver finished
MG Hartree energy from (\int phi*rho dr):              1208.300785
MG Hartree energy from (\int eps (grad phi)^2 dr):     1208.118147
MG Discrepancy due to finite box and discretization:     -0.182638 (  -0.01512%)
MG Correction to account for finite box:                  0.006413
MG Remaining discrepancy, due to discretization:         -0.176225 (  -0.01458%)
     Trial step:       0.265748681190
             Q1:  -11679.356025167857
 Quadratic coef:       0.000000001006
 Linear coef   :      -0.000000000890
           Qmin:  -11679.356025168170
Quadratic minimum step length (  0.117504553132) accepted
    Initial Ne1:    7192.00000000
      Final Ne1:    7192.00000000

=================== Penalty functional idempotency correction ==================
 RMS occupancy error at iteration   1:  0.000000 (step -0.5000 Ne1=   7192.0000)
            Final RMS occupancy error   :  0.000000 (Ne1=   7192.0000)
               Final occupancy bounds   : [  0.0000,  1.0000]
================================================================================

    8        -1.167935602517E+04     7.1764E-09     6.4908E-09    -4.6566E-10

Reusing previously generated solute cavity.
MG BCs: +ve charge blocks (gridpoints):     29417 (   19619675).
MG BCs: -ve charge blocks (gridpoints):      8505 (    1064268).
MG BCs:     Elided blocks (gridpoints):    171223 (  175612522).
MG BCs: Computational effort saved:  99.9807%.
MG BCs: Charge after coarse-graining:           -9.0009608.
MG DL_MG: Calling solver with defect correction order = 8
MG DL_MG: Solver finished
MG Hartree energy from (\int phi*rho dr):              1208.300782
MG Hartree energy from (\int eps (grad phi)^2 dr):     1208.118144
MG Discrepancy due to finite box and discretization:     -0.182638 (  -0.01512%)
MG Correction to account for finite box:                  0.006413
MG Remaining discrepancy, due to discretization:         -0.176225 (  -0.01458%)
      ideal mu1:      -0.480784926814
             Q0:  -11679.356025167974
             G0:      -0.000000003138
   RMS gradient:       0.000000005874

Reusing previously generated solute cavity.
MG BCs: +ve charge blocks (gridpoints):     29417 (   19619675).
MG BCs: -ve charge blocks (gridpoints):      8505 (    1064268).
MG BCs:     Elided blocks (gridpoints):    171223 (  175612522).
MG BCs: Computational effort saved:  99.9807%.
MG BCs: Charge after coarse-graining:           -9.0009608.
MG DL_MG: Calling solver with defect correction order = 8
MG DL_MG: Solver finished
MG Hartree energy from (\int phi*rho dr):              1208.300783
MG Hartree energy from (\int eps (grad phi)^2 dr):     1208.118145
MG Discrepancy due to finite box and discretization:     -0.182638 (  -0.01512%)
MG Correction to account for finite box:                  0.006413
MG Remaining discrepancy, due to discretization:         -0.176225 (  -0.01458%)
     Trial step:       0.176710724147
             Q1:  -11679.356025167857
 Quadratic coef:       0.000000000671
 Linear coef   :      -0.000000000555
           Qmin:  -11679.356025168088
Quadratic minimum step length (  0.073004062531) accepted
    Initial Ne1:    7192.00000000
      Final Ne1:    7192.00000000

=================== Penalty functional idempotency correction ==================
 RMS occupancy error at iteration   1:  0.000000 (step -0.5000 Ne1=   7192.0000)
            Final RMS occupancy error   :  0.000000 (Ne1=   7192.0000)
               Final occupancy bounds   : [  0.0000,  1.0000]
================================================================================

    9        -1.167935602517E+04     5.8741E-09     5.3130E-09     0.0000E+00

Reusing previously generated solute cavity.
MG BCs: +ve charge blocks (gridpoints):     29417 (   19619675).
MG BCs: -ve charge blocks (gridpoints):      8505 (    1064268).
MG BCs:     Elided blocks (gridpoints):    171223 (  175612522).
MG BCs: Computational effort saved:  99.9807%.
MG BCs: Charge after coarse-graining:           -9.0009608.
MG DL_MG: Calling solver with defect correction order = 8
MG DL_MG: Solver finished
MG Hartree energy from (\int phi*rho dr):              1208.300783
MG Hartree energy from (\int eps (grad phi)^2 dr):     1208.118145
MG Discrepancy due to finite box and discretization:     -0.182638 (  -0.01512%)
MG Correction to account for finite box:                  0.006413
MG Remaining discrepancy, due to discretization:         -0.176225 (  -0.01458%)
      ideal mu1:      -0.480784926057
   10        -1.167935602517E+04     5.1241E-09     4.6346E-09     0.0000E+00
Finished density kernel iterations (  10)

Writing density kernel to file "host_33541.dkn" ... done


>>> Density kernel optimised for the current NGWF basis:
     ~~~~~~~~~~~~~~~~~~~~~~~~~~~~~~~~~~~~~~~~~~~~~~~~~~~~~~~~~~~
     Total energy                =  -1.16793560251680E+04  Eh
     Estimated bandgap           =   9.5459E-02  Eh
     RMS occupancy error         =   6.8808E-16
     [H,K] commutator            =   4.6346E-09
     Occupancy bounds            = [  0.000:  1.000]
     ~~~~~~~~~~~~~~~~~~~~~~~~~~~~~~~~~~~~~~~~~~~~~~~~~~~~~~~~~~~




################################################################################
########################### NGWF CG iteration  005 #############################
################################################################################
****** Reciprocal space K.E. preconditioning with k_zero =  3.5000 a0^-1 *******

>>> Checking for convergence of NGWFs: 
           ........................................................
           |         *** NGWF optimisation converged ***          |
           | RMS NGWF gradient =    0.00000093113343              |
           | Criteria satisfied:                                  |
           | -> RMS NGWF gradient lower than set threshold.       |
           ========================================================

Reusing previously generated solute cavity.
MG BCs: +ve charge blocks (gridpoints):     29417 (   19619675).
MG BCs: -ve charge blocks (gridpoints):      8505 (    1064268).
MG BCs:     Elided blocks (gridpoints):    171223 (  175612522).
MG BCs: Computational effort saved:  99.9807%.
MG BCs: Charge after coarse-graining:           -9.0009608.
MG DL_MG: Calling solver with defect correction order = 8
MG DL_MG: Solver finished
MG Hartree energy from (\int phi*rho dr):              1208.300783
MG Hartree energy from (\int eps (grad phi)^2 dr):     1208.118145
MG Discrepancy due to finite box and discretization:     -0.182638 (  -0.01512%)
MG Correction to account for finite box:                  0.006413
MG Remaining discrepancy, due to discretization:         -0.176225 (  -0.01458%)

================================================================================
           ---------------- ENERGY COMPONENTS (Eh) ----------------
           | Kinetic                    :     8532.53239704672524 |
           | Pseudo. (local,OBC,corr'd) :    -5053.87526437243923 |
           | Pseudopotential (non-local):     1402.93170139204722 |
           | Hartree (molecular)        :     1208.30078250078873 |
           | Exchange-correlation       :    -3357.71512518702821 |
           | Ion-ion (open BC)          :   822390.10334680706728 |
           | Dispersion Correction      :       -3.18184119147316 |
           | Smeared ion non-self corr. :  -822341.96297579177190 |
           | Smeared ion self corr.     :   -14457.16956389741972 |
           | Solvent cavitation energy  :        2.42112434609437 |
           | Solute-solvent dis-rep en. :       -1.74060682051590 |
           | Total                      :   -11679.35602516802828 |
           --------------------------------------------------------
           ------ LOCAL ENERGY COMPONENTS FROM MATRIX TRACES ------
           | Pseudopotential (local)    :    -5053.87526437245469 |
           | Hartree                    :    -1988.98500399410568 |
           --------------------------------------------------------
           Integrated density           :     7191.99999999802276
           Integrated density tr(KS)    :     7191.99999999999909
================================================================================


                        <<<<< CALCULATION SUMMARY >>>>>                         
|ITER|    RMS GRADIENT   |     TOTAL ENERGY    |   step   |     Epredicted              
   0     0.00004095139331 -11679.28664423048031   0.648781 -11679.34669706550267        
   1     0.00000970119206 -11679.35548294405453   0.086384 -11679.35593166942817        
   2     0.00000442695134 -11679.35600335849449   0.016889 -11679.35602162766736        
   3     0.00000204267882 -11679.35602417646442   0.003653 -11679.35602501781432        
   4     0.00000093113343 -11679.35602516797371  <-- CG                                 

=================== Finished the calculation in solvent ========================
= Adjusting the following parameters: 
= read_denskern: F
= read_tightbox_ngwfs: F
= maxit_pen: 0 (restored to user-specified value)
= restart read filename prefix: ""
= restart write filename prefix: ""
================================================================================

================================================================================
IS: Calculation in solvent completed (NGWFs converged).      

Individual components of total energy in solvent:     hartree           kcal/mol
- Usual non-electrostatic DFT terms:    -12888.33732519433943    -8087553.601020
- Electrostatic fixed charge energy:      1208.30078250078873      758220.172087
- Apolar cavitation energy:                  2.42112434609437        1519.278432
- Apolar dispersion-repulsion energy:       -1.74060682051590       -1092.247247
 -------------------------------------------------------------------------------
- Total energy in solvent:              -11679.35602516797371    -7328906.397747

Components of total energy in solvent:                hartree           kcal/mol
- Usual non-electrostatic DFT terms:    -12888.33732519433943    -8087553.601020
- Electrostatic energy:                   1208.30078250078873      758220.172087
- Apolar energy terms:                       0.68051752557848         427.031185
 -------------------------------------------------------------------------------
- Total energy in solvent:              -11679.35602516797371    -7328906.397747

Calculation of free energy of solvation:              hartree           kcal/mol
- Total energy in solvent:         (+)  -11679.35602516797371    -7328906.397747
- Total energy in vacuum:          (-)  -11675.36777630401775    -7326403.733855
 -------------------------------------------------------------------------------
- Total free energy of solvation:           -3.98824886395596       -2502.663893

Components of polar term in f.e. of solvation:        hartree           kcal/mol
- Electrostatic:                            -4.80252718890688       -3013.631245
- Change in nonelectrostatic DFT terms:      0.13376079937370          83.936167
 -------------------------------------------------------------------------------
- Polar term in f.e. of solvation:          -4.66876638953318       -2929.695078

Components of free energy of solvation:               hartree           kcal/mol
- Polar term in f.e. of solvation: (+)      -4.66876638953318       -2929.695078
- Apolar (cavitation, dis., rep.): (+)       0.68051752557848         427.031185
 -------------------------------------------------------------------------------
- Total free energy of solvation:           -3.98824886395470       -2502.663893
================================================================================


------------------------------ TIMING INFORMATION ------------------------------
AVERAGE TIME:   26917.321s on     40 node(s)                                    
TOTAL TIME:     26917.322s on     40 node(s)                                    
================= AVERAGE TIMINGS FROM ALL NODES (CUMULATIVE) ==================
|| TAG                                    #calls    cpu time   %total  Gflops ||
|| work_imbalance                       :     1        0.00s   0.000%  ------ ||
|| parallel_prepare_fd_halos_request    :  1947        0.02s   0.000%  ------ ||
|| sparse_set_to_garbage                :   176        0.04s   0.000%  ------ ||
|| parallel_prepare_fd_halos_satisfy    :  1947        0.06s   0.000%  ------ ||
|| ngwfs_initialise_from_radial         :     1        0.17s   0.001%  ------ ||
|| basis_extract_function_from_box      :  5366        0.19s   0.001%  ------ ||
|| parallel_prepare_fd_halos_alloc      :  1947        0.21s   0.001%  ------ ||
|| restart_ngwfs_tightbox_input         :     1        0.90s   0.003%  ------ ||
|| pseudopotentials_nonlocal_mat        :    30        1.36s   0.005%  ------ ||
|| parallel_prepare_fd_halos_comms_imbal:  1947        2.87s   0.011%  ------ ||
|| openbc_locps_radial                  :     1        4.62s   0.017%  ------ ||
|| restart_kernel_read                  :     1        5.25s   0.020%  ------ ||
|| density_init_guess_real              :     1        5.25s   0.020%  ------ ||
|| restart_kernel_write                 :    17       12.27s   0.046%  ------ ||
|| parallel_prepare_fd_halos_clear      :  1947       14.18s   0.053%  ------ ||
|| sparse_init                          :     2       22.36s   0.083%  ------ ||
|| projectors_func_ovlp_box             :    30       23.12s   0.086%  ------ ||
|| parallel_prepare_fd_halos_comms_wait :  1947       24.23s   0.090%  ------ ||
|| function_ops_brappd_ketppd           :    30       25.19s   0.094%  ------ ||
|| projectors_init_fftbox_recip         :   206       27.69s   0.103%  ------ ||
|| parallel_prepare_fd_halos            :  1947       41.58s   0.154%  ------ ||
|| palser_mano_kernel_optimise          :     1       49.90s   0.185%  ------ ||
|| pseudo_make_structure_factor         :     2       55.04s   0.204%  ------ ||
|| fourier_apply_box_pair               :  7652       55.41s   0.206% 567.764 ||
|| basis_copy_function_to_box           : 87167       58.52s   0.217%  ------ ||
|| ngwf_gradient_coeffs                 :    16       64.02s   0.238%  ------ ||
|| restart_ngwfs_tightbox_output        :    14       77.44s   0.288%  ------ ||
|| sparse_embed_hotelling_invert_embed  :    30       93.69s   0.348%  ------ ||
|| finite_difference_derivative         :  1947      105.00s   0.390%  ------ ||
|| integrals_kinetic                    :    30      156.82s   0.583%  ------ ||
|| openbc_locps_on_grid                 :     2      186.94s   0.695%  ------ ||
|| fourier_apply_cell_backward          :  1299      205.82s   0.765%  87.176 ||
|| projectors_gradient_batch            :   176      214.67s   0.798%  ------ ||
|| fourier_apply_cell_forward           :  1297      218.36s   0.811%  82.044 ||
|| basis_dot_function_with_box          : 12.96M     238.41s   0.886%  ------ ||
|| sparse_trace                         :  5418      256.55s   0.953%  ------ ||
|| kernel_purify                        :   495      349.79s   1.300%  ------ ||
|| hamiltonian_energy_components        :     4      426.05s   1.583%  ------ ||
|| xc_energy_potential                  :   324      499.79s   1.857%  ------ ||
|| basis_add_function_to_box            : 27.02M     516.77s   1.920%  ------ ||
|| lnv_gradient_norm                    :   160      572.01s   2.125%  ------ ||
|| kernel_fix                           :   160      662.78s   2.462%  ------ ||
|| ngwf_gradient_build_batch            :   176      802.63s   2.982%  ------ ||
|| integrals_locpot_mat_els_batch       :  1859      866.10s   3.218%  ------ ||
|| cell_grid_deposit_box_real           : 54660      900.01s   3.344%  ------ ||
|| cell_grid_extract_box_real           : 51060      998.20s   3.708%  ------ ||
|| ngwf_gradient_batch                  :   176     1099.18s   4.084%  ------ ||
|| density_batch_row_sums               :  3553     1182.26s   4.392%  ------ ||
|| ngwf_gradient_lnv                    :    16     1259.83s   4.680%  ------ ||
|| density_fftbox_deposit_to_cell       : 52649     1576.96s   5.859%  ------ ||
|| sparse_product                       :  6734     2216.59s   8.235%  ------ ||
|| multigrid_prepare_bound_cond         :   324     2449.29s   9.099%  ------ ||
|| potential_apply_to_ngwf_batch        :  1859     3403.22s  12.643%  ------ ||
|| density_fftbox_interpolate_multiply  : 52649     3871.78s  14.384%  ------ ||
|| fourier_apply_box                    : 181.9k    3901.62s  14.495% 928.952 ||
|| integrals_locpot_dbl_grid            :   169     4287.87s  15.930%  ------ ||
|| density_batch_interp_deposit         :  3553     6128.86s  22.769%  ------ ||
|| dl_mg_solver_calls                   :   324     6645.32s  24.688%  ------ ||
|| density_on_dbl_grid                  :   323     7742.90s  28.765%  ------ ||
|| multigrid_calculate_hartree          :   324     9240.94s  34.331%  ------ ||
|| hamiltonian_lhxc_calculate           :   319    17492.28s  64.985%  ------ ||
|| lnv_denskernel_optimise_cg           :    16    23150.15s  86.005%  ------ ||
|| ngwf_cg_optimise                     :     2    26124.01s  97.053%  ------ ||
|| total_time                           :     1    26917.32s 100.000%  ------ ||
================================================================================
Overhead of generating timer report: 
- 0 ms averaging over threads,
- 5 ms ensuring consistency across MPI ranks,
- 2 ms printing in order.

Job completed: 04-06-2020 06:07 (+0100)

