 +---------------------------------------------------------------+
 |                                                               |
 |        ####### #     # ####### ####### ####### ######         |
 |        #     # ##    # #          #    #       #     #        |
 |        #     # # #   # #          #    #       #     #        |
 |        #     # #  #  # #####      #    #####   ######         |
 |        #     # #   # # #          #    #       #              |
 |        #     # #    ## #          #    #       #              |
 |        ####### #     # #######    #    ####### #              |
 |                                                               |
 |        Linear-Scaling Ab Initio Total Energy Program          |
 |                                                               |
 |          Release for academic collaborators of ODG            |
 |                                             Version 5.3.2.6.  |
 |                                                               |
 +---------------------------------------------------------------+
 |                                                               |
 |  Authors:                                                     |
 |  Jacek Dziedzic, Peter D. Haynes, Nicholas D. M. Hine,        |
 |  Arash. A. Mostofi, Mike C. Payne and Chris-Kriton Skylaris   |
 |                                                               |
 |  Contributors:                                                |
 |  J. Aarons, L. Andrinopoulos, P. W. Avraam, R. A. Bell,       |
 |  A. Bhandari, G. A. Bramley, R. J. Charlton, S. J. Clark,     |
 |  R. J. Clements, G. C. Constantinescu, F. Corsetti,           |
 |  N. Corsini, O. Dieguez, S. M. M. Dubois, K. K. B. Duff,      |
 |  J. M. Escartin, A. Greco, H. Helal, Q. O. Hill, L. P. Lee,   |
 |  J.-H. Li, E. B. Linscott, G. Moynihan, D. D. O`Regan,        |
 |  O. K. Okan, M. J. S. Phipps, C. J. Pickard,                  |
 |  J. C. A. Prentice, M. I. J. Probert, L. E. Ratcliff,         |
 |  M. Robinson, A. Ruiz Serrano, J. S. Spencer, E. W. Tait,     |
 |  G. Teobaldi, D. Turban, V. Vitale, K. A. Wilkinson,          |
 |  C. Weber, J. C. Womack, N. Yeung and T. J. Zuehlsdorff       |
 |                                                               |
 |                                   Copyright (c) 2004-2019     |
 |                                                               |
 |  Please cite:                                                 |
 |  "Introducing ONETEP: Linear-scaling density functional       |
 |   simulations on parallel computers".                         |
 |   C.-K. Skylaris, P. D. Haynes, A. A. Mostofi, M. C. Payne.   |
 |   J. Chem. Phys. 122 084119 (2005).                           |
 |                                                               |
 |          in all publications arising from your use of ONETEP. |
 |                                                               |
 +---------------------------------------------------------------+
 |                                                               |
 |   ONETEP is based on developments described in the following  |
 |   publications:                                               |
 |                                                               |
 |  "Nonorthogonal generalized Wannier function pseudopotential  |
 |   plane-wave method".                                         |
 |   C.-K. Skylaris, A. A. Mostofi, P. D. Haynes, O. Dieguez,    |
 |   M. C. Payne.                                                |
 |   Phys. Rev. B 66 035119 (2002).                              |
 |                                                               |
 |  "Preconditioned iterative minimization for linear-scaling    |
 |   electronic structure calculations".                         |
 |   A. A. Mostofi, P. D. Haynes, C.-K. Skylaris, M. C. Payne.   |
 |   J. Chem. Phys. 119(17), pp.8842-8848 (2003).                |
 |                                                               |
 |  "Total-energy calculations on a real space grid with         |
 |   localized functions and a plane-wave basis".                |
 |   A. A. Mostofi, C.-K. Skylaris, P. D. Haynes, M. C. Payne.   |
 |   Comput. Phys. Commun. 147, pp.788-802 (2002).               |
 |                                                               |
 |  "Accurate kinetic energy evaluation in electronic structure  |
 |   calculations with localized functions on real space grids"  |
 |   C.-K. Skylaris, A. A. Mostofi, P. D. Haynes, C. J. Pickard, |
 |   M. C. Payne.                                                |
 |   Comput. Phys. Commun. 140, pp.315-322 (2001).               |
 |                                                               |
 |  "Accurate ionic forces and geometry optimization in linear-  |
 |   scaling density-functional theory with local orbitals"      |
 |   N. D. M. Hine, M. Robinson, P. D. Haynes, C.-K. Skylaris,   |
 |   M. C. Payne, and A. A. Mostofi.                             |
 |   Phys. Rev. B 83 195102 (2011).                              |
 |                                                               |
 +---------------------------------------------------------------+

Job started: 24-01-2020 22:07 (-0000)
 
Reading parameters from file "host_36201.dat" ...... done

If your calculation crashes here, before "Checking processes and threads..."
is displayed, then your stack size is insufficient.
If so, use "ulimit -s unlimited" at runtime.
You can disable this check with "check_stack_size F".

Checking processes and threads...
   Determining the default number of threads...
      No default threads set at compilation time: defaulting to 1.
      OpenMP library call suggests 4 threads.
      Hybrid MPI-OpenMP compilation detected.
      Number of MPI processes > 1.
      OMP_NUM_THREADS environment variable present and
      its value matches the one obtained from the OpenMP library call.
      Using this value as default.
      Default threads: 4
      Default applies to threads_max and threads_num_fftboxes.
      Settings in the input file override this default.
   ... done

   Running with 30 MPI processes.
   There are 4 MPI processes running on the same node as the root process.
   Each MPI process is using: 
               1 threads for simulation cell FFTs.
               1 threads for parallel FFT box operations.
               4 threads for loops over batched FFT box operations.
               4 threads in other parallel regions.
... done

Basic input checks...... done

Reading geometry and species blocks from file "host_36201.dat" ...
  <species_atomic_set> block not found: NGWF initialisation set to SOLVE
IS: Dielectric excluded regions:
    - NONE.
    
  Number of PPD points along a3 set to 1.  This is 
  the default value, it may have been provided also in the input file.
... done
 Writing xyz coordinates to file "host_36201.xyz" ... done


--------------------------------------------------------------------------------
---------------------------------- INPUT FILE ----------------------------------
--------------------------------------------------------------------------------

cutoff_energy       : 800 eV                                                    
xc_functional PBE                                                               
task SINGLEPOINT                                                                
write_xyz true                                                                  
output_detail VERBOSE                                                           
ngwf_threshold_orig : 0.000002                                                  
kernel_cutoff       : 1000                                                      
k_zero              : 3.5                                                       
elec_cg_max 0                                                                   
occ_mix 1.0                                                                     
dispersion 1                                                                    
maxit_ngwf_cg 40                                                                
minit_lnv 10                                                                    
maxit_lnv 10                                                                    
write_denskern T                                                                
write_tightbox_ngwfs T                                                          
charge 9                                                                        
is_implicit_solvent T                                                           
is_auto_solvation T                                                             
is_include_apolar T                                                             
is_smeared_ion_rep T                                                            
is_solvent_surf_tension 4.7624E-5 Ha/bohr**2                                    
is_apolar_scaling_factor 0.281075                                               
is_solvation_beta 1.3                                                           
is_density_threshold 0.00035                                                    
is_bulk_permittivity 78.54                                                      
is_dielectric_model fix_initial                                                 
is_smeared_ion_width 0.8                                                        
mg_defco_fd_order 8                                                             
is_bc_coarseness 10                                                             
is_bc_surface_coarseness 1                                                      
fine_grid_scale 2.0                                                             
%block species                                                                  
N   N   7 4 8.0                                                                 
H   H   1 1 8.0                                                                 
C   C   6 4 8.0                                                                 
S   S  16 9 8.0                                                                 
O   O   8 4 8.0                                                                 
%endblock species                                                               
%block species_pot                                                              
N   N_00.recpot                                                                 
H   H_04.recpot                                                                 
C   C_01.recpot                                                                 
S   S_00.recpot                                                                 
O   O_02.recpot                                                                 
%endblock species_pot                                                           
%block lattice_cart                                                             
137.614   0.000   0.000                                                         
0.000 142.646   0.000                                                           
0.000   0.000   160.855                                                         
%endblock lattice_cart                                                          
%block positions_abs                                                            
     Hash =   000002975749278244812657
%endblock positions_abs                                                         

--------------------------------------------------------------------------------
-------------------------------- END INPUT FILE --------------------------------
--------------------------------------------------------------------------------


 
 ESDF WARNING(1): "kernelcutoff" (esdf_physical) has no units. Assume "bohr".
 ESDF WARNING(2): "kzero" (esdf_physical) has no units. Assume "1/bohr".
 ESDF WARNING(3
 ): "issmearedionwidth" (esdf_physical) has no units. Assume "bohr".
<<<<<<<<<<<<<<<<<<<<<<<<<<<<<<<<< Full system >>>>>>>>>>>>>>>>>>>>>>>>>>>>>>>>>>
<<<<<<<<<<<<<<<<<<<<<<<<< Pseudopotential information >>>>>>>>>>>>>>>>>>>>>>>>>>
File: N_00.recpot [ 2001 points up to Gmax=  52.9 (1/bohr)]
  Atomic number:  7;  ionic charge:  5.000000
    Shell 1: l = 0; rc = 1.48 bohr
File: H_04.recpot [ 2001 points up to Gmax=  52.9 (1/bohr)]
  Atomic number:  1;  ionic charge:  1.000000
    Local potential
File: C_01.recpot [ 2001 points up to Gmax=  52.9 (1/bohr)]
  Atomic number:  6;  ionic charge:  4.000000
    Shell 1: l = 0; rc = 1.48 bohr
File: S_00.recpot [ 2001 points up to Gmax=  52.9 (1/bohr)]
  Atomic number: 16;  ionic charge:  6.000000
    Shell 1: l = 0; rc = 1.90 bohr
    Shell 2: l = 2; rc = 1.84 bohr
File: O_02.recpot [ 2001 points up to Gmax=  52.9 (1/bohr)]
  Atomic number:  8;  ionic charge:  6.000000
    Shell 1: l = 0; rc = 1.31 bohr
<<<<<<<<<<<<<<<<<<<<<<<<<<<<<<<<<<<<<<<<>>>>>>>>>>>>>>>>>>>>>>>>>>>>>>>>>>>>>>>>

-------------------------- Atom counting information ---------------------------
Symbol    Natoms    Nngwfs    Nprojs
  N        236       944       236
  H       1311      1311         0
  C        810      3240       810
  S          6        54        36
  O        239       956       239
.......   ......    ......    ......
Totals:   2602      6505      1321
--------------------------------------------------------------------------------

=============================== PSINC grid sizes ===============================
                      Simulation cell:  273 x 286 x 320
                              FFT-box:   99 x 105 x  99
                                  PPD:    7 x  11 x   1
Grid space d1=  0.504080586081a0 (KE cutoff=  29.89538Eh = 813.49465eV)
Grid space d2=  0.498762237762a0 (KE cutoff=  30.53633Eh = 830.93588eV)
Grid space d3=  0.502671875000a0 (KE cutoff=  30.06317Eh = 818.06059eV)
================================================================================

********************* Fourier parallelisation information **********************
       Coarse grid (whole simulation cell) dimensions:    273   286   320
          Real-space ('12') slabs/node (min max mean):     10    11    10
         Recip-space ('23') slabs/node (min max mean):      4     5     4
********************************************************************************

********************* Fourier parallelisation information **********************
       Double grid (whole simulation cell) dimensions:    546   572   640
          Real-space ('12') slabs/node (min max mean):     21    22    21
         Recip-space ('23') slabs/node (min max mean):      9    10     9
********************************************************************************
ONETEP fine grid is 546 x 572 x 640 gridpoints, 137.6140 x 142.6460 x 160.8550 bohr.
FD multigrid is     545 x 569 x 633 gridpoints, 137.3620 x 141.8979 x 159.0956 bohr.


Calculating local pseudopotential in open BC on a radial grid ...
Discrepancy between calculated realspace psloc and -Z/x on [5a0,255.264a0]:
max |rel. diff| # avg |rel. diff| #  avg rel. diff #  f # pseudopotential file
 0.000296759711    0.000009439468   0.000000085927   54  'N_00.recpot'
 0.000490027943    0.000021572324  -0.000000031900   54  'H_04.recpot'
 0.000320795249    0.000014598087   0.000000111901   54  'C_01.recpot'
 0.000388730920    0.000016096375   0.000000514750   54  'S_00.recpot'
 0.000828383344    0.000035421288   0.000000087443   54  'O_02.recpot'
... done

Atom SCF Calculation for N  : Z (AE atom) =   7 : Z (PS atom) =   5
Config String:
Orbitals (num,occ):  2     2.00 3.00
Orbitals   (num,l):  2        0    1
Real-space Grid (nr,dr,rmax): 1203    0.0066555740    8.0000000000
Spherical Bessel Basis (nsws,lmax,cutoff):   47    1  176.3951722778
Confining potential (l,width,scale):  0    3.0000000000  100.0000000000
Confining potential (l,width,scale):  1    3.0000000000  100.0000000000
  1         -4.7312375307   -3.4155304497    7.0523828109   -1.9351020946
  2         -9.7309464766   -2.0532547791    8.2966052865   -2.2494486027
  3         -9.6627394379   -2.1124926340    8.2327997121   -2.2369778124
  4         -9.6814993499   -2.1215521045    8.2229805960   -2.2365178421
  5         -9.6843326483   -2.1250939529    8.2191374534   -2.2362718126
  6         -9.6859628709   -2.1267894855    8.2172963573   -2.2362066344
  7         -9.6867347035   -2.1276425665    8.2163697352   -2.2361903369
  8         -9.6870802100   -2.1280764625    8.2158983890   -2.2361891460
  9         -9.6872290423   -2.1282977424    8.2156580222   -2.2361920435
 10         -9.6872901988   -2.1284107021    8.2155353368   -2.2361953393
 11         -9.6873135296   -2.1284684031    8.2154726809   -2.2361979819
 12         -9.6873212476   -2.1284978948    8.2154406648   -2.2361998431
 13         -9.6873229586   -2.1285129774    8.2154242957   -2.2362010676
 14         -9.6873226456   -2.1285206957    8.2154159216   -2.2362018403
 15         -9.6873218534   -2.1285246479    8.2154116349   -2.2362023142
 16         -9.6873212599   -2.1285262679    8.2154098784   -2.2362025420
 17         -9.6873207834   -2.1285272564    8.2154088068   -2.2362026955
 18         -9.6873204210   -2.1285278597    8.2154081529   -2.2362027982
 19         -9.6873201550   -2.1285282280    8.2154077538   -2.2362028667
 20         -9.6873199645   -2.1285284529    8.2154075102   -2.2362029121
 21         -9.6873198305   -2.1285285903    8.2154073614   -2.2362029421
 22         -9.6873197377   -2.1285286742    8.2154072705   -2.2362029618
Atom SCF converged after  22 iterations to a total energy of     -9.68731974

Atom SCF Calculation for H  : Z (AE atom) =   1 : Z (PS atom) =   1
Config String:
Orbitals (num,occ):  1     1.00
Orbitals   (num,l):  1        0
Real-space Grid (nr,dr,rmax): 1203    0.0066555740    8.0000000000
Spherical Bessel Basis (nsws,lmax,cutoff):   47    0  176.3951722778
Confining potential (l,width,scale):  0    3.0000000000  100.0000000000
  1         -0.3194257691   -0.2393854593    0.2820953124   -0.2424203209
  2         -0.3951823392   -0.2377116493    0.2886404059   -0.2475147891
  3         -0.4317044583   -0.2352244387    0.2921333887   -0.2514046172
  4         -0.4470703708   -0.2341892222    0.2934391879   -0.2531009782
  5         -0.4532132900   -0.2338556667    0.2938388426   -0.2537313520
  6         -0.4556579251   -0.2337612552    0.2939448584   -0.2539550462
  7         -0.4566418315   -0.2337377355    0.2939680120   -0.2540342273
  8         -0.4570437922   -0.2337331116    0.2939708287   -0.2540627372
  9         -0.4572102946   -0.2337328328    0.2939698291   -0.2540732650
 10         -0.4572800424   -0.2337332404    0.2939687193   -0.2540772588
 11         -0.4573095100   -0.2337335791    0.2939680317   -0.2540788122
 12         -0.4573220379   -0.2337337762    0.2939676699   -0.2540794294
 13         -0.4573273880   -0.2337338775    0.2939674931   -0.2540796787
 14         -0.4573296803   -0.2337339266    0.2939674099   -0.2540797808
 15         -0.4573306647   -0.2337339495    0.2939673718   -0.2540798230
 16         -0.4573310882   -0.2337339601    0.2939673545   -0.2540798406
 17         -0.4573312706   -0.2337339649    0.2939673467   -0.2540798479
 18         -0.4573313493   -0.2337339670    0.2939673433   -0.2540798510
Atom SCF converged after  18 iterations to a total energy of     -0.45733135

Atom SCF Calculation for C  : Z (AE atom) =   6 : Z (PS atom) =   4
Config String:
Orbitals (num,occ):  2     2.00 2.00
Orbitals   (num,l):  2        0    1
Real-space Grid (nr,dr,rmax): 1203    0.0066555740    8.0000000000
Spherical Bessel Basis (nsws,lmax,cutoff):   47    1  176.3951722778
Confining potential (l,width,scale):  0    3.0000000000  100.0000000000
Confining potential (l,width,scale):  1    3.0000000000  100.0000000000
  1         -5.2976922011   -1.3069684169    4.5135249990   -1.4493313817
  2         -5.3721716256   -1.3429755895    4.4750154450   -1.4361613026
  3         -5.3809959565   -1.3617365618    4.4541655428   -1.4305930207
  4         -5.3918938866   -1.3667928461    4.4484735100   -1.4294652294
  5         -5.3956096428   -1.3688539142    4.4461376126   -1.4290734646
  6         -5.3968271862   -1.3696852393    4.4451910874   -1.4289366866
  7         -5.3972028401   -1.3700178062    4.4448112275   -1.4288900460
  8         -5.3973067903   -1.3701500158    4.4446598370   -1.4288749220
  9         -5.3973286940   -1.3702023868    4.4445997329   -1.4288704293
 10         -5.3973289850   -1.3702230869    4.4445759233   -1.4288693188
 11         -5.3973254264   -1.3702312560    4.4445665049   -1.4288691775
 12         -5.3973224003   -1.3702344755    4.4445627836   -1.4288692549
 13         -5.3973208708   -1.3702354890    4.4445616088   -1.4288693270
 14         -5.3973198783   -1.3702360102    4.4445610034   -1.4288693814
 15         -5.3973192535   -1.3702362780    4.4445606917   -1.4288694190
 16         -5.3973188684   -1.3702364155    4.4445605313   -1.4288694437
 17         -5.3973186349   -1.3702364860    4.4445604489   -1.4288694595
 18         -5.3973184951   -1.3702365221    4.4445604065   -1.4288694693
 19         -5.3973184122   -1.3702365405    4.4445603848   -1.4288694753
Atom SCF converged after  19 iterations to a total energy of     -5.39731841

Atom SCF Calculation for S  : Z (AE atom) =  16 : Z (PS atom) =   6
Config String:
Orbitals (num,occ):  3     2.00 4.00 0.00
Orbitals   (num,l):  3        0    1    2
Real-space Grid (nr,dr,rmax): 1203    0.0066555740    8.0000000000
Spherical Bessel Basis (nsws,lmax,cutoff):   47    2  176.3951722778
Confining potential (l,width,scale):  0    3.0000000000  100.0000000000
Confining potential (l,width,scale):  1    3.0000000000  100.0000000000
Confining potential (l,width,scale):  2    3.0000000000  100.0000000000
  1        -12.4735062396   -1.0328741412   10.1554312477   -2.4512393157
  2         -9.9458301913   -2.4607392455    8.3041325857   -2.0306994528
  3        -10.1450417646   -2.2931184565    8.4831893826   -2.0812538287
  4        -10.1528335592   -2.2733105793    8.5050388867   -2.0896035179
  5        -10.1571940363   -2.2633716629    8.5160794258   -2.0939370707
  6        -10.1594380571   -2.2584938667    8.5215163935   -2.0961289008
  7        -10.1605856507   -2.2561081821    8.5241804044   -2.0972291378
  8        -10.1611799191   -2.2549395235    8.5254868240   -2.0977806248
  9        -10.1614918752   -2.2543658586    8.5261285885   -2.0980571586
 10        -10.1616572884   -2.2540839121    8.5264441898   -2.0981959233
 11        -10.1617455602   -2.2539453058    8.5265994231   -2.0982656006
 12        -10.1617928447   -2.2538772062    8.5266757320   -2.0983006047
 13        -10.1618182292   -2.2538437891    8.5267131983   -2.0983181961
 14        -10.1618318741   -2.2538274201    8.5267315620   -2.0983270391
 15        -10.1618392144   -2.2538194197    8.5267405433   -2.0983314852
 16        -10.1618431651   -2.2538155200    8.5267449245   -2.0983337210
 17        -10.1618452923   -2.2538136252    8.5267470551   -2.0983348455
 18        -10.1618464380   -2.2538127080    8.5267480875   -2.0983354110
 19        -10.1618470552   -2.2538122659    8.5267485856   -2.0983356955
 20        -10.1618473878   -2.2538120540    8.5267488248   -2.0983358386
 21        -10.1618475670   -2.2538119530    8.5267489389   -2.0983359106
 22        -10.1618476637   -2.2538119053    8.5267489929   -2.0983359468
Atom SCF converged after  22 iterations to a total energy of    -10.16184766

Atom SCF Calculation for O  : Z (AE atom) =   8 : Z (PS atom) =   6
Config String:
Orbitals (num,occ):  2     2.00 4.00
Orbitals   (num,l):  2        0    1
Real-space Grid (nr,dr,rmax): 1203    0.0066555740    8.0000000000
Spherical Bessel Basis (nsws,lmax,cutoff):   47    1  176.3951722778
Confining potential (l,width,scale):  0    3.0000000000  100.0000000000
Confining potential (l,width,scale):  1    3.0000000000  100.0000000000
  1         -1.8735052164   -7.5539365035   10.1554312477   -2.4512393157
  2        -16.0318313751   -3.1285771268   13.6395848164   -3.2358799643
  3        -15.9524020423   -3.0762819706   13.6967272503   -3.2536856837
  4        -15.8521515939   -3.0781493909   13.6951909330   -3.2561700440
  5        -15.8357139793   -3.0748501933   13.6988803334   -3.2580493133
  6        -15.8246052853   -3.0740779781   13.6997881576   -3.2588327446
  7        -15.8189019501   -3.0737449687   13.7001869911   -3.2592378801
  8        -15.8159785510   -3.0736026016   13.7003615168   -3.2594475790
  9        -15.8144776168   -3.0735437994   13.7004360379   -3.2595560735
 10        -15.8137058024   -3.0735207882   13.7004667348   -3.2596122456
 11        -15.8133083127   -3.0735125946   13.7004786868   -3.2596413656
 12        -15.8131032938   -3.0735102195   13.7004828997   -3.2596564858
 13        -15.8129973902   -3.0735099286   13.7004840891   -3.2596643505
 14        -15.8129426040   -3.0735102506   13.7004842061   -3.2596684489
 15        -15.8129142203   -3.0735106556   13.7004840157   -3.2596705887
 16        -15.8128994940   -3.0735109855   13.7004837906   -3.2596717080
 17        -15.8128918425   -3.0735112169   13.7004836103   -3.2596722946
 18        -15.8128878614   -3.0735113674   13.7004834848   -3.2596726026
 19        -15.8128857871   -3.0735114608   13.7004834035   -3.2596727646
 20        -15.8128847048   -3.0735115170   13.7004833533   -3.2596728500
 21        -15.8128841394   -3.0735115501   13.7004833231   -3.2596728951
 22        -15.8128838436   -3.0735115693   13.7004833054   -3.2596729190
 23        -15.8128836887   -3.0735115802   13.7004832951   -3.2596729316
 24        -15.8128836074   -3.0735115864   13.7004832893   -3.2596729383
Atom SCF converged after  24 iterations to a total energy of    -15.81288361

========================== Calculation in vacuum ==============================
= Adjusting the following parameters: 
= is_implicit_solvent: F
= is_include_apolar: F
= write_denskern: T
= write_tightbox_ngwfs: T
= restart read filename prefix: ""
= restart write filename prefix: "vacuum_"
===============================================================================

Determining parallel strategy ...
... using space-filling curve
... NGWF load balancing: max    217;  min    216;  average    217
... Projector load balancing: max     47;  min     43;  average     44
... done
Calculating direct Ion-Ion energy ...
Ion-Ion Energy        :    826333.31286383036058
======================= Empirical dispersion information =======================
Model : Elstner
Dispersion Correction Energy: -0.31984183E+01 Hartree
================================================================================
Basis initialisation ...... NGWF spheres initialised
... Projector spheres initialised
... NGWF tight boxes initialised
... Tight-boxes gathered
... NGWF basis size (local,global):    1297483  38999299
... Nonlocal pseudopotential projector initialisation
... done

========================== Sparse matrix information ===========================
                        Overlap matrix filling:   6.69%
                        Density kernel filling: 100.00%
              NGWF-Proj overlap matrix filling:   1.75%
                    Hamiltonian matrix filling:   7.53%
                  NGWF diagonal matrix filling:   0.05%
                             KS matrix filling: 100.00% 
                           KSKS matrix filling: 100.00% 
================================================================================

Sparse matrix initialisation ... done

Generating smeared ion density ... done
Smeared ion self correction:     -14457.169564
Smeared ion non-self correction: -826285.258322
NGWF initialisation ...... done
============ Calculation of NGWF S^-1 using Hotelling algorithm ================ 
         Iteration  |  Frobenius norm and Maximum abs value    (of I-S*S_n^-1)   
               1       0.78431328E+02     0.98208472E+00
               2       0.76544787E+02     0.96464975E+00
               3       0.73501034E+02     0.93112920E+00
               4       0.69194457E+02     0.86894643E+00
               5       0.63852548E+02     0.76365915E+00
               6       0.57871562E+02     0.70190717E+00
               7       0.51883900E+02     0.66749315E+00
               8       0.46344331E+02     0.64184229E+00
               9       0.40219730E+02     0.60080265E+00
              10       0.31853645E+02     0.53143591E+00
              11       0.21223296E+02     0.43162037E+00
              12       0.10682520E+02     0.29193845E+00
              13       0.34251348E+01     0.13496483E+00
              14       0.51709248E+00     0.31316799E-01
              15       0.23174990E-01     0.24939384E-02
              16       0.11036497E-03     0.20046961E-04
              17       0.49990568E-08     0.13198609E-08
              18       0.88423567E-13     0.48849813E-14
================================================================================
Calculating local pseudopotential in open BC on the fine real space grid ...
... done

MG BCs: +ve charge blocks (gridpoints):     20913 (   16476231).
MG BCs: -ve charge blocks (gridpoints):      8130 (    1095926).
MG BCs:     Elided blocks (gridpoints):    179727 (  178724308).
MG BCs: Computational effort saved:  99.9852%.
MG BCs: Charge after coarse-graining:           -9.0002316.
MG DL_MG: Calling solver with defect correction order = 8
MG DL_MG: Solver finished
MG Hartree energy from (\int phi*rho dr):              1462.837858
MG Hartree energy from (\int eps (grad phi)^2 dr):     1462.226339
MG Discrepancy due to finite box and discretization:     -0.611519 (  -0.04180%)
MG Correction to account for finite box:                  0.464835
MG Remaining discrepancy, due to discretization:         -0.146684 (  -0.01003%)
Up spin density kernel initialisation ... 
======= Optimisation of K by Palser-Manolopoulos canonical purification ======== 
         Iteration  |  Band structure energy |    c_n   
               1       -2576.94549828832896    0.5273365
               2       -2752.27672364234422    0.5173622
               3       -2932.63562048527183    0.5154254
               4       -3084.08773294229331    0.5286478
               5       -3177.88918036750874    0.5643222
               6       -3217.35582953192716    0.6093711
               7       -3230.75765705715094    0.6202912
               8       -3236.57841525944787    0.6158538
               9       -3239.42305878092975    0.6253920
              10       -3240.60078024076029    0.6481147
              11       -3241.04282285242152    0.6663079
              12       -3241.22183425999629    0.6552736
              13       -3241.31095086387450    0.5988632
              14       -3241.36347713027499    0.4974115
              15       -3241.39031541664917    0.3940824
              16       -3241.39141374085102    0.4043484
              17       -3241.39211710466452    0.4375383
              18       -3241.39281085305856    0.4865048
              19       -3241.39344880752651    0.5501324
              20       -3241.39379263490946    0.5638589
              21       -3241.39397826624463    0.5308243
              22       -3241.39412357371566    0.5063951
              23       -3241.39420127667609    0.5002642
              24       -3241.39421787576066    0.5000004
              25       -3241.39421849518203    0.5000038
              26       -3241.39421849600603    0.5000038
Termination criterion satisfied: band energy change below threshold.
Final occupancy bounds: [    0.00000000000000:    1.00000000000000]
Closest occupancy to 0.5:     1.00000000000000
================================================================================
... done

Writing density kernel to file "host_36201.vacuum_dkn" ... done

>>> Optimising kernel for current NGWFs:
   Initial electron number for spin 1:    7192.00000000
     Final electron number for spin 1:    7192.00000000

=================== Penalty functional idempotency correction ==================
 RMS occupancy error at iteration   1:  0.000000 (step -0.5000 Ne1=   7192.0000)
            Final RMS occupancy error   :  0.000000 (Ne1=   7192.0000)
               Final occupancy bounds   : [  0.0000,  1.0000]
================================================================================

................................................................................
<<<<<<<<<<<<<< LNV (Original version) density kernel optimisation >>>>>>>>>>>>>>
~~~~~~~~~~~~~~~~~~~~~~~~~~~~~~~~~~~~~~~~~~~~~~~~~~~~~~~~~~~~~~~~~~~~~~~~~~~~~~~~
   iter  |      energy (Eh)       | rms gradient |  commutator  |   dE (Eh)
MG BCs: +ve charge blocks (gridpoints):     31514 (   17579186).
MG BCs: -ve charge blocks (gridpoints):      8464 (    1129529).
MG BCs:     Elided blocks (gridpoints):    169118 (  177587750).
MG BCs: Computational effort saved:  99.9796%.
MG BCs: Charge after coarse-graining:           -9.0009732.
MG DL_MG: Calling solver with defect correction order = 8
MG DL_MG: Solver finished
MG Hartree energy from (\int phi*rho dr):              1417.792698
MG Hartree energy from (\int eps (grad phi)^2 dr):     1417.134883
MG Discrepancy due to finite box and discretization:     -0.657815 (  -0.04640%)
MG Correction to account for finite box:                  0.469341
MG Remaining discrepancy, due to discretization:         -0.188474 (  -0.01329%)
      ideal mu1:      -0.705932204066
             Q0:  -11508.708342326805
             G0:    -143.643657616975
   RMS gradient:       0.001842450915
MG BCs: +ve charge blocks (gridpoints):     31509 (   17662638).
MG BCs: -ve charge blocks (gridpoints):      8367 (    1109053).
MG BCs:     Elided blocks (gridpoints):    169126 (  177524774).
MG BCs: Computational effort saved:  99.9797%.
MG BCs: Charge after coarse-graining:           -9.0009931.
MG DL_MG: Calling solver with defect correction order = 8
MG DL_MG: Solver finished
MG Hartree energy from (\int phi*rho dr):              1442.619583
MG Hartree energy from (\int eps (grad phi)^2 dr):     1441.979005
MG Discrepancy due to finite box and discretization:     -0.640578 (  -0.04440%)
MG Correction to account for finite box:                  0.467707
MG Remaining discrepancy, due to discretization:         -0.172871 (  -0.01198%)
     Trial step:       0.500000000000
             Q1:  -11519.834588976228
 Quadratic coef:      60.695582159065
 Linear coef   :     -71.821828808487
           Qmin:  -11529.955255651885
Quadratic minimum step length (  0.295828074522) accepted
    Initial Ne1:    7192.00000000
      Final Ne1:    7192.00000000

=================== Penalty functional idempotency correction ==================
 RMS occupancy error at iteration   1:  0.003375 (step -0.4886 Ne1=   7192.0000)
 RMS occupancy error at iteration   2:  0.000025 (step -0.5000 Ne1=   7192.0000)
            Final RMS occupancy error   :  0.000000 (Ne1=   7192.0000)
               Final occupancy bounds   : [  0.0000,  1.0000]
================================================================================

    1        -1.150870834233E+04     1.8425E-03     1.6665E-03
MG BCs: +ve charge blocks (gridpoints):     31514 (   17629777).
MG BCs: -ve charge blocks (gridpoints):      8420 (    1118088).
MG BCs:     Elided blocks (gridpoints):    169120 (  177548600).
MG BCs: Computational effort saved:  99.9797%.
MG BCs: Charge after coarse-graining:           -9.0009850.
MG DL_MG: Calling solver with defect correction order = 8
MG DL_MG: Solver finished
MG Hartree energy from (\int phi*rho dr):              1424.539758
MG Hartree energy from (\int eps (grad phi)^2 dr):     1423.893144
MG Discrepancy due to finite box and discretization:     -0.646614 (  -0.04539%)
MG Correction to account for finite box:                  0.468192
MG Remaining discrepancy, due to discretization:         -0.178422 (  -0.01252%)
      ideal mu1:      -0.747640641338
             Q0:  -11530.356021179119
             G0:     -11.857127480955
   RMS gradient:       0.000525774553
MG BCs: +ve charge blocks (gridpoints):     31528 (   17647632).
MG BCs: -ve charge blocks (gridpoints):      8392 (    1112565).
MG BCs:     Elided blocks (gridpoints):    169106 (  177536268).
MG BCs: Computational effort saved:  99.9797%.
MG BCs: Charge after coarse-graining:           -9.0009889.
MG DL_MG: Calling solver with defect correction order = 8
MG DL_MG: Solver finished
MG Hartree energy from (\int phi*rho dr):              1429.904646
MG Hartree energy from (\int eps (grad phi)^2 dr):     1429.261828
MG Discrepancy due to finite box and discretization:     -0.642818 (  -0.04496%)
MG Correction to account for finite box:                  0.467571
MG Remaining discrepancy, due to discretization:         -0.175247 (  -0.01226%)
     Trial step:       0.384595940256
             Q1:  -11533.142742350581
 Quadratic coef:       1.773481920807
 Linear coef   :      -4.560203092269
           Qmin:  -11533.287465249503
Quadratic minimum step length (  0.494461086818) accepted
    Initial Ne1:    7191.99991837
      Final Ne1:    7192.00000000

=================== Penalty functional idempotency correction ==================
 RMS occupancy error at iteration   1:  0.001787 (step -0.4933 Ne1=   7192.0000)
 RMS occupancy error at iteration   2:  0.000009 (step -0.5001 Ne1=   7192.0000)
            Final RMS occupancy error   :  0.000000 (Ne1=   7192.0000)
               Final occupancy bounds   : [  0.0000,  1.0000]
================================================================================

    2        -1.153035602118E+04     5.2577E-04     4.7555E-04    -2.1648E+01
MG BCs: +ve charge blocks (gridpoints):     31533 (   17652732).
MG BCs: -ve charge blocks (gridpoints):      8380 (    1110993).
MG BCs:     Elided blocks (gridpoints):    169101 (  177532740).
MG BCs: Computational effort saved:  99.9797%.
MG BCs: Charge after coarse-graining:           -9.0009900.
MG DL_MG: Calling solver with defect correction order = 8
MG DL_MG: Solver finished
MG Hartree energy from (\int phi*rho dr):              1431.479339
MG Hartree energy from (\int eps (grad phi)^2 dr):     1430.837518
MG Discrepancy due to finite box and discretization:     -0.641820 (  -0.04484%)
MG Correction to account for finite box:                  0.467416
MG Remaining discrepancy, due to discretization:         -0.174404 (  -0.01218%)
      ideal mu1:      -0.770556082820
             Q0:  -11533.323248673812
             G0:      -1.851738478761
   RMS gradient:       0.000207899444
MG BCs: +ve charge blocks (gridpoints):     31537 (   17652380).
MG BCs: -ve charge blocks (gridpoints):      8388 (    1111901).
MG BCs:     Elided blocks (gridpoints):    169097 (  177532184).
MG BCs: Computational effort saved:  99.9797%.
MG BCs: Charge after coarse-graining:           -9.0009897.
MG DL_MG: Calling solver with defect correction order = 8
MG DL_MG: Solver finished
MG Hartree energy from (\int phi*rho dr):              1429.367666
MG Hartree energy from (\int eps (grad phi)^2 dr):     1428.726200
MG Discrepancy due to finite box and discretization:     -0.641466 (  -0.04488%)
MG Correction to account for finite box:                  0.467221
MG Remaining discrepancy, due to discretization:         -0.174246 (  -0.01219%)
     Trial step:       0.436082247523
             Q1:  -11533.787114856765
 Quadratic coef:       0.343644094690
 Linear coef   :      -0.807510277642
           Qmin:  -11533.797629623881
Quadratic minimum step length (  0.512362793677) accepted
    Initial Ne1:    7191.99996581
      Final Ne1:    7192.00000000

=================== Penalty functional idempotency correction ==================
 RMS occupancy error at iteration   1:  0.000583 (step -0.4977 Ne1=   7192.0000)
 RMS occupancy error at iteration   2:  0.000001 (step -0.5000 Ne1=   7192.0000)
            Final RMS occupancy error   :  0.000000 (Ne1=   7192.0000)
               Final occupancy bounds   : [  0.0000,  1.0000]
================================================================================

    3        -1.153332324867E+04     2.0790E-04     1.8804E-04    -2.9672E+00
MG BCs: +ve charge blocks (gridpoints):     31540 (   17652347).
MG BCs: -ve charge blocks (gridpoints):      8386 (    1112095).
MG BCs:     Elided blocks (gridpoints):    169094 (  177532023).
MG BCs: Computational effort saved:  99.9797%.
MG BCs: Charge after coarse-graining:           -9.0009896.
MG DL_MG: Calling solver with defect correction order = 8
MG DL_MG: Solver finished
MG Hartree energy from (\int phi*rho dr):              1429.006411
MG Hartree energy from (\int eps (grad phi)^2 dr):     1428.364998
MG Discrepancy due to finite box and discretization:     -0.641413 (  -0.04489%)
MG Correction to account for finite box:                  0.467187
MG Remaining discrepancy, due to discretization:         -0.174226 (  -0.01219%)
      ideal mu1:      -0.771548060135
             Q0:  -11533.801929340232
             G0:      -0.438178607315
   RMS gradient:       0.000101248512
MG BCs: +ve charge blocks (gridpoints):     31537 (   17653319).
MG BCs: -ve charge blocks (gridpoints):      8385 (    1111946).
MG BCs:     Elided blocks (gridpoints):    169097 (  177531200).
MG BCs: Computational effort saved:  99.9797%.
MG BCs: Charge after coarse-graining:           -9.0009897.
MG DL_MG: Calling solver with defect correction order = 8
MG DL_MG: Solver finished
MG Hartree energy from (\int phi*rho dr):              1430.134966
MG Hartree energy from (\int eps (grad phi)^2 dr):     1429.493494
MG Discrepancy due to finite box and discretization:     -0.641472 (  -0.04485%)
MG Correction to account for finite box:                  0.467137
MG Remaining discrepancy, due to discretization:         -0.174335 (  -0.01219%)
     Trial step:       0.472686279274
             Q1:  -11533.901688717189
 Quadratic coef:       0.107361638593
 Linear coef   :      -0.207121015549
           Qmin:  -11533.901823295942
Quadratic minimum step length (  0.455950856761) accepted
    Initial Ne1:    7191.99999265
      Final Ne1:    7192.00000000

=================== Penalty functional idempotency correction ==================
 RMS occupancy error at iteration   1:  0.000189 (step -0.4992 Ne1=   7192.0000)
            Final RMS occupancy error   :  0.000000 (Ne1=   7192.0000)
               Final occupancy bounds   : [ -0.0000,  1.0000]
================================================================================

    4        -1.153380192934E+04     1.0125E-04     9.1577E-05    -4.7868E-01
MG BCs: +ve charge blocks (gridpoints):     31537 (   17653282).
MG BCs: -ve charge blocks (gridpoints):      8386 (    1111952).
MG BCs:     Elided blocks (gridpoints):    169097 (  177531231).
MG BCs: Computational effort saved:  99.9797%.
MG BCs: Charge after coarse-graining:           -9.0009897.
MG DL_MG: Calling solver with defect correction order = 8
MG DL_MG: Solver finished
MG Hartree energy from (\int phi*rho dr):              1430.094984
MG Hartree energy from (\int eps (grad phi)^2 dr):     1429.453515
MG Discrepancy due to finite box and discretization:     -0.641469 (  -0.04486%)
MG Correction to account for finite box:                  0.467139
MG Remaining discrepancy, due to discretization:         -0.174330 (  -0.01219%)
      ideal mu1:      -0.771765814661
             Q0:  -11533.902256494155
             G0:      -0.106618195582
   RMS gradient:       0.000050091955
MG BCs: +ve charge blocks (gridpoints):     31533 (   17653433).
MG BCs: -ve charge blocks (gridpoints):      8383 (    1111776).
MG BCs:     Elided blocks (gridpoints):    169101 (  177531256).
MG BCs: Computational effort saved:  99.9797%.
MG BCs: Charge after coarse-graining:           -9.0009897.
MG DL_MG: Calling solver with defect correction order = 8
MG DL_MG: Solver finished
MG Hartree energy from (\int phi*rho dr):              1430.504486
MG Hartree energy from (\int eps (grad phi)^2 dr):     1429.862886
MG Discrepancy due to finite box and discretization:     -0.641600 (  -0.04485%)
MG Correction to account for finite box:                  0.467130
MG Remaining discrepancy, due to discretization:         -0.174470 (  -0.01220%)
     Trial step:       0.464243162593
             Q1:  -11533.928444770630
 Quadratic coef:       0.023308491831
 Linear coef   :      -0.049496768307
           Qmin:  -11533.928533720611
Quadratic minimum step length (  0.492921987909) accepted
    Initial Ne1:    7192.00171882
      Final Ne1:    7192.00000000

=================== Penalty functional idempotency correction ==================
 RMS occupancy error at iteration   1:  0.000067 (step -0.4997 Ne1=   7192.0000)
            Final RMS occupancy error   :  0.000000 (Ne1=   7192.0000)
               Final occupancy bounds   : [ -0.0000,  1.0000]
================================================================================

    5        -1.153390225649E+04     5.0092E-05     4.5307E-05    -1.0033E-01
MG BCs: +ve charge blocks (gridpoints):     31533 (   17653437).
MG BCs: -ve charge blocks (gridpoints):      8383 (    1111754).
MG BCs:     Elided blocks (gridpoints):    169101 (  177531274).
MG BCs: Computational effort saved:  99.9797%.
MG BCs: Charge after coarse-graining:           -9.0009897.
MG DL_MG: Calling solver with defect correction order = 8
MG DL_MG: Solver finished
MG Hartree energy from (\int phi*rho dr):              1430.529815
MG Hartree energy from (\int eps (grad phi)^2 dr):     1429.888206
MG Discrepancy due to finite box and discretization:     -0.641609 (  -0.04485%)
MG Correction to account for finite box:                  0.467130
MG Remaining discrepancy, due to discretization:         -0.174479 (  -0.01220%)
      ideal mu1:      -0.771648594653
             Q0:  -11533.928584912675
             G0:      -0.031667331567
   RMS gradient:       0.000027322151
MG BCs: +ve charge blocks (gridpoints):     31535 (   17653055).
MG BCs: -ve charge blocks (gridpoints):      8385 (    1111985).
MG BCs:     Elided blocks (gridpoints):    169099 (  177531425).
MG BCs: Computational effort saved:  99.9797%.
MG BCs: Charge after coarse-graining:           -9.0009896.
MG DL_MG: Calling solver with defect correction order = 8
MG DL_MG: Solver finished
MG Hartree energy from (\int phi*rho dr):              1429.899055
MG Hartree energy from (\int eps (grad phi)^2 dr):     1429.257459
MG Discrepancy due to finite box and discretization:     -0.641596 (  -0.04487%)
MG Correction to account for finite box:                  0.467125
MG Remaining discrepancy, due to discretization:         -0.174471 (  -0.01220%)
     Trial step:       0.478367706454
             Q1:  -11533.938592311228
 Quadratic coef:       0.005141230218
 Linear coef   :      -0.015148628771
           Qmin:  -11533.939743766876
Quadratic minimum step length (  0.704754941288) accepted
    Initial Ne1:    7192.00108189
      Final Ne1:    7192.00000000

=================== Penalty functional idempotency correction ==================
 RMS occupancy error at iteration   1:  0.000041 (step -0.4997 Ne1=   7192.0000)
            Final RMS occupancy error   :  0.000000 (Ne1=   7192.0000)
               Final occupancy bounds   : [ -0.0000,  1.0000]
================================================================================

    6        -1.153392858491E+04     2.7322E-05     2.4712E-05    -2.6328E-02
MG BCs: +ve charge blocks (gridpoints):     31534 (   17652896).
MG BCs: -ve charge blocks (gridpoints):      8386 (    1112062).
MG BCs:     Elided blocks (gridpoints):    169100 (  177531507).
MG BCs: Computational effort saved:  99.9797%.
MG BCs: Charge after coarse-graining:           -9.0009895.
MG DL_MG: Calling solver with defect correction order = 8
MG DL_MG: Solver finished
MG Hartree energy from (\int phi*rho dr):              1429.599711
MG Hartree energy from (\int eps (grad phi)^2 dr):     1428.958122
MG Discrepancy due to finite box and discretization:     -0.641589 (  -0.04488%)
MG Correction to account for finite box:                  0.467122
MG Remaining discrepancy, due to discretization:         -0.174467 (  -0.01220%)
      ideal mu1:      -0.771435182831
             Q0:  -11533.939753366983
             G0:      -0.016975747502
   RMS gradient:       0.000020029364
MG BCs: +ve charge blocks (gridpoints):     31535 (   17653383).
MG BCs: -ve charge blocks (gridpoints):      8384 (    1111777).
MG BCs:     Elided blocks (gridpoints):    169099 (  177531305).
MG BCs: Computational effort saved:  99.9797%.
MG BCs: Charge after coarse-graining:           -9.0009897.
MG DL_MG: Calling solver with defect correction order = 8
MG DL_MG: Solver finished
MG Hartree energy from (\int phi*rho dr):              1430.238330
MG Hartree energy from (\int eps (grad phi)^2 dr):     1429.596772
MG Discrepancy due to finite box and discretization:     -0.641559 (  -0.04486%)
MG Correction to account for finite box:                  0.467112
MG Remaining discrepancy, due to discretization:         -0.174446 (  -0.01220%)
     Trial step:       0.580630695775
             Q1:  -11533.944203127176
 Quadratic coef:       0.005406879891
 Linear coef   :      -0.009856640084
           Qmin:  -11533.944245484236
Quadratic minimum step length (  0.529239404730) accepted
    Initial Ne1:    7192.00020285
      Final Ne1:    7192.00000000

=================== Penalty functional idempotency correction ==================
 RMS occupancy error at iteration   1:  0.000003 (step -0.5000 Ne1=   7192.0000)
            Final RMS occupancy error   :  0.000000 (Ne1=   7192.0000)
               Final occupancy bounds   : [  0.0000,  1.0000]
================================================================================

    7        -1.153393975337E+04     2.0029E-05     1.8116E-05    -1.1168E-02
MG BCs: +ve charge blocks (gridpoints):     31535 (   17653320).
MG BCs: -ve charge blocks (gridpoints):      8384 (    1111812).
MG BCs:     Elided blocks (gridpoints):    169099 (  177531333).
MG BCs: Computational effort saved:  99.9797%.
MG BCs: Charge after coarse-graining:           -9.0009897.
MG DL_MG: Calling solver with defect correction order = 8
MG DL_MG: Solver finished
MG Hartree energy from (\int phi*rho dr):              1430.181729
MG Hartree energy from (\int eps (grad phi)^2 dr):     1429.540168
MG Discrepancy due to finite box and discretization:     -0.641561 (  -0.04486%)
MG Correction to account for finite box:                  0.467113
MG Remaining discrepancy, due to discretization:         -0.174448 (  -0.01220%)
      ideal mu1:      -0.771733156175
             Q0:  -11533.944245652063
             G0:      -0.010441191285
   RMS gradient:       0.000015709103
MG BCs: +ve charge blocks (gridpoints):     31535 (   17653414).
MG BCs: -ve charge blocks (gridpoints):      8384 (    1111777).
MG BCs:     Elided blocks (gridpoints):    169099 (  177531274).
MG BCs: Computational effort saved:  99.9797%.
MG BCs: Charge after coarse-graining:           -9.0009897.
MG DL_MG: Calling solver with defect correction order = 8
MG DL_MG: Solver finished
MG Hartree energy from (\int phi*rho dr):              1430.239249
MG Hartree energy from (\int eps (grad phi)^2 dr):     1429.597729
MG Discrepancy due to finite box and discretization:     -0.641520 (  -0.04485%)
MG Correction to account for finite box:                  0.467101
MG Remaining discrepancy, due to discretization:         -0.174419 (  -0.01220%)
     Trial step:       0.554339827001
             Q1:  -11533.948621015181
 Quadratic coef:       0.001412605052
 Linear coef   :      -0.005787968170
           Qmin:  -11533.950174516522
Quadratic minimum step length (  1.135668200397) accepted
    Initial Ne1:    7192.00026587
      Final Ne1:    7192.00000000

=================== Penalty functional idempotency correction ==================
 RMS occupancy error at iteration   1:  0.000037 (step -0.4987 Ne1=   7192.0000)
            Final RMS occupancy error   :  0.000000 (Ne1=   7192.0000)
               Final occupancy bounds   : [ -0.0000,  1.0000]
================================================================================

    8        -1.153394424565E+04     1.5709E-05     1.4209E-05    -4.4923E-03
MG BCs: +ve charge blocks (gridpoints):     31534 (   17653453).
MG BCs: -ve charge blocks (gridpoints):      8384 (    1111770).
MG BCs:     Elided blocks (gridpoints):    169100 (  177531242).
MG BCs: Computational effort saved:  99.9797%.
MG BCs: Charge after coarse-graining:           -9.0009897.
MG DL_MG: Calling solver with defect correction order = 8
MG DL_MG: Solver finished
MG Hartree energy from (\int phi*rho dr):              1430.296890
MG Hartree energy from (\int eps (grad phi)^2 dr):     1429.655415
MG Discrepancy due to finite box and discretization:     -0.641474 (  -0.04485%)
MG Correction to account for finite box:                  0.467086
MG Remaining discrepancy, due to discretization:         -0.174388 (  -0.01219%)
      ideal mu1:      -0.771843420363
             Q0:  -11533.950149809127
             G0:      -0.017715509705
   RMS gradient:       0.000020541151
MG BCs: +ve charge blocks (gridpoints):     31534 (   17653354).
MG BCs: -ve charge blocks (gridpoints):      8386 (    1111923).
MG BCs:     Elided blocks (gridpoints):    169100 (  177531188).
MG BCs: Computational effort saved:  99.9797%.
MG BCs: Charge after coarse-graining:           -9.0009896.
MG DL_MG: Calling solver with defect correction order = 8
MG DL_MG: Solver finished
MG Hartree energy from (\int phi*rho dr):              1429.904942
MG Hartree energy from (\int eps (grad phi)^2 dr):     1429.263572
MG Discrepancy due to finite box and discretization:     -0.641370 (  -0.04485%)
MG Correction to account for finite box:                  0.467042
MG Remaining discrepancy, due to discretization:         -0.174328 (  -0.01219%)
     Trial step:       0.793439420333
             Q1:  -11533.959266776103
 Quadratic coef:       0.004939216775
 Linear coef   :      -0.014056183751
           Qmin:  -11533.960150195355
Quadratic minimum step length (  1.128997854956) accepted
    Initial Ne1:    7192.00110704
      Final Ne1:    7192.00000000

=================== Penalty functional idempotency correction ==================
 RMS occupancy error at iteration   1:  0.000274 (step -0.4902 Ne1=   7192.0000)
 RMS occupancy error at iteration   2:  0.000003 (step -0.5000 Ne1=   7192.0000)
            Final RMS occupancy error   :  0.000000 (Ne1=   7192.0000)
               Final occupancy bounds   : [  0.0000,  1.0000]
================================================================================

    9        -1.153395014981E+04     2.0541E-05     1.8579E-05    -5.9042E-03
MG BCs: +ve charge blocks (gridpoints):     31536 (   17653279).
MG BCs: -ve charge blocks (gridpoints):      8386 (    1111996).
MG BCs:     Elided blocks (gridpoints):    169098 (  177531190).
MG BCs: Computational effort saved:  99.9797%.
MG BCs: Charge after coarse-graining:           -9.0009896.
MG DL_MG: Calling solver with defect correction order = 8
MG DL_MG: Solver finished
MG Hartree energy from (\int phi*rho dr):              1429.732211
MG Hartree energy from (\int eps (grad phi)^2 dr):     1429.090891
MG Discrepancy due to finite box and discretization:     -0.641321 (  -0.04486%)
MG Correction to account for finite box:                  0.467020
MG Remaining discrepancy, due to discretization:         -0.174301 (  -0.01219%)
      ideal mu1:      -0.771325819193
   10        -1.153395990742E+04     2.5688E-05     2.3234E-05    -9.7576E-03
Finished density kernel iterations (  10)

Writing density kernel to file "host_36201.vacuum_dkn" ... done


>>> Density kernel optimised for the current NGWF basis:
     ~~~~~~~~~~~~~~~~~~~~~~~~~~~~~~~~~~~~~~~~~~~~~~~~~~~~~~~~~~~
     Total energy                =  -1.15339599074175E+04  Eh
     Estimated bandgap           =  -2.7922E-01  Eh
     RMS occupancy error         =   4.3755E-10
     [H,K] commutator            =   2.3234E-05
     Occupancy bounds            = [  0.000:  1.000]
     ~~~~~~~~~~~~~~~~~~~~~~~~~~~~~~~~~~~~~~~~~~~~~~~~~~~~~~~~~~~




################################################################################
########################### NGWF CG iteration  001 #############################
################################################################################
****** Reciprocal space K.E. preconditioning with k_zero =  3.5000 a0^-1 *******

>>> Checking for convergence of NGWFs:   NOT CONVERGED
  ========================================================================
         NGWF RMS gradient =  1.5632E-03 >  2.0000E-06  | above tolerance
  ========================================================================

>>> Improving NGWFs using line search:
============ Calculation of NGWF S^-1 using Hotelling algorithm ================ 
         Iteration  |  Frobenius norm and Maximum abs value    (of I-S*S_n^-1)   
               1       0.19187997E+00     0.49018158E-02
               2       0.85865547E-03     0.35528716E-04
               3       0.29336985E-07     0.21924493E-08
               4       0.13240092E-12     0.54400928E-14
================================================================================
MG BCs: +ve charge blocks (gridpoints):     31042 (   17600513).
MG BCs: -ve charge blocks (gridpoints):      8395 (    1112000).
MG BCs:     Elided blocks (gridpoints):    169590 (  177583952).
MG BCs: Computational effort saved:  99.9799%.
MG BCs: Charge after coarse-graining:           -9.0009916.
MG DL_MG: Calling solver with defect correction order = 8
MG DL_MG: Solver finished
MG Hartree energy from (\int phi*rho dr):              1398.480604
MG Hartree energy from (\int eps (grad phi)^2 dr):     1397.839996
MG Discrepancy due to finite box and discretization:     -0.640607 (  -0.04581%)
MG Correction to account for finite box:                  0.466974
MG Remaining discrepancy, due to discretization:         -0.173633 (  -0.01242%)
============ Calculation of NGWF S^-1 using Hotelling algorithm ================ 
         Iteration  |  Frobenius norm and Maximum abs value    (of I-S*S_n^-1)   
               1       0.18506744E+01     0.40955359E-01
               2       0.71385238E-01     0.22997613E-02
               3       0.14398097E-03     0.91206682E-05
               4       0.10578279E-08     0.14989654E-09
               5       0.11385270E-12     0.46629367E-14
================================================================================
------------------------------- NGWF line search -------------------------------
RMS gradient                =       0.00156320782193
Trial step length           =               0.122474
Gradient along search dir.  =       -269.74983366303
Functional at step 0        =  -11533.95990741753485
Functional at step 1        =  -11564.52299042779487
Functional predicted        =  -11644.23706679922361
Selected quadratic step     =               0.817625
--------------------------- NGWF line search finished --------------------------
                                               
Writing NGWFs to file "host_36201.vacuum_tightbox_ngwfs"....  done

>>> Optimising kernel for current NGWFs:
   Initial electron number for spin 1:    7226.34684593
     Final electron number for spin 1:    7192.00000000

=================== Penalty functional idempotency correction ==================
 RMS occupancy error at iteration   1:  0.004232 (step -0.4864 Ne1=   7192.0000)
 RMS occupancy error at iteration   2:  0.000068 (step -0.5003 Ne1=   7192.0000)
            Final RMS occupancy error   :  0.000000 (Ne1=   7192.0000)
               Final occupancy bounds   : [  0.0000,  1.0000]
================================================================================

................................................................................
<<<<<<<<<<<<<< LNV (Original version) density kernel optimisation >>>>>>>>>>>>>>
~~~~~~~~~~~~~~~~~~~~~~~~~~~~~~~~~~~~~~~~~~~~~~~~~~~~~~~~~~~~~~~~~~~~~~~~~~~~~~~~
   iter  |      energy (Eh)       | rms gradient |  commutator  |   dE (Eh)
MG BCs: +ve charge blocks (gridpoints):     25126 (   17349218).
MG BCs: -ve charge blocks (gridpoints):      8550 (    1096345).
MG BCs:     Elided blocks (gridpoints):    175514 (  177850902).
MG BCs: Computational effort saved:  99.9828%.
MG BCs: Charge after coarse-graining:           -9.0006620.
MG DL_MG: Calling solver with defect correction order = 8
MG DL_MG: Solver finished
MG Hartree energy from (\int phi*rho dr):              1243.480054
MG Hartree energy from (\int eps (grad phi)^2 dr):     1242.839125
MG Discrepancy due to finite box and discretization:     -0.640929 (  -0.05154%)
MG Correction to account for finite box:                  0.466751
MG Remaining discrepancy, due to discretization:         -0.174178 (  -0.01401%)
      ideal mu1:      -0.711258589000
             Q0:  -11643.420349969529
             G0:      -9.860671687660
   RMS gradient:       0.000482731844
MG BCs: +ve charge blocks (gridpoints):     25219 (   17369386).
MG BCs: -ve charge blocks (gridpoints):      8533 (    1091311).
MG BCs:     Elided blocks (gridpoints):    175421 (  177835768).
MG BCs: Computational effort saved:  99.9828%.
MG BCs: Charge after coarse-graining:           -9.0006569.
MG DL_MG: Calling solver with defect correction order = 8
MG DL_MG: Solver finished
MG Hartree energy from (\int phi*rho dr):              1265.705309
MG Hartree energy from (\int eps (grad phi)^2 dr):     1265.056845
MG Discrepancy due to finite box and discretization:     -0.648464 (  -0.05123%)
MG Correction to account for finite box:                  0.466661
MG Remaining discrepancy, due to discretization:         -0.181802 (  -0.01436%)
     Trial step:       0.946462573795
             Q1:  -11639.423264100566
 Quadratic coef:      13.329842573808
 Linear coef   :      -9.332756704846
           Qmin:  -11645.053909166299
Quadratic minimum step length (  0.331328178955) accepted
    Initial Ne1:    7191.99961518
      Final Ne1:    7192.00000000

=================== Penalty functional idempotency correction ==================
 RMS occupancy error at iteration   1:  0.000360 (step -0.4986 Ne1=   7192.0000)
 RMS occupancy error at iteration   2:  0.000000 (step -0.5000 Ne1=   7192.0000)
            Final RMS occupancy error   :  0.000000 (Ne1=   7192.0000)
               Final occupancy bounds   : [  0.0000,  1.0000]
================================================================================

    1        -1.164342034997E+04     4.8273E-04     4.3662E-04
MG BCs: +ve charge blocks (gridpoints):     25158 (   17356417).
MG BCs: -ve charge blocks (gridpoints):      8544 (    1094705).
MG BCs:     Elided blocks (gridpoints):    175482 (  177845343).
MG BCs: Computational effort saved:  99.9828%.
MG BCs: Charge after coarse-graining:           -9.0006601.
MG DL_MG: Calling solver with defect correction order = 8
MG DL_MG: Solver finished
MG Hartree energy from (\int phi*rho dr):              1249.781874
MG Hartree energy from (\int eps (grad phi)^2 dr):     1249.138462
MG Discrepancy due to finite box and discretization:     -0.643412 (  -0.05148%)
MG Correction to account for finite box:                  0.466678
MG Remaining discrepancy, due to discretization:         -0.176734 (  -0.01414%)
      ideal mu1:      -0.717941618481
             Q0:  -11645.011133092339
             G0:      -0.990105958481
   RMS gradient:       0.000154468658
MG BCs: +ve charge blocks (gridpoints):     25162 (   17356119).
MG BCs: -ve charge blocks (gridpoints):      8542 (    1095597).
MG BCs:     Elided blocks (gridpoints):    175478 (  177844749).
MG BCs: Computational effort saved:  99.9828%.
MG BCs: Charge after coarse-graining:           -9.0006601.
MG DL_MG: Calling solver with defect correction order = 8
MG DL_MG: Solver finished
MG Hartree energy from (\int phi*rho dr):              1251.049424
MG Hartree energy from (\int eps (grad phi)^2 dr):     1250.405601
MG Discrepancy due to finite box and discretization:     -0.643822 (  -0.05146%)
MG Correction to account for finite box:                  0.466700
MG Remaining discrepancy, due to discretization:         -0.177123 (  -0.01416%)
     Trial step:       0.559990822268
             Q1:  -11645.197038166691
 Quadratic coef:       0.368545175470
 Linear coef   :      -0.554450249822
           Qmin:  -11645.219665926295
Quadratic minimum step length (  0.421233368350) accepted
    Initial Ne1:    7191.99994989
      Final Ne1:    7192.00000000

=================== Penalty functional idempotency correction ==================
 RMS occupancy error at iteration   1:  0.000142 (step -0.4994 Ne1=   7192.0000)
            Final RMS occupancy error   :  0.000000 (Ne1=   7192.0000)
               Final occupancy bounds   : [ -0.0000,  1.0000]
================================================================================

    2        -1.164501113309E+04     1.5447E-04     1.3971E-04    -1.5908E+00
MG BCs: +ve charge blocks (gridpoints):     25162 (   17356151).
MG BCs: -ve charge blocks (gridpoints):      8541 (    1095404).
MG BCs:     Elided blocks (gridpoints):    175478 (  177844910).
MG BCs: Computational effort saved:  99.9828%.
MG BCs: Charge after coarse-graining:           -9.0006601.
MG DL_MG: Calling solver with defect correction order = 8
MG DL_MG: Solver finished
MG Hartree energy from (\int phi*rho dr):              1250.734494
MG Hartree energy from (\int eps (grad phi)^2 dr):     1250.090776
MG Discrepancy due to finite box and discretization:     -0.643717 (  -0.05147%)
MG Correction to account for finite box:                  0.466694
MG Remaining discrepancy, due to discretization:         -0.177023 (  -0.01415%)
      ideal mu1:      -0.718895198275
             Q0:  -11645.220174478134
             G0:      -0.146041792820
   RMS gradient:       0.000058678378
MG BCs: +ve charge blocks (gridpoints):     25164 (   17355561).
MG BCs: -ve charge blocks (gridpoints):      8542 (    1095752).
MG BCs:     Elided blocks (gridpoints):    175476 (  177845152).
MG BCs: Computational effort saved:  99.9828%.
MG BCs: Charge after coarse-graining:           -9.0006600.
MG DL_MG: Calling solver with defect correction order = 8
MG DL_MG: Solver finished
MG Hartree energy from (\int phi*rho dr):              1250.239353
MG Hartree energy from (\int eps (grad phi)^2 dr):     1249.595647
MG Discrepancy due to finite box and discretization:     -0.643707 (  -0.05149%)
MG Correction to account for finite box:                  0.466706
MG Remaining discrepancy, due to discretization:         -0.177000 (  -0.01416%)
     Trial step:       0.485681809736
             Q1:  -11645.265250869794
 Quadratic coef:       0.025853450574
 Linear coef   :      -0.070929842234
           Qmin:  -11645.268824101373
Quadratic minimum step length (  0.666242481681) accepted
    Initial Ne1:    7192.00060877
      Final Ne1:    7192.00000000

=================== Penalty functional idempotency correction ==================
 RMS occupancy error at iteration   1:  0.000062 (step -0.4998 Ne1=   7192.0000)
            Final RMS occupancy error   :  0.000000 (Ne1=   7192.0000)
               Final occupancy bounds   : [ -0.0000,  1.0000]
================================================================================

    3        -1.164522017448E+04     5.8678E-05     5.3073E-05    -2.0904E-01
MG BCs: +ve charge blocks (gridpoints):     25165 (   17355325).
MG BCs: -ve charge blocks (gridpoints):      8543 (    1095909).
MG BCs:     Elided blocks (gridpoints):    175475 (  177845231).
MG BCs: Computational effort saved:  99.9828%.
MG BCs: Charge after coarse-graining:           -9.0006600.
MG DL_MG: Calling solver with defect correction order = 8
MG DL_MG: Solver finished
MG Hartree energy from (\int phi*rho dr):              1250.055291
MG Hartree energy from (\int eps (grad phi)^2 dr):     1249.411587
MG Discrepancy due to finite box and discretization:     -0.643703 (  -0.05149%)
MG Correction to account for finite box:                  0.466711
MG Remaining discrepancy, due to discretization:         -0.176992 (  -0.01416%)
      ideal mu1:      -0.717851520360
             Q0:  -11645.268912508385
             G0:      -0.036531832799
   RMS gradient:       0.000029339684
MG BCs: +ve charge blocks (gridpoints):     25163 (   17355121).
MG BCs: -ve charge blocks (gridpoints):      8543 (    1095944).
MG BCs:     Elided blocks (gridpoints):    175477 (  177845400).
MG BCs: Computational effort saved:  99.9828%.
MG BCs: Charge after coarse-graining:           -9.0006601.
MG DL_MG: Calling solver with defect correction order = 8
MG DL_MG: Solver finished
MG Hartree energy from (\int phi*rho dr):              1250.079580
MG Hartree energy from (\int eps (grad phi)^2 dr):     1249.435980
MG Discrepancy due to finite box and discretization:     -0.643601 (  -0.05148%)
MG Correction to account for finite box:                  0.466710
MG Remaining discrepancy, due to discretization:         -0.176890 (  -0.01415%)
     Trial step:       0.568842556624
             Q1:  -11645.278240176849
 Quadratic coef:       0.011453192703
 Linear coef   :      -0.020780861167
           Qmin:  -11645.278338792437
Quadratic minimum step length (  0.516058644165) accepted
    Initial Ne1:    7192.00023611
      Final Ne1:    7192.00000000

=================== Penalty functional idempotency correction ==================
 RMS occupancy error at iteration   1:  0.000019 (step -0.4999 Ne1=   7192.0000)
            Final RMS occupancy error   :  0.000000 (Ne1=   7192.0000)
               Final occupancy bounds   : [ -0.0000,  1.0000]
================================================================================

    4        -1.164526891251E+04     2.9340E-05     2.6537E-05    -4.8738E-02
MG BCs: +ve charge blocks (gridpoints):     25163 (   17355131).
MG BCs: -ve charge blocks (gridpoints):      8543 (    1095946).
MG BCs:     Elided blocks (gridpoints):    175477 (  177845388).
MG BCs: Computational effort saved:  99.9828%.
MG BCs: Charge after coarse-graining:           -9.0006601.
MG DL_MG: Calling solver with defect correction order = 8
MG DL_MG: Solver finished
MG Hartree energy from (\int phi*rho dr):              1250.077173
MG Hartree energy from (\int eps (grad phi)^2 dr):     1249.433563
MG Discrepancy due to finite box and discretization:     -0.643610 (  -0.05149%)
MG Correction to account for finite box:                  0.466710
MG Remaining discrepancy, due to discretization:         -0.176900 (  -0.01415%)
      ideal mu1:      -0.717902327346
             Q0:  -11645.278344186489
             G0:      -0.013183912291
   RMS gradient:       0.000017647349
MG BCs: +ve charge blocks (gridpoints):     25163 (   17355653).
MG BCs: -ve charge blocks (gridpoints):      8543 (    1095739).
MG BCs:     Elided blocks (gridpoints):    175477 (  177845073).
MG BCs: Computational effort saved:  99.9828%.
MG BCs: Charge after coarse-graining:           -9.0006600.
MG DL_MG: Calling solver with defect correction order = 8
MG DL_MG: Solver finished
MG Hartree energy from (\int phi*rho dr):              1250.502215
MG Hartree energy from (\int eps (grad phi)^2 dr):     1249.858644
MG Discrepancy due to finite box and discretization:     -0.643571 (  -0.05146%)
MG Correction to account for finite box:                  0.466705
MG Remaining discrepancy, due to discretization:         -0.176866 (  -0.01414%)
     Trial step:       0.541808193473
             Q1:  -11645.282208231045
 Quadratic coef:       0.003279107144
 Linear coef   :      -0.007143151702
           Qmin:  -11645.282234316788
Quadratic minimum step length (  0.590132915556) accepted
    Initial Ne1:    7192.00011565
      Final Ne1:    7192.00000000

=================== Penalty functional idempotency correction ==================
 RMS occupancy error at iteration   1:  0.000012 (step -0.4999 Ne1=   7192.0000)
            Final RMS occupancy error   :  0.000000 (Ne1=   7192.0000)
               Final occupancy bounds   : [ -0.0000,  1.0000]
================================================================================

    5        -1.164527834419E+04     1.7647E-05     1.5962E-05    -9.4317E-03
MG BCs: +ve charge blocks (gridpoints):     25163 (   17355699).
MG BCs: -ve charge blocks (gridpoints):      8543 (    1095710).
MG BCs:     Elided blocks (gridpoints):    175477 (  177845056).
MG BCs: Computational effort saved:  99.9828%.
MG BCs: Charge after coarse-graining:           -9.0006600.
MG DL_MG: Calling solver with defect correction order = 8
MG DL_MG: Solver finished
MG Hartree energy from (\int phi*rho dr):              1250.540156
MG Hartree energy from (\int eps (grad phi)^2 dr):     1249.896588
MG Discrepancy due to finite box and discretization:     -0.643567 (  -0.05146%)
MG Correction to account for finite box:                  0.466704
MG Remaining discrepancy, due to discretization:         -0.176863 (  -0.01414%)
      ideal mu1:      -0.718297244469
             Q0:  -11645.282235715888
             G0:      -0.005006502080
   RMS gradient:       0.000010875312
MG BCs: +ve charge blocks (gridpoints):     25163 (   17355703).
MG BCs: -ve charge blocks (gridpoints):      8543 (    1095753).
MG BCs:     Elided blocks (gridpoints):    175477 (  177845009).
MG BCs: Computational effort saved:  99.9828%.
MG BCs: Charge after coarse-graining:           -9.0006600.
MG DL_MG: Calling solver with defect correction order = 8
MG DL_MG: Solver finished
MG Hartree energy from (\int phi*rho dr):              1250.495681
MG Hartree energy from (\int eps (grad phi)^2 dr):     1249.852123
MG Discrepancy due to finite box and discretization:     -0.643558 (  -0.05146%)
MG Correction to account for finite box:                  0.466699
MG Remaining discrepancy, due to discretization:         -0.176859 (  -0.01414%)
     Trial step:       0.565454550682
             Q1:  -11645.284116097610
 Quadratic coef:       0.000950567663
 Linear coef   :      -0.002830949384
           Qmin:  -11645.284343476000
Quadratic minimum step length (  0.842009083058) accepted
    Initial Ne1:    7192.00008871
      Final Ne1:    7192.00000000

=================== Penalty functional idempotency correction ==================
 RMS occupancy error at iteration   1:  0.000013 (step -0.4997 Ne1=   7192.0000)
            Final RMS occupancy error   :  0.000000 (Ne1=   7192.0000)
               Final occupancy bounds   : [ -0.0000,  1.0000]
================================================================================

    6        -1.164528223572E+04     1.0875E-05     9.8365E-06    -3.8915E-03
MG BCs: +ve charge blocks (gridpoints):     25164 (   17355707).
MG BCs: -ve charge blocks (gridpoints):      8543 (    1095765).
MG BCs:     Elided blocks (gridpoints):    175476 (  177844993).
MG BCs: Computational effort saved:  99.9828%.
MG BCs: Charge after coarse-graining:           -9.0006600.
MG DL_MG: Calling solver with defect correction order = 8
MG DL_MG: Solver finished
MG Hartree energy from (\int phi*rho dr):              1250.473739
MG Hartree energy from (\int eps (grad phi)^2 dr):     1249.830186
MG Discrepancy due to finite box and discretization:     -0.643553 (  -0.05146%)
MG Correction to account for finite box:                  0.466697
MG Remaining discrepancy, due to discretization:         -0.176856 (  -0.01414%)
      ideal mu1:      -0.718202109249
             Q0:  -11645.284342880361
             G0:      -0.004109322469
   RMS gradient:       0.000009854573
MG BCs: +ve charge blocks (gridpoints):     25163 (   17355437).
MG BCs: -ve charge blocks (gridpoints):      8543 (    1095824).
MG BCs:     Elided blocks (gridpoints):    175477 (  177845204).
MG BCs: Computational effort saved:  99.9828%.
MG BCs: Charge after coarse-graining:           -9.0006600.
MG DL_MG: Calling solver with defect correction order = 8
MG DL_MG: Solver finished
MG Hartree energy from (\int phi*rho dr):              1250.335211
MG Hartree energy from (\int eps (grad phi)^2 dr):     1249.691643
MG Discrepancy due to finite box and discretization:     -0.643568 (  -0.05147%)
MG Correction to account for finite box:                  0.466699
MG Remaining discrepancy, due to discretization:         -0.176869 (  -0.01415%)
     Trial step:       0.690012947509
             Q1:  -11645.285215829615
 Quadratic coef:       0.001962536455
 Linear coef   :      -0.002835485709
           Qmin:  -11645.285367062508
Quadratic minimum step length (  0.498467645538) accepted
    Initial Ne1:    7192.00005792
      Final Ne1:    7192.00000000

=================== Penalty functional idempotency correction ==================
 RMS occupancy error at iteration   1:  0.000001 (step -0.5000 Ne1=   7192.0000)
            Final RMS occupancy error   :  0.000000 (Ne1=   7192.0000)
               Final occupancy bounds   : [  0.0000,  1.0000]
================================================================================

    7        -1.164528434288E+04     9.8546E-06     8.9132E-06    -2.1072E-03
MG BCs: +ve charge blocks (gridpoints):     25163 (   17355514).
MG BCs: -ve charge blocks (gridpoints):      8543 (    1095815).
MG BCs:     Elided blocks (gridpoints):    175477 (  177845136).
MG BCs: Computational effort saved:  99.9828%.
MG BCs: Charge after coarse-graining:           -9.0006600.
MG DL_MG: Calling solver with defect correction order = 8
MG DL_MG: Solver finished
MG Hartree energy from (\int phi*rho dr):              1250.373554
MG Hartree energy from (\int eps (grad phi)^2 dr):     1249.729990
MG Discrepancy due to finite box and discretization:     -0.643564 (  -0.05147%)
MG Correction to account for finite box:                  0.466699
MG Remaining discrepancy, due to discretization:         -0.176865 (  -0.01414%)
      ideal mu1:      -0.718091621637
             Q0:  -11645.285367062432
             G0:      -0.002821470710
   RMS gradient:       0.000008165573
MG BCs: +ve charge blocks (gridpoints):     25164 (   17355461).
MG BCs: -ve charge blocks (gridpoints):      8543 (    1095823).
MG BCs:     Elided blocks (gridpoints):    175476 (  177845181).
MG BCs: Computational effort saved:  99.9828%.
MG BCs: Charge after coarse-graining:           -9.0006600.
MG DL_MG: Calling solver with defect correction order = 8
MG DL_MG: Solver finished
MG Hartree energy from (\int phi*rho dr):              1250.310455
MG Hartree energy from (\int eps (grad phi)^2 dr):     1249.666883
MG Discrepancy due to finite box and discretization:     -0.643572 (  -0.05147%)
MG Correction to account for finite box:                  0.466696
MG Remaining discrepancy, due to discretization:         -0.176875 (  -0.01415%)
     Trial step:       0.586471763460
             Q1:  -11645.286707868101
 Quadratic coef:       0.000313907234
 Linear coef   :      -0.001654712903
           Qmin:  -11645.287547702517
Quadratic minimum step length (  1.545747100605) accepted
    Initial Ne1:    7192.00012301
      Final Ne1:    7192.00000000

=================== Penalty functional idempotency correction ==================
 RMS occupancy error at iteration   1:  0.000030 (step -0.4988 Ne1=   7192.0000)
            Final RMS occupancy error   :  0.000000 (Ne1=   7192.0000)
               Final occupancy bounds   : [ -0.0000,  1.0000]
================================================================================

    8        -1.164528536706E+04     8.1656E-06     7.3856E-06    -1.0242E-03
MG BCs: +ve charge blocks (gridpoints):     25164 (   17355397).
MG BCs: -ve charge blocks (gridpoints):      8543 (    1095835).
MG BCs:     Elided blocks (gridpoints):    175476 (  177845233).
MG BCs: Computational effort saved:  99.9828%.
MG BCs: Charge after coarse-graining:           -9.0006601.
[...]
MG Hartree energy from (\int eps (grad phi)^2 dr):     1208.585937
MG Discrepancy due to finite box and discretization:     -0.182662 (  -0.01511%)
MG Correction to account for finite box:                  0.006415
MG Remaining discrepancy, due to discretization:         -0.176248 (  -0.01458%)
     Trial step:       0.436575720510
             Q1:  -11679.421819931711
 Quadratic coef:       0.000000001442
 Linear coef   :      -0.000000001094
           Qmin:  -11679.421819932268
Quadratic minimum step length (  0.165536877772) accepted
    Initial Ne1:    7191.99999999
      Final Ne1:    7192.00000000

=================== Penalty functional idempotency correction ==================
 RMS occupancy error at iteration   1:  0.000000 (step -0.5000 Ne1=   7192.0000)
            Final RMS occupancy error   :  0.000000 (Ne1=   7192.0000)
               Final occupancy bounds   : [  0.0000,  1.0000]
================================================================================

    7        -1.167942181993E+04     1.1425E-08     1.0333E-08    -4.6566E-10

Reusing previously generated solute cavity.
MG BCs: +ve charge blocks (gridpoints):     29398 (   19580143).
MG BCs: -ve charge blocks (gridpoints):      8545 (    1064174).
MG BCs:     Elided blocks (gridpoints):    171242 (  175652148).
MG BCs: Computational effort saved:  99.9807%.
MG BCs: Charge after coarse-graining:           -9.0009595.
MG DL_MG: Calling solver with defect correction order = 8
MG DL_MG: Solver finished
MG Hartree energy from (\int phi*rho dr):              1208.768537
MG Hartree energy from (\int eps (grad phi)^2 dr):     1208.585875
MG Discrepancy due to finite box and discretization:     -0.182662 (  -0.01511%)
MG Correction to account for finite box:                  0.006415
MG Remaining discrepancy, due to discretization:         -0.176248 (  -0.01458%)
      ideal mu1:      -0.480515466254
             Q0:  -11679.421819932293
             G0:      -0.000000004986
   RMS gradient:       0.000000010269

Reusing previously generated solute cavity.
MG BCs: +ve charge blocks (gridpoints):     29398 (   19580142).
MG BCs: -ve charge blocks (gridpoints):      8545 (    1064173).
MG BCs:     Elided blocks (gridpoints):    171242 (  175652150).
MG BCs: Computational effort saved:  99.9807%.
MG BCs: Charge after coarse-graining:           -9.0009595.
MG DL_MG: Calling solver with defect correction order = 8
MG DL_MG: Solver finished
MG Hartree energy from (\int phi*rho dr):              1208.768604
MG Hartree energy from (\int eps (grad phi)^2 dr):     1208.585942
MG Discrepancy due to finite box and discretization:     -0.182662 (  -0.01511%)
MG Correction to account for finite box:                  0.006415
MG Remaining discrepancy, due to discretization:         -0.176248 (  -0.01458%)
     Trial step:       0.268829651795
             Q1:  -11679.421819932060
 Quadratic coef:       0.000000001573
 Linear coef   :      -0.000000001340
           Qmin:  -11679.421819932579
Quadratic minimum step length (  0.114497921019) accepted
    Initial Ne1:    7192.00000000
      Final Ne1:    7192.00000000

=================== Penalty functional idempotency correction ==================
 RMS occupancy error at iteration   1:  0.000000 (step -0.5000 Ne1=   7192.0000)
            Final RMS occupancy error   :  0.000000 (Ne1=   7192.0000)
               Final occupancy bounds   : [ -0.0000,  1.0000]
================================================================================

    8        -1.167942181993E+04     1.0269E-08     9.2885E-09    -2.3283E-10

Reusing previously generated solute cavity.
MG BCs: +ve charge blocks (gridpoints):     29398 (   19580142).
MG BCs: -ve charge blocks (gridpoints):      8545 (    1064173).
MG BCs:     Elided blocks (gridpoints):    171242 (  175652150).
MG BCs: Computational effort saved:  99.9807%.
MG BCs: Charge after coarse-graining:           -9.0009595.
MG DL_MG: Calling solver with defect correction order = 8
MG DL_MG: Solver finished
MG Hartree energy from (\int phi*rho dr):              1208.768566
MG Hartree energy from (\int eps (grad phi)^2 dr):     1208.585903
MG Discrepancy due to finite box and discretization:     -0.182662 (  -0.01511%)
MG Correction to account for finite box:                  0.006415
MG Remaining discrepancy, due to discretization:         -0.176248 (  -0.01458%)
      ideal mu1:      -0.480515486119
             Q0:  -11679.421819932410
             G0:      -0.000000002902
   RMS gradient:       0.000000008281

Reusing previously generated solute cavity.
MG BCs: +ve charge blocks (gridpoints):     29398 (   19580143).
MG BCs: -ve charge blocks (gridpoints):      8545 (    1064173).
MG BCs:     Elided blocks (gridpoints):    171242 (  175652149).
MG BCs: Computational effort saved:  99.9807%.
MG BCs: Charge after coarse-graining:           -9.0009595.
MG DL_MG: Calling solver with defect correction order = 8
MG DL_MG: Solver finished
MG Hartree energy from (\int phi*rho dr):              1208.768567
MG Hartree energy from (\int eps (grad phi)^2 dr):     1208.585905
MG Discrepancy due to finite box and discretization:     -0.182662 (  -0.01511%)
MG Correction to account for finite box:                  0.006415
MG Remaining discrepancy, due to discretization:         -0.176248 (  -0.01458%)
     Trial step:       0.175443541456
             Q1:  -11679.421819932410
 Quadratic coef:       0.000000000509
 Linear coef   :      -0.000000000509
           Qmin:  -11679.421819932537
Quadratic minimum step length (  0.087685125702) accepted
    Initial Ne1:    7192.00000000
      Final Ne1:    7192.00000000

=================== Penalty functional idempotency correction ==================
 RMS occupancy error at iteration   1:  0.000000 (step -0.5000 Ne1=   7192.0000)
            Final RMS occupancy error   :  0.000000 (Ne1=   7192.0000)
               Final occupancy bounds   : [ -0.0000,  1.0000]
================================================================================

    9        -1.167942181993E+04     8.2811E-09     7.4901E-09    -1.1642E-10

Reusing previously generated solute cavity.
MG BCs: +ve charge blocks (gridpoints):     29398 (   19580143).
MG BCs: -ve charge blocks (gridpoints):      8545 (    1064173).
MG BCs:     Elided blocks (gridpoints):    171242 (  175652149).
MG BCs: Computational effort saved:  99.9807%.
MG BCs: Charge after coarse-graining:           -9.0009595.
MG DL_MG: Calling solver with defect correction order = 8
MG DL_MG: Solver finished
MG Hartree energy from (\int phi*rho dr):              1208.768567
MG Hartree energy from (\int eps (grad phi)^2 dr):     1208.585904
MG Discrepancy due to finite box and discretization:     -0.182662 (  -0.01511%)
MG Correction to account for finite box:                  0.006415
MG Remaining discrepancy, due to discretization:         -0.176248 (  -0.01458%)
      ideal mu1:      -0.480515486541
   10        -1.167942181993E+04     7.3121E-09     6.6136E-09     0.0000E+00
Finished density kernel iterations (  10)

Writing density kernel to file "host_36201.dkn" ... done


>>> Density kernel optimised for the current NGWF basis:
     ~~~~~~~~~~~~~~~~~~~~~~~~~~~~~~~~~~~~~~~~~~~~~~~~~~~~~~~~~~~
     Total energy                =  -1.16794218199324E+04  Eh
     Estimated bandgap           =   7.6356E-02  Eh
     RMS occupancy error         =   3.4360E-16
     [H,K] commutator            =   6.6136E-09
     Occupancy bounds            = [  0.000:  1.000]
     ~~~~~~~~~~~~~~~~~~~~~~~~~~~~~~~~~~~~~~~~~~~~~~~~~~~~~~~~~~~




################################################################################
########################### NGWF CG iteration  005 #############################
################################################################################
****** Reciprocal space K.E. preconditioning with k_zero =  3.5000 a0^-1 *******

>>> Checking for convergence of NGWFs: 
           ........................................................
           |         *** NGWF optimisation converged ***          |
           | RMS NGWF gradient =    0.00000098512964              |
           | Criteria satisfied:                                  |
           | -> RMS NGWF gradient lower than set threshold.       |
           ========================================================

Reusing previously generated solute cavity.
MG BCs: +ve charge blocks (gridpoints):     29398 (   19580143).
MG BCs: -ve charge blocks (gridpoints):      8545 (    1064173).
MG BCs:     Elided blocks (gridpoints):    171242 (  175652149).
MG BCs: Computational effort saved:  99.9807%.
MG BCs: Charge after coarse-graining:           -9.0009595.
MG DL_MG: Calling solver with defect correction order = 8
MG DL_MG: Solver finished
MG Hartree energy from (\int phi*rho dr):              1208.768567
MG Hartree energy from (\int eps (grad phi)^2 dr):     1208.585904
MG Discrepancy due to finite box and discretization:     -0.182662 (  -0.01511%)
MG Correction to account for finite box:                  0.006415
MG Remaining discrepancy, due to discretization:         -0.176248 (  -0.01458%)

================================================================================
           ---------------- ENERGY COMPONENTS (Eh) ----------------
           | Kinetic                    :     8531.07067252895467 |
           | Pseudo. (local,OBC,corr'd) :    -5052.94647072606949 |
           | Pseudopotential (non-local):     1402.69667217162714 |
           | Hartree (molecular)        :     1208.76856652006495 |
           | Exchange-correlation       :    -3357.37211341988859 |
           | Ion-ion (open BC)          :   826333.31286383036058 |
           | Dispersion Correction      :       -3.19841825206233 |
           | Smeared ion non-self corr. :  -826285.25832211715169 |
           | Smeared ion self corr.     :   -14457.16956389741972 |
           | Solvent cavitation energy  :        2.39898044716837 |
           | Solute-solvent dis-rep en. :       -1.72468701798052 |
           | Total                      :   -11679.42181993247323 |
           --------------------------------------------------------
           ------ LOCAL ENERGY COMPONENTS FROM MATRIX TRACES ------
           | Pseudopotential (local)    :    -5052.94647072607950 |
           | Hartree                    :    -1987.85484895814807 |
           --------------------------------------------------------
           Integrated density           :     7191.99999999723786
           Integrated density tr(KS)    :     7192.00000000000000
================================================================================


                        <<<<< CALCULATION SUMMARY >>>>>                         
|ITER|    RMS GRADIENT   |     TOTAL ENERGY    |   step   |     Epredicted              
   0     0.00004132577186 -11679.35195588949136   0.642841 -11679.41255178071333        
   1     0.00000974850182 -11679.42127125302795   0.086558 -11679.42172527975526        
   2     0.00000453432743 -11679.42179606645368   0.017557 -11679.42181598999014        
   3     0.00000212575911 -11679.42181879444979   0.003923 -11679.42181977294058        
   4     0.00000098512964 -11679.42181993240956  <-- CG                                 

=================== Finished the calculation in solvent ========================
= Adjusting the following parameters: 
= read_denskern: F
= read_tightbox_ngwfs: F
= maxit_pen: 0 (restored to user-specified value)
= restart read filename prefix: ""
= restart write filename prefix: ""
================================================================================

================================================================================
IS: Calculation in solvent completed (NGWFs converged).      

Individual components of total energy in solvent:     hartree           kcal/mol
- Usual non-electrostatic DFT terms:    -12888.86467988166078    -8087884.521076
- Electrostatic fixed charge energy:      1208.76856652006495      758513.710985
- Apolar cavitation energy:                  2.39898044716837        1505.382926
- Apolar dispersion-repulsion energy:       -1.72468701798052       -1082.257420
 -------------------------------------------------------------------------------
- Total energy in solvent:              -11679.42181993240956    -7328947.684585

Components of total energy in solvent:                hartree           kcal/mol
- Usual non-electrostatic DFT terms:    -12888.86467988166078    -8087884.521076
- Electrostatic energy:                   1208.76856652006495      758513.710985
- Apolar energy terms:                       0.67429342918785         423.125506
 -------------------------------------------------------------------------------
- Total energy in solvent:              -11679.42181993240956    -7328947.684585

Calculation of free energy of solvation:              hartree           kcal/mol
- Total energy in solvent:         (+)  -11679.42181993240956    -7328947.684585
- Total energy in vacuum:          (-)  -11675.40719372231979    -7326428.468658
 -------------------------------------------------------------------------------
- Total free energy of solvation:           -4.01462621008977       -2519.215927

Components of polar term in f.e. of solvation:        hartree           kcal/mol
- Electrostatic:                            -4.75035399335411       -2980.892071
- Change in nonelectrostatic DFT terms:      0.06143435407830          38.550638
 -------------------------------------------------------------------------------
- Polar term in f.e. of solvation:          -4.68891963927581       -2942.341433

Components of free energy of solvation:               hartree           kcal/mol
- Polar term in f.e. of solvation: (+)      -4.68891963927581       -2942.341433
- Apolar (cavitation, dis., rep.): (+)       0.67429342918785         423.125506
 -------------------------------------------------------------------------------
- Total free energy of solvation:           -4.01462621008796       -2519.215927
================================================================================


------------------------------ TIMING INFORMATION ------------------------------
AVERAGE TIME:   37167.245s on     30 node(s)                                    
TOTAL TIME:     37167.253s on     30 node(s)                                    
================= AVERAGE TIMINGS FROM ALL NODES (CUMULATIVE) ==================
|| TAG                                    #calls    cpu time   %total  Gflops ||
|| work_imbalance                       :     1        0.00s   0.000%  ------ ||
|| parallel_prepare_fd_halos_request    :  2079        0.05s   0.000%  ------ ||
|| sparse_set_to_garbage                :   188        0.05s   0.000%  ------ ||
|| parallel_prepare_fd_halos_alloc      :  2079        0.07s   0.000%  ------ ||
|| ngwfs_initialise_from_radial         :     1        0.23s   0.001%  ------ ||
|| basis_extract_function_from_box      :  7589        0.35s   0.001%  ------ ||
|| parallel_prepare_fd_halos_satisfy    :  2079        0.76s   0.002%  ------ ||
|| pseudopotentials_nonlocal_mat        :    32        0.84s   0.002%  ------ ||
|| restart_ngwfs_tightbox_input         :     1        1.29s   0.003%  ------ ||
|| density_init_guess_real              :     1        4.78s   0.013%  ------ ||
|| openbc_locps_radial                  :     1        6.91s   0.019%  ------ ||
|| parallel_prepare_fd_halos_comms_imbal:  2079        6.93s   0.019%  ------ ||
|| restart_kernel_read                  :     1        6.95s   0.019%  ------ ||
|| parallel_prepare_fd_halos_clear      :  2079       14.63s   0.039%  ------ ||
|| sparse_init                          :     2       22.77s   0.061%  ------ ||
|| projectors_func_ovlp_box             :    32       29.07s   0.078%  ------ ||
|| parallel_prepare_fd_halos_comms_wait :  2079       30.60s   0.082%  ------ ||
|| function_ops_brappd_ketppd           :    32       30.61s   0.082%  ------ ||
|| projectors_init_fftbox_recip         :   270       36.33s   0.098%  ------ ||
|| palser_mano_kernel_optimise          :     1       41.33s   0.111%  ------ ||
|| restart_kernel_write                 :    18       44.86s   0.121%  ------ ||
|| parallel_prepare_fd_halos            :  2079       53.03s   0.143%  ------ ||
|| basis_copy_function_to_box           : 123.8k      56.91s   0.153%  ------ ||
|| fourier_apply_box_pair               : 10855       68.09s   0.183% 491.547 ||
|| ngwf_gradient_coeffs                 :    17       71.47s   0.192%  ------ ||
|| restart_ngwfs_tightbox_output        :    15       86.69s   0.233%  ------ ||
|| sparse_embed_hotelling_invert_embed  :    32      101.22s   0.272%  ------ ||
|| pseudo_make_structure_factor         :     2      111.15s   0.299%  ------ ||
|| sparse_trace                         :  5492      142.20s   0.383%  ------ ||
|| finite_difference_derivative         :  2079      153.60s   0.413%  ------ ||
|| integrals_kinetic                    :    32      206.68s   0.556%  ------ ||
|| projectors_gradient_batch            :   238      284.48s   0.765%  ------ ||
|| fourier_apply_cell_backward          :  1387      296.77s   0.798%  64.557 ||
|| fourier_apply_cell_forward           :  1385      300.49s   0.808%  63.665 ||
|| openbc_locps_on_grid                 :     2      304.92s   0.820%  ------ ||
|| basis_dot_function_with_box          : 18.56M     317.15s   0.853%  ------ ||
|| kernel_purify                        :   528      382.26s   1.028%  ------ ||
|| hamiltonian_energy_components        :     4      565.84s   1.522%  ------ ||
|| lnv_gradient_norm                    :   170      576.08s   1.550%  ------ ||
|| kernel_fix                           :   170      616.97s   1.660%  ------ ||
|| basis_add_function_to_box            : 38.97M     676.98s   1.821%  ------ ||
|| xc_energy_potential                  :   346      713.80s   1.921%  ------ ||
|| ngwf_gradient_build_batch            :   238     1141.37s   3.071%  ------ ||
|| cell_grid_extract_box_real           : 64855     1224.78s   3.295%  ------ ||
|| cell_grid_deposit_box_real           : 77029     1342.62s   3.612%  ------ ||
|| integrals_locpot_mat_els_batch       :  2506     1371.94s   3.691%  ------ ||
|| ngwf_gradient_batch                  :   238     1544.43s   4.155%  ------ ||
|| density_batch_row_sums               :  4830     1569.48s   4.223%  ------ ||
|| ngwf_gradient_lnv                    :    17     1810.07s   4.870%  ------ ||
|| sparse_product                       :  6977     2367.57s   6.370%  ------ ||
|| density_fftbox_deposit_to_cell       : 74865     2562.51s   6.895%  ------ ||
|| multigrid_prepare_bound_cond         :   346     3710.03s   9.982%  ------ ||
|| potential_apply_to_ngwf_batch        :  2506     4841.24s  13.026%  ------ ||
|| density_fftbox_interpolate_multiply  : 74865     5564.65s  14.972%  ------ ||
|| integrals_locpot_dbl_grid            :   179     6221.43s  16.739%  ------ ||
|| fourier_apply_box                    : 258.2k    6653.48s  17.901% 580.074 ||
|| dl_mg_solver_calls                   :   346     8635.09s  23.233%  ------ ||
|| density_batch_interp_deposit         :  4830     8886.67s  23.910%  ------ ||
|| density_on_dbl_grid                  :   345    11545.41s  31.063%  ------ ||
|| multigrid_calculate_hartree          :   346    12551.99s  33.772%  ------ ||
|| hamiltonian_lhxc_calculate           :   341    24697.47s  66.450%  ------ ||
|| lnv_denskernel_optimise_cg           :    17    31900.55s  85.830%  ------ ||
|| ngwf_cg_optimise                     :     2    35973.95s  96.789%  ------ ||
|| total_time                           :     1    37167.24s 100.000%  ------ ||
================================================================================
Overhead of generating timer report: 
- 0 ms averaging over threads,
- 5 ms ensuring consistency across MPI ranks,
- 0 ms printing in order.

Job completed: 25-01-2020 08:26 (-0000)

