 +---------------------------------------------------------------+
 |                                                               |
 |        ####### #     # ####### ####### ####### ######         |
 |        #     # ##    # #          #    #       #     #        |
 |        #     # # #   # #          #    #       #     #        |
 |        #     # #  #  # #####      #    #####   ######         |
 |        #     # #   # # #          #    #       #              |
 |        #     # #    ## #          #    #       #              |
 |        ####### #     # #######    #    ####### #              |
 |                                                               |
 |        Linear-Scaling Ab Initio Total Energy Program          |
 |                                                               |
 |          Release for academic collaborators of ODG            |
 |                                             Version 5.3.2.6.  |
 |                                                               |
 +---------------------------------------------------------------+
 |                                                               |
 |  Authors:                                                     |
 |  Jacek Dziedzic, Peter D. Haynes, Nicholas D. M. Hine,        |
 |  Arash. A. Mostofi, Mike C. Payne and Chris-Kriton Skylaris   |
 |                                                               |
 |  Contributors:                                                |
 |  J. Aarons, L. Andrinopoulos, P. W. Avraam, R. A. Bell,       |
 |  A. Bhandari, G. A. Bramley, R. J. Charlton, S. J. Clark,     |
 |  R. J. Clements, G. C. Constantinescu, F. Corsetti,           |
 |  N. Corsini, O. Dieguez, S. M. M. Dubois, K. K. B. Duff,      |
 |  J. M. Escartin, A. Greco, H. Helal, Q. O. Hill, L. P. Lee,   |
 |  J.-H. Li, E. B. Linscott, G. Moynihan, D. D. O`Regan,        |
 |  O. K. Okan, M. J. S. Phipps, C. J. Pickard,                  |
 |  J. C. A. Prentice, M. I. J. Probert, L. E. Ratcliff,         |
 |  M. Robinson, A. Ruiz Serrano, J. S. Spencer, E. W. Tait,     |
 |  G. Teobaldi, D. Turban, V. Vitale, K. A. Wilkinson,          |
 |  C. Weber, J. C. Womack, N. Yeung and T. J. Zuehlsdorff       |
 |                                                               |
 |                                   Copyright (c) 2004-2019     |
 |                                                               |
 |  Please cite:                                                 |
 |  "Introducing ONETEP: Linear-scaling density functional       |
 |   simulations on parallel computers".                         |
 |   C.-K. Skylaris, P. D. Haynes, A. A. Mostofi, M. C. Payne.   |
 |   J. Chem. Phys. 122 084119 (2005).                           |
 |                                                               |
 |          in all publications arising from your use of ONETEP. |
 |                                                               |
 +---------------------------------------------------------------+
 |                                                               |
 |   ONETEP is based on developments described in the following  |
 |   publications:                                               |
 |                                                               |
 |  "Nonorthogonal generalized Wannier function pseudopotential  |
 |   plane-wave method".                                         |
 |   C.-K. Skylaris, A. A. Mostofi, P. D. Haynes, O. Dieguez,    |
 |   M. C. Payne.                                                |
 |   Phys. Rev. B 66 035119 (2002).                              |
 |                                                               |
 |  "Preconditioned iterative minimization for linear-scaling    |
 |   electronic structure calculations".                         |
 |   A. A. Mostofi, P. D. Haynes, C.-K. Skylaris, M. C. Payne.   |
 |   J. Chem. Phys. 119(17), pp.8842-8848 (2003).                |
 |                                                               |
 |  "Total-energy calculations on a real space grid with         |
 |   localized functions and a plane-wave basis".                |
 |   A. A. Mostofi, C.-K. Skylaris, P. D. Haynes, M. C. Payne.   |
 |   Comput. Phys. Commun. 147, pp.788-802 (2002).               |
 |                                                               |
 |  "Accurate kinetic energy evaluation in electronic structure  |
 |   calculations with localized functions on real space grids"  |
 |   C.-K. Skylaris, A. A. Mostofi, P. D. Haynes, C. J. Pickard, |
 |   M. C. Payne.                                                |
 |   Comput. Phys. Commun. 140, pp.315-322 (2001).               |
 |                                                               |
 |  "Accurate ionic forces and geometry optimization in linear-  |
 |   scaling density-functional theory with local orbitals"      |
 |   N. D. M. Hine, M. Robinson, P. D. Haynes, C.-K. Skylaris,   |
 |   M. C. Payne, and A. A. Mostofi.                             |
 |   Phys. Rev. B 83 195102 (2011).                              |
 |                                                               |
 +---------------------------------------------------------------+

Job started: 11-05-2020 19:44 (+0100)
 
Reading parameters from file "host_28221.dat" ...... done

If your calculation crashes here, before "Checking processes and threads..."
is displayed, then your stack size is insufficient.
If so, use "ulimit -s unlimited" at runtime.
You can disable this check with "check_stack_size F".

Checking processes and threads...
   Determining the default number of threads...
      No default threads set at compilation time: defaulting to 1.
      OpenMP library call suggests 4 threads.
      Hybrid MPI-OpenMP compilation detected.
      Number of MPI processes > 1.
      OMP_NUM_THREADS environment variable present and
      its value matches the one obtained from the OpenMP library call.
      Using this value as default.
      Default threads: 4
      Default applies to threads_max and threads_num_fftboxes.
      Settings in the input file override this default.
   ... done

   Running with 40 MPI processes.
   There are 10 MPI processes running on the same node as the root process.
   Each MPI process is using: 
               1 threads for simulation cell FFTs.
               1 threads for parallel FFT box operations.
               4 threads for loops over batched FFT box operations.
               4 threads in other parallel regions.
... done

Basic input checks...... done

Reading geometry and species blocks from file "host_28221.dat" ...
  <species_atomic_set> block not found: NGWF initialisation set to SOLVE
IS: Dielectric excluded regions:
    - NONE.
    
  Number of PPD points along a3 set to 1.  This is 
  the default value, it may have been provided also in the input file.
... done
 Writing xyz coordinates to file "host_28221.xyz" ... done


--------------------------------------------------------------------------------
---------------------------------- INPUT FILE ----------------------------------
--------------------------------------------------------------------------------

cutoff_energy       : 800 eV                                                    
xc_functional PBE                                                               
task SINGLEPOINT                                                                
write_xyz true                                                                  
output_detail VERBOSE                                                           
ngwf_threshold_orig : 0.000002                                                  
kernel_cutoff       : 1000                                                      
k_zero              : 3.5                                                       
elec_cg_max 0                                                                   
occ_mix 1.0                                                                     
dispersion 1                                                                    
maxit_ngwf_cg 40                                                                
minit_lnv 10                                                                    
maxit_lnv 10                                                                    
write_denskern T                                                                
write_tightbox_ngwfs T                                                          
charge 9                                                                        
is_implicit_solvent T                                                           
is_auto_solvation T                                                             
is_include_apolar T                                                             
is_smeared_ion_rep T                                                            
is_solvent_surf_tension 4.7624E-5 Ha/bohr**2                                    
is_apolar_scaling_factor 0.281075                                               
is_solvation_beta 1.3                                                           
is_density_threshold 0.00035                                                    
is_bulk_permittivity 78.54                                                      
is_dielectric_model fix_initial                                                 
is_smeared_ion_width 0.8                                                        
mg_defco_fd_order 8                                                             
is_bc_coarseness 10                                                             
is_bc_surface_coarseness 1                                                      
fine_grid_scale 2.0                                                             
%block species                                                                  
N   N   7 4 8.0                                                                 
H   H   1 1 8.0                                                                 
C   C   6 4 8.0                                                                 
S   S  16 9 8.0                                                                 
O   O   8 4 8.0                                                                 
%endblock species                                                               
%block species_pot                                                              
N   N_00.recpot                                                                 
H   H_04.recpot                                                                 
C   C_01.recpot                                                                 
S   S_00.recpot                                                                 
O   O_02.recpot                                                                 
%endblock species_pot                                                           
%block lattice_cart                                                             
137.614   0.000   0.000                                                         
0.000 142.646   0.000                                                           
0.000   0.000   160.855                                                         
%endblock lattice_cart                                                          
%block positions_abs                                                            
     Hash =   000008801681466657602516
%endblock positions_abs                                                         

--------------------------------------------------------------------------------
-------------------------------- END INPUT FILE --------------------------------
--------------------------------------------------------------------------------


 
 ESDF WARNING(1): "kernelcutoff" (esdf_physical) has no units. Assume "bohr".
 ESDF WARNING(2): "kzero" (esdf_physical) has no units. Assume "1/bohr".
 ESDF WARNING(3
 ): "issmearedionwidth" (esdf_physical) has no units. Assume "bohr".
<<<<<<<<<<<<<<<<<<<<<<<<<<<<<<<<< Full system >>>>>>>>>>>>>>>>>>>>>>>>>>>>>>>>>>
<<<<<<<<<<<<<<<<<<<<<<<<< Pseudopotential information >>>>>>>>>>>>>>>>>>>>>>>>>>
File: N_00.recpot [ 2001 points up to Gmax=  52.9 (1/bohr)]
  Atomic number:  7;  ionic charge:  5.000000
    Shell 1: l = 0; rc = 1.48 bohr
File: H_04.recpot [ 2001 points up to Gmax=  52.9 (1/bohr)]
  Atomic number:  1;  ionic charge:  1.000000
    Local potential
File: C_01.recpot [ 2001 points up to Gmax=  52.9 (1/bohr)]
  Atomic number:  6;  ionic charge:  4.000000
    Shell 1: l = 0; rc = 1.48 bohr
File: S_00.recpot [ 2001 points up to Gmax=  52.9 (1/bohr)]
  Atomic number: 16;  ionic charge:  6.000000
    Shell 1: l = 0; rc = 1.90 bohr
    Shell 2: l = 2; rc = 1.84 bohr
File: O_02.recpot [ 2001 points up to Gmax=  52.9 (1/bohr)]
  Atomic number:  8;  ionic charge:  6.000000
    Shell 1: l = 0; rc = 1.31 bohr
<<<<<<<<<<<<<<<<<<<<<<<<<<<<<<<<<<<<<<<<>>>>>>>>>>>>>>>>>>>>>>>>>>>>>>>>>>>>>>>>

-------------------------- Atom counting information ---------------------------
Symbol    Natoms    Nngwfs    Nprojs
  N        236       944       236
  H       1311      1311         0
  C        810      3240       810
  S          6        54        36
  O        239       956       239
.......   ......    ......    ......
Totals:   2602      6505      1321
--------------------------------------------------------------------------------

=============================== PSINC grid sizes ===============================
                      Simulation cell:  273 x 286 x 320
                              FFT-box:   99 x 105 x  99
                                  PPD:    7 x  11 x   1
Grid space d1=  0.504080586081a0 (KE cutoff=  29.89538Eh = 813.49465eV)
Grid space d2=  0.498762237762a0 (KE cutoff=  30.53633Eh = 830.93588eV)
Grid space d3=  0.502671875000a0 (KE cutoff=  30.06317Eh = 818.06059eV)
================================================================================

********************* Fourier parallelisation information **********************
       Coarse grid (whole simulation cell) dimensions:    273   286   320
          Real-space ('12') slabs/node (min max mean):      8     8     8
         Recip-space ('23') slabs/node (min max mean):      3     4     3
********************************************************************************

********************* Fourier parallelisation information **********************
       Double grid (whole simulation cell) dimensions:    546   572   640
          Real-space ('12') slabs/node (min max mean):     16    16    16
         Recip-space ('23') slabs/node (min max mean):      6     7     6
********************************************************************************
ONETEP fine grid is 546 x 572 x 640 gridpoints, 137.6140 x 142.6460 x 160.8550 bohr.
FD multigrid is     545 x 569 x 633 gridpoints, 137.3620 x 141.8979 x 159.0956 bohr.


Calculating local pseudopotential in open BC on a radial grid ...
Discrepancy between calculated realspace psloc and -Z/x on [5a0,255.264a0]:
max |rel. diff| # avg |rel. diff| #  avg rel. diff #  f # pseudopotential file
 0.000296759711    0.000009439468   0.000000085927   54  'N_00.recpot'
 0.000490027943    0.000021572324  -0.000000031900   54  'H_04.recpot'
 0.000320795249    0.000014598087   0.000000111901   54  'C_01.recpot'
 0.000388730920    0.000016096375   0.000000514750   54  'S_00.recpot'
 0.000828383344    0.000035421288   0.000000087443   54  'O_02.recpot'
... done

Atom SCF Calculation for N  : Z (AE atom) =   7 : Z (PS atom) =   5
Config String:
Orbitals (num,occ):  2     2.00 3.00
Orbitals   (num,l):  2        0    1
Real-space Grid (nr,dr,rmax): 1203    0.0066555740    8.0000000000
Spherical Bessel Basis (nsws,lmax,cutoff):   47    1  176.3951722778
Confining potential (l,width,scale):  0    3.0000000000  100.0000000000
Confining potential (l,width,scale):  1    3.0000000000  100.0000000000
  1         -4.7312375307   -3.4155304497    7.0523828109   -1.9351020946
  2         -9.7309464766   -2.0532547791    8.2966052865   -2.2494486027
  3         -9.6627394379   -2.1124926340    8.2327997121   -2.2369778124
  4         -9.6814993499   -2.1215521045    8.2229805960   -2.2365178421
  5         -9.6843326483   -2.1250939529    8.2191374534   -2.2362718126
  6         -9.6859628709   -2.1267894855    8.2172963573   -2.2362066344
  7         -9.6867347035   -2.1276425665    8.2163697352   -2.2361903369
  8         -9.6870802100   -2.1280764625    8.2158983890   -2.2361891460
  9         -9.6872290423   -2.1282977424    8.2156580222   -2.2361920435
 10         -9.6872901988   -2.1284107021    8.2155353368   -2.2361953393
 11         -9.6873135296   -2.1284684031    8.2154726809   -2.2361979819
 12         -9.6873212476   -2.1284978948    8.2154406648   -2.2361998431
 13         -9.6873229586   -2.1285129774    8.2154242957   -2.2362010676
 14         -9.6873226456   -2.1285206957    8.2154159216   -2.2362018403
 15         -9.6873218534   -2.1285246479    8.2154116349   -2.2362023142
 16         -9.6873212599   -2.1285262679    8.2154098784   -2.2362025420
 17         -9.6873207834   -2.1285272564    8.2154088068   -2.2362026955
 18         -9.6873204210   -2.1285278597    8.2154081529   -2.2362027982
 19         -9.6873201550   -2.1285282280    8.2154077538   -2.2362028667
 20         -9.6873199645   -2.1285284529    8.2154075102   -2.2362029121
 21         -9.6873198305   -2.1285285903    8.2154073614   -2.2362029421
 22         -9.6873197377   -2.1285286742    8.2154072705   -2.2362029618
Atom SCF converged after  22 iterations to a total energy of     -9.68731974

Atom SCF Calculation for H  : Z (AE atom) =   1 : Z (PS atom) =   1
Config String:
Orbitals (num,occ):  1     1.00
Orbitals   (num,l):  1        0
Real-space Grid (nr,dr,rmax): 1203    0.0066555740    8.0000000000
Spherical Bessel Basis (nsws,lmax,cutoff):   47    0  176.3951722778
Confining potential (l,width,scale):  0    3.0000000000  100.0000000000
  1         -0.3194257691   -0.2393854593    0.2820953124   -0.2424203209
  2         -0.3951823392   -0.2377116493    0.2886404059   -0.2475147891
  3         -0.4317044583   -0.2352244387    0.2921333887   -0.2514046172
  4         -0.4470703708   -0.2341892222    0.2934391879   -0.2531009782
  5         -0.4532132900   -0.2338556667    0.2938388426   -0.2537313520
  6         -0.4556579251   -0.2337612552    0.2939448584   -0.2539550462
  7         -0.4566418315   -0.2337377355    0.2939680120   -0.2540342273
  8         -0.4570437922   -0.2337331116    0.2939708287   -0.2540627372
  9         -0.4572102946   -0.2337328328    0.2939698291   -0.2540732650
 10         -0.4572800424   -0.2337332404    0.2939687193   -0.2540772588
 11         -0.4573095100   -0.2337335791    0.2939680317   -0.2540788122
 12         -0.4573220379   -0.2337337762    0.2939676699   -0.2540794294
 13         -0.4573273880   -0.2337338775    0.2939674931   -0.2540796787
 14         -0.4573296803   -0.2337339266    0.2939674099   -0.2540797808
 15         -0.4573306647   -0.2337339495    0.2939673718   -0.2540798230
 16         -0.4573310882   -0.2337339601    0.2939673545   -0.2540798406
 17         -0.4573312706   -0.2337339649    0.2939673467   -0.2540798479
 18         -0.4573313493   -0.2337339670    0.2939673433   -0.2540798510
Atom SCF converged after  18 iterations to a total energy of     -0.45733135

Atom SCF Calculation for C  : Z (AE atom) =   6 : Z (PS atom) =   4
Config String:
Orbitals (num,occ):  2     2.00 2.00
Orbitals   (num,l):  2        0    1
Real-space Grid (nr,dr,rmax): 1203    0.0066555740    8.0000000000
Spherical Bessel Basis (nsws,lmax,cutoff):   47    1  176.3951722778
Confining potential (l,width,scale):  0    3.0000000000  100.0000000000
Confining potential (l,width,scale):  1    3.0000000000  100.0000000000
  1         -5.2976922011   -1.3069684169    4.5135249990   -1.4493313817
  2         -5.3721716256   -1.3429755895    4.4750154450   -1.4361613026
  3         -5.3809959565   -1.3617365618    4.4541655428   -1.4305930207
  4         -5.3918938866   -1.3667928461    4.4484735100   -1.4294652294
  5         -5.3956096428   -1.3688539142    4.4461376126   -1.4290734646
  6         -5.3968271862   -1.3696852393    4.4451910874   -1.4289366866
  7         -5.3972028401   -1.3700178062    4.4448112275   -1.4288900460
  8         -5.3973067903   -1.3701500158    4.4446598370   -1.4288749220
  9         -5.3973286940   -1.3702023868    4.4445997329   -1.4288704293
 10         -5.3973289850   -1.3702230869    4.4445759233   -1.4288693188
 11         -5.3973254264   -1.3702312560    4.4445665049   -1.4288691775
 12         -5.3973224003   -1.3702344755    4.4445627836   -1.4288692549
 13         -5.3973208708   -1.3702354890    4.4445616088   -1.4288693270
 14         -5.3973198783   -1.3702360102    4.4445610034   -1.4288693814
 15         -5.3973192535   -1.3702362780    4.4445606917   -1.4288694190
 16         -5.3973188684   -1.3702364155    4.4445605313   -1.4288694437
 17         -5.3973186349   -1.3702364860    4.4445604489   -1.4288694595
 18         -5.3973184951   -1.3702365221    4.4445604065   -1.4288694693
 19         -5.3973184122   -1.3702365405    4.4445603848   -1.4288694753
Atom SCF converged after  19 iterations to a total energy of     -5.39731841

Atom SCF Calculation for S  : Z (AE atom) =  16 : Z (PS atom) =   6
Config String:
Orbitals (num,occ):  3     2.00 4.00 0.00
Orbitals   (num,l):  3        0    1    2
Real-space Grid (nr,dr,rmax): 1203    0.0066555740    8.0000000000
Spherical Bessel Basis (nsws,lmax,cutoff):   47    2  176.3951722778
Confining potential (l,width,scale):  0    3.0000000000  100.0000000000
Confining potential (l,width,scale):  1    3.0000000000  100.0000000000
Confining potential (l,width,scale):  2    3.0000000000  100.0000000000
  1        -12.4735062396   -1.0328741412   10.1554312477   -2.4512393157
  2         -9.9458301913   -2.4607392455    8.3041325857   -2.0306994528
  3        -10.1450417646   -2.2931184565    8.4831893826   -2.0812538287
  4        -10.1528335592   -2.2733105793    8.5050388867   -2.0896035179
  5        -10.1571940363   -2.2633716629    8.5160794258   -2.0939370707
  6        -10.1594380571   -2.2584938667    8.5215163935   -2.0961289008
  7        -10.1605856507   -2.2561081821    8.5241804044   -2.0972291378
  8        -10.1611799191   -2.2549395235    8.5254868240   -2.0977806248
  9        -10.1614918752   -2.2543658586    8.5261285885   -2.0980571586
 10        -10.1616572884   -2.2540839121    8.5264441898   -2.0981959233
 11        -10.1617455602   -2.2539453058    8.5265994231   -2.0982656006
 12        -10.1617928447   -2.2538772062    8.5266757320   -2.0983006047
 13        -10.1618182292   -2.2538437891    8.5267131983   -2.0983181961
 14        -10.1618318741   -2.2538274201    8.5267315620   -2.0983270391
 15        -10.1618392144   -2.2538194197    8.5267405433   -2.0983314852
 16        -10.1618431651   -2.2538155200    8.5267449245   -2.0983337210
 17        -10.1618452923   -2.2538136252    8.5267470551   -2.0983348455
 18        -10.1618464380   -2.2538127080    8.5267480875   -2.0983354110
 19        -10.1618470552   -2.2538122659    8.5267485856   -2.0983356955
 20        -10.1618473878   -2.2538120540    8.5267488248   -2.0983358386
 21        -10.1618475670   -2.2538119530    8.5267489389   -2.0983359106
 22        -10.1618476637   -2.2538119053    8.5267489929   -2.0983359468
Atom SCF converged after  22 iterations to a total energy of    -10.16184766

Atom SCF Calculation for O  : Z (AE atom) =   8 : Z (PS atom) =   6
Config String:
Orbitals (num,occ):  2     2.00 4.00
Orbitals   (num,l):  2        0    1
Real-space Grid (nr,dr,rmax): 1203    0.0066555740    8.0000000000
Spherical Bessel Basis (nsws,lmax,cutoff):   47    1  176.3951722778
Confining potential (l,width,scale):  0    3.0000000000  100.0000000000
Confining potential (l,width,scale):  1    3.0000000000  100.0000000000
  1         -1.8735052164   -7.5539365035   10.1554312477   -2.4512393157
  2        -16.0318313751   -3.1285771268   13.6395848164   -3.2358799643
  3        -15.9524020423   -3.0762819706   13.6967272503   -3.2536856837
  4        -15.8521515939   -3.0781493909   13.6951909330   -3.2561700440
  5        -15.8357139793   -3.0748501933   13.6988803334   -3.2580493133
  6        -15.8246052853   -3.0740779781   13.6997881576   -3.2588327446
  7        -15.8189019501   -3.0737449687   13.7001869911   -3.2592378801
  8        -15.8159785510   -3.0736026016   13.7003615168   -3.2594475790
  9        -15.8144776168   -3.0735437994   13.7004360379   -3.2595560735
 10        -15.8137058024   -3.0735207882   13.7004667348   -3.2596122456
 11        -15.8133083127   -3.0735125946   13.7004786868   -3.2596413656
 12        -15.8131032938   -3.0735102195   13.7004828997   -3.2596564858
 13        -15.8129973902   -3.0735099286   13.7004840891   -3.2596643505
 14        -15.8129426040   -3.0735102506   13.7004842061   -3.2596684489
 15        -15.8129142203   -3.0735106556   13.7004840157   -3.2596705887
 16        -15.8128994940   -3.0735109855   13.7004837906   -3.2596717080
 17        -15.8128918425   -3.0735112169   13.7004836103   -3.2596722946
 18        -15.8128878614   -3.0735113674   13.7004834848   -3.2596726026
 19        -15.8128857871   -3.0735114608   13.7004834035   -3.2596727646
 20        -15.8128847048   -3.0735115170   13.7004833533   -3.2596728500
 21        -15.8128841394   -3.0735115501   13.7004833231   -3.2596728951
 22        -15.8128838436   -3.0735115693   13.7004833054   -3.2596729190
 23        -15.8128836887   -3.0735115802   13.7004832951   -3.2596729316
 24        -15.8128836074   -3.0735115864   13.7004832893   -3.2596729383
Atom SCF converged after  24 iterations to a total energy of    -15.81288361

========================== Calculation in vacuum ==============================
= Adjusting the following parameters: 
= is_implicit_solvent: F
= is_include_apolar: F
= write_denskern: T
= write_tightbox_ngwfs: T
= restart read filename prefix: ""
= restart write filename prefix: "vacuum_"
===============================================================================

Determining parallel strategy ...
... using space-filling curve
... NGWF load balancing: max    163;  min    162;  average    163
... Projector load balancing: max     36;  min     32;  average     33
... done
Calculating direct Ion-Ion energy ...
Ion-Ion Energy        :    821736.24358762102202
======================= Empirical dispersion information =======================
Model : Elstner
Dispersion Correction Energy: -0.32332453E+01 Hartree
================================================================================
Basis initialisation ...... NGWF spheres initialised
... Projector spheres initialised
... NGWF tight boxes initialised
... Tight-boxes gathered
... NGWF basis size (local,global):    1119737  44633035
... Nonlocal pseudopotential projector initialisation
... done

========================== Sparse matrix information ===========================
                        Overlap matrix filling:   6.68%
                        Density kernel filling: 100.00%
              NGWF-Proj overlap matrix filling:   1.77%
                    Hamiltonian matrix filling:   7.52%
                  NGWF diagonal matrix filling:   0.05%
                             KS matrix filling: 100.00% 
                           KSKS matrix filling: 100.00% 
================================================================================

Sparse matrix initialisation ... done

Generating smeared ion density ... done
Smeared ion self correction:     -14457.169564
Smeared ion non-self correction: -821688.209114
NGWF initialisation ...... done
============ Calculation of NGWF S^-1 using Hotelling algorithm ================ 
         Iteration  |  Frobenius norm and Maximum abs value    (of I-S*S_n^-1)   
               1       0.78460846E+02     0.98236362E+00
               2       0.76595901E+02     0.96520426E+00
               3       0.73580534E+02     0.93222635E+00
               4       0.69302537E+02     0.87109386E+00
               5       0.63983463E+02     0.76700252E+00
               6       0.58015495E+02     0.70349736E+00
               7       0.52023886E+02     0.66929065E+00
               8       0.46482482E+02     0.64449949E+00
               9       0.40398133E+02     0.60507726E+00
              10       0.32100812E+02     0.53765761E+00
              11       0.21513934E+02     0.42870568E+00
              12       0.10939421E+02     0.27804816E+00
              13       0.35769985E+01     0.12463456E+00
              14       0.56284723E+00     0.37868589E-01
              15       0.28112842E-01     0.40667935E-02
              16       0.19626235E-03     0.50402180E-04
              17       0.24657803E-07     0.78327567E-08
              18       0.90727056E-13     0.65409917E-14
================================================================================
Calculating local pseudopotential in open BC on the fine real space grid ...
... done

MG BCs: +ve charge blocks (gridpoints):     20834 (   16346526).
MG BCs: -ve charge blocks (gridpoints):      8135 (    1095664).
MG BCs:     Elided blocks (gridpoints):    179806 (  178854275).
MG BCs: Computational effort saved:  99.9852%.
MG BCs: Charge after coarse-graining:           -9.0002348.
MG DL_MG: Calling solver with defect correction order = 8
MG DL_MG: Solver finished
MG Hartree energy from (\int phi*rho dr):              1462.524213
MG Hartree energy from (\int eps (grad phi)^2 dr):     1461.912741
MG Discrepancy due to finite box and discretization:     -0.611473 (  -0.04181%)
MG Correction to account for finite box:                  0.464579
MG Remaining discrepancy, due to discretization:         -0.146894 (  -0.01004%)
Up spin density kernel initialisation ... 
======= Optimisation of K by Palser-Manolopoulos canonical purification ======== 
         Iteration  |  Band structure energy |    c_n   
               1       -2572.15991214845417    0.5273018
               2       -2747.71422231918496    0.5173473
               3       -2928.14708970110223    0.5154720
               4       -3079.48392385537181    0.5287444
               5       -3173.12075900581476    0.5642962
               6       -3212.53579737747759    0.6092600
               7       -3225.93204945452180    0.6205070
               8       -3231.74234902087028    0.6181042
               9       -3234.55904858160920    0.6337023
              10       -3235.70170376362330    0.6622469
              11       -3236.13340506194163    0.6829979
              12       -3236.31852578140979    0.6874287
              13       -3236.41146141430363    0.6623462
              14       -3236.46648856239335    0.6007062
              15       -3236.50220898797488    0.5261681
              16       -3236.51968110929283    0.4510433
              17       -3236.52252827477423    0.4169993
              18       -3236.52286726703733    0.4434541
              19       -3236.52299998921353    0.4802386
              20       -3236.52305020414860    0.4976513
              21       -3236.52305723348763    0.4999672
              22       -3236.52305857545980    0.5000000
              23       -3236.52306045008663    0.5000000
              24       -3236.52306323358243    0.5000000
              25       -3236.52306731459248    0.5000000
              26       -3236.52307313050414    0.5000000
              27       -3236.52308091073701    0.5000000
              28       -3236.52308996463580    0.5000000
              29       -3236.52309777367554    0.5000000
              30       -3236.52310142349143    0.5000000
              31       -3236.52310195655036    0.5000000
              32       -3236.52310196586950    0.5000000
Termination criterion satisfied: band energy change below threshold.
Final occupancy bounds: [    0.00000000002758:    0.99999999999964]
Closest occupancy to 0.5:     0.99999999999987
================================================================================
... done

Writing density kernel to file "host_28221.vacuum_dkn" ... done

>>> Optimising kernel for current NGWFs:
   Initial electron number for spin 1:    7192.00000000
     Final electron number for spin 1:    7192.00000000

=================== Penalty functional idempotency correction ==================
 RMS occupancy error at iteration   1:  0.000000 (step -0.5000 Ne1=   7192.0000)
            Final RMS occupancy error   :  0.000000 (Ne1=   7192.0000)
               Final occupancy bounds   : [  0.0000,  1.0000]
================================================================================

................................................................................
<<<<<<<<<<<<<< LNV (Original version) density kernel optimisation >>>>>>>>>>>>>>
~~~~~~~~~~~~~~~~~~~~~~~~~~~~~~~~~~~~~~~~~~~~~~~~~~~~~~~~~~~~~~~~~~~~~~~~~~~~~~~~
   iter  |      energy (Eh)       | rms gradient |  commutator  |   dE (Eh)
MG BCs: +ve charge blocks (gridpoints):     31288 (   17454661).
MG BCs: -ve charge blocks (gridpoints):      8435 (    1128829).
MG BCs:     Elided blocks (gridpoints):    169345 (  177712975).
MG BCs: Computational effort saved:  99.9798%.
MG BCs: Charge after coarse-graining:           -9.0009928.
MG DL_MG: Calling solver with defect correction order = 8
MG DL_MG: Solver finished
MG Hartree energy from (\int phi*rho dr):              1418.210522
MG Hartree energy from (\int eps (grad phi)^2 dr):     1417.544469
MG Discrepancy due to finite box and discretization:     -0.666053 (  -0.04696%)
MG Correction to account for finite box:                  0.477493
MG Remaining discrepancy, due to discretization:         -0.188560 (  -0.01330%)
      ideal mu1:      -0.697955512015
             Q0:  -11507.552206037915
             G0:    -146.247622890574
   RMS gradient:       0.001859075840
MG BCs: +ve charge blocks (gridpoints):     31253 (   17535082).
MG BCs: -ve charge blocks (gridpoints):      8335 (    1108874).
MG BCs:     Elided blocks (gridpoints):    169380 (  177652509).
MG BCs: Computational effort saved:  99.9798%.
MG BCs: Charge after coarse-graining:           -9.0010126.
MG DL_MG: Calling solver with defect correction order = 8
MG DL_MG: Solver finished
MG Hartree energy from (\int phi*rho dr):              1442.368084
MG Hartree energy from (\int eps (grad phi)^2 dr):     1441.718113
MG Discrepancy due to finite box and discretization:     -0.649971 (  -0.04506%)
MG Correction to account for finite box:                  0.476898
MG Remaining discrepancy, due to discretization:         -0.173074 (  -0.01200%)
     Trial step:       0.500000000000
             Q1:  -11519.176222155453
 Quadratic coef:      61.499795327751
 Linear coef   :     -73.123811445287
           Qmin:  -11529.288423905755
Quadratic minimum step length (  0.297252255294) accepted
    Initial Ne1:    7192.00000000
      Final Ne1:    7192.00000000

=================== Penalty functional idempotency correction ==================
 RMS occupancy error at iteration   1:  0.003457 (step -0.4883 Ne1=   7192.0000)
 RMS occupancy error at iteration   2:  0.000027 (step -0.5001 Ne1=   7192.0000)
            Final RMS occupancy error   :  0.000000 (Ne1=   7192.0000)
               Final occupancy bounds   : [  0.0000,  1.0000]
================================================================================

    1        -1.150755220604E+04     1.8591E-03     1.6815E-03
MG BCs: +ve charge blocks (gridpoints):     31290 (   17504356).
MG BCs: -ve charge blocks (gridpoints):      8378 (    1117252).
MG BCs:     Elided blocks (gridpoints):    169343 (  177674857).
MG BCs: Computational effort saved:  99.9798%.
MG BCs: Charge after coarse-graining:           -9.0010042.
MG DL_MG: Calling solver with defect correction order = 8
MG DL_MG: Solver finished
MG Hartree energy from (\int phi*rho dr):              1424.566180
MG Hartree energy from (\int eps (grad phi)^2 dr):     1423.910621
MG Discrepancy due to finite box and discretization:     -0.655558 (  -0.04602%)
MG Correction to account for finite box:                  0.477027
MG Remaining discrepancy, due to discretization:         -0.178531 (  -0.01253%)
      ideal mu1:      -0.740703481033
             Q0:  -11529.701138946926
             G0:     -12.319426073214
   RMS gradient:       0.000535878209
MG BCs: +ve charge blocks (gridpoints):     31291 (   17521996).
MG BCs: -ve charge blocks (gridpoints):      8362 (    1111808).
MG BCs:     Elided blocks (gridpoints):    169342 (  177662661).
MG BCs: Computational effort saved:  99.9798%.
MG BCs: Charge after coarse-graining:           -9.0010077.
MG DL_MG: Calling solver with defect correction order = 8
MG DL_MG: Solver finished
MG Hartree energy from (\int phi*rho dr):              1429.653449
MG Hartree energy from (\int eps (grad phi)^2 dr):     1429.001741
MG Discrepancy due to finite box and discretization:     -0.651708 (  -0.04559%)
MG Correction to account for finite box:                  0.476334
MG Remaining discrepancy, due to discretization:         -0.175373 (  -0.01227%)
     Trial step:       0.385520593026
             Q1:  -11532.589211089537
 Quadratic coef:       1.861320302876
 Linear coef   :      -4.749392445487
           Qmin:  -11532.730806727157
Quadratic minimum step length (  0.491852098016) accepted
    Initial Ne1:    7191.99989874
      Final Ne1:    7192.00000000

=================== Penalty functional idempotency correction ==================
 RMS occupancy error at iteration   1:  0.001848 (step -0.4928 Ne1=   7192.0000)
 RMS occupancy error at iteration   2:  0.000013 (step -0.5003 Ne1=   7192.0000)
            Final RMS occupancy error   :  0.000000 (Ne1=   7192.0000)
               Final occupancy bounds   : [  0.0000,  1.0000]
================================================================================

    2        -1.152970113895E+04     5.3588E-04     4.8469E-04    -2.2149E+01
MG BCs: +ve charge blocks (gridpoints):     31290 (   17526814).
MG BCs: -ve charge blocks (gridpoints):      8352 (    1110344).
MG BCs:     Elided blocks (gridpoints):    169343 (  177659307).
MG BCs: Computational effort saved:  99.9798%.
MG BCs: Charge after coarse-graining:           -9.0010088.
MG DL_MG: Calling solver with defect correction order = 8
MG DL_MG: Solver finished
MG Hartree energy from (\int phi*rho dr):              1431.107179
MG Hartree energy from (\int eps (grad phi)^2 dr):     1430.456457
MG Discrepancy due to finite box and discretization:     -0.650722 (  -0.04547%)
MG Correction to account for finite box:                  0.476158
MG Remaining discrepancy, due to discretization:         -0.174564 (  -0.01220%)
      ideal mu1:      -0.764372319198
             Q0:  -11532.768654515035
             G0:      -1.977979918222
   RMS gradient:       0.000214846133
MG BCs: +ve charge blocks (gridpoints):     31298 (   17526781).
MG BCs: -ve charge blocks (gridpoints):      8356 (    1111216).
MG BCs:     Elided blocks (gridpoints):    169335 (  177658468).
MG BCs: Computational effort saved:  99.9798%.
MG BCs: Charge after coarse-graining:           -9.0010086.
MG DL_MG: Calling solver with defect correction order = 8
MG DL_MG: Solver finished
MG Hartree energy from (\int phi*rho dr):              1429.020761
MG Hartree energy from (\int eps (grad phi)^2 dr):     1428.370588
MG Discrepancy due to finite box and discretization:     -0.650173 (  -0.04550%)
MG Correction to account for finite box:                  0.475825
MG Remaining discrepancy, due to discretization:         -0.174348 (  -0.01220%)
     Trial step:       0.435452767253
             Q1:  -11533.282020387240
 Quadratic coef:       0.347950956757
 Linear coef   :      -0.861316828960
           Qmin:  -11533.301679834727
Quadratic minimum step length (  0.538959283441) accepted
    Initial Ne1:    7191.99989666
      Final Ne1:    7192.00000000

=================== Penalty functional idempotency correction ==================
 RMS occupancy error at iteration   1:  0.000706 (step -0.4945 Ne1=   7192.0000)
 RMS occupancy error at iteration   2:  0.000010 (step -0.5006 Ne1=   7192.0000)
            Final RMS occupancy error   :  0.000000 (Ne1=   7192.0000)
               Final occupancy bounds   : [  0.0000,  1.0000]
================================================================================

    3        -1.153276865452E+04     2.1485E-04     1.9432E-04    -3.0675E+00
MG BCs: +ve charge blocks (gridpoints):     31298 (   17526777).
MG BCs: -ve charge blocks (gridpoints):      8359 (    1111434).
MG BCs:     Elided blocks (gridpoints):    169335 (  177658254).
MG BCs: Computational effort saved:  99.9798%.
MG BCs: Charge after coarse-graining:           -9.0010086.
MG DL_MG: Calling solver with defect correction order = 8
MG DL_MG: Solver finished
MG Hartree energy from (\int phi*rho dr):              1428.534747
MG Hartree energy from (\int eps (grad phi)^2 dr):     1427.884691
MG Discrepancy due to finite box and discretization:     -0.650056 (  -0.04551%)
MG Correction to account for finite box:                  0.475749
MG Remaining discrepancy, due to discretization:         -0.174308 (  -0.01220%)
      ideal mu1:      -0.765803556666
             Q0:  -11533.306519696489
             G0:      -0.586567445502
   RMS gradient:       0.000117167813
MG BCs: +ve charge blocks (gridpoints):     31299 (   17527611).
MG BCs: -ve charge blocks (gridpoints):      8359 (    1111357).
MG BCs:     Elided blocks (gridpoints):    169334 (  177657497).
MG BCs: Computational effort saved:  99.9798%.
MG BCs: Charge after coarse-graining:           -9.0010087.
MG DL_MG: Calling solver with defect correction order = 8
MG DL_MG: Solver finished
MG Hartree energy from (\int phi*rho dr):              1429.767600
MG Hartree energy from (\int eps (grad phi)^2 dr):     1429.117555
MG Discrepancy due to finite box and discretization:     -0.650046 (  -0.04547%)
MG Correction to account for finite box:                  0.475668
MG Remaining discrepancy, due to discretization:         -0.174378 (  -0.01220%)
     Trial step:       0.484449493147
             Q1:  -11533.465089995530
 Quadratic coef:       0.125592002629
 Linear coef   :      -0.284162301670
           Qmin:  -11533.467254878668
Quadratic minimum step length (  0.548053538977) accepted
    Initial Ne1:    7191.99985603
      Final Ne1:    7192.00000000

=================== Penalty functional idempotency correction ==================
 RMS occupancy error at iteration   1:  0.000568 (step -0.4725 Ne1=   7192.0000)
 RMS occupancy error at iteration   2:  0.000019 (step -0.5002 Ne1=   7192.0000)
            Final RMS occupancy error   :  0.000000 (Ne1=   7192.0000)
               Final occupancy bounds   : [  0.0000,  1.0000]
================================================================================

    4        -1.153330651970E+04     1.1717E-04     1.0598E-04    -5.3787E-01
MG BCs: +ve charge blocks (gridpoints):     31297 (   17527765).
MG BCs: -ve charge blocks (gridpoints):      8361 (    1111297).
MG BCs:     Elided blocks (gridpoints):    169336 (  177657403).
MG BCs: Computational effort saved:  99.9798%.
MG BCs: Charge after coarse-graining:           -9.0010088.
MG DL_MG: Calling solver with defect correction order = 8
MG DL_MG: Solver finished
MG Hartree energy from (\int phi*rho dr):              1429.931719
MG Hartree energy from (\int eps (grad phi)^2 dr):     1429.281672
MG Discrepancy due to finite box and discretization:     -0.650046 (  -0.04546%)
MG Correction to account for finite box:                  0.475657
MG Remaining discrepancy, due to discretization:         -0.174389 (  -0.01220%)
      ideal mu1:      -0.765771247056
             Q0:  -11533.467204612680
             G0:      -0.315559121803
   RMS gradient:       0.000086559379
MG BCs: +ve charge blocks (gridpoints):     31295 (   17528194).
MG BCs: -ve charge blocks (gridpoints):      8357 (    1110951).
MG BCs:     Elided blocks (gridpoints):    169338 (  177657320).
MG BCs: Computational effort saved:  99.9798%.
MG BCs: Charge after coarse-graining:           -9.0010087.
MG DL_MG: Calling solver with defect correction order = 8
MG DL_MG: Solver finished
MG Hartree energy from (\int phi*rho dr):              1430.499928
MG Hartree energy from (\int eps (grad phi)^2 dr):     1429.849641
MG Discrepancy due to finite box and discretization:     -0.650287 (  -0.04546%)
MG Correction to account for finite box:                  0.475727
MG Remaining discrepancy, due to discretization:         -0.174560 (  -0.01220%)
     Trial step:       0.515271054082
             Q1:  -11533.572368180496
 Quadratic coef:       0.057434913500
 Linear coef   :      -0.162598481316
           Qmin:  -11533.582283858539
Quadratic minimum step length (  0.729367258989) accepted
    Initial Ne1:    7191.99971365
      Final Ne1:    7192.00000000

=================== Penalty functional idempotency correction ==================
 RMS occupancy error at iteration   1:  0.001823 (step -0.3878 Ne1=   7192.0000)
 RMS occupancy error at iteration   2:  0.000073 (step -0.4995 Ne1=   7192.0000)
            Final RMS occupancy error   :  0.000000 (Ne1=   7192.0000)
               Final occupancy bounds   : [ -0.0000,  1.0000]
================================================================================

    5        -1.153346720461E+04     8.6559E-05     7.8291E-05    -1.6068E-01
MG BCs: +ve charge blocks (gridpoints):     31292 (   17528369).
MG BCs: -ve charge blocks (gridpoints):      8355 (    1110821).
MG BCs:     Elided blocks (gridpoints):    169341 (  177657275).
MG BCs: Computational effort saved:  99.9798%.
MG BCs: Charge after coarse-graining:           -9.0010087.
MG DL_MG: Calling solver with defect correction order = 8
MG DL_MG: Solver finished
MG Hartree energy from (\int phi*rho dr):              1430.749483
MG Hartree energy from (\int eps (grad phi)^2 dr):     1430.099106
MG Discrepancy due to finite box and discretization:     -0.650378 (  -0.04546%)
MG Correction to account for finite box:                  0.475744
MG Remaining discrepancy, due to discretization:         -0.174634 (  -0.01221%)
      ideal mu1:      -0.765079865267
             Q0:  -11533.576628980925
             G0:      -0.267475780549
   RMS gradient:       0.000081498607
MG BCs: +ve charge blocks (gridpoints):     31292 (   17527356).
MG BCs: -ve charge blocks (gridpoints):      8358 (    1111446).
MG BCs:     Elided blocks (gridpoints):    169341 (  177657663).
MG BCs: Computational effort saved:  99.9798%.
MG BCs: Charge after coarse-graining:           -9.0010084.
MG DL_MG: Calling solver with defect correction order = 8
MG DL_MG: Solver finished
MG Hartree energy from (\int phi*rho dr):              1428.933666
MG Hartree energy from (\int eps (grad phi)^2 dr):     1428.283155
MG Discrepancy due to finite box and discretization:     -0.650511 (  -0.04552%)
MG Correction to account for finite box:                  0.475932
MG Remaining discrepancy, due to discretization:         -0.174580 (  -0.01222%)
     Trial step:       0.613043095021
             Q1:  -11533.651307659107
 Quadratic coef:       0.089295502168
 Linear coef   :      -0.163974180351
           Qmin:  -11533.651905817856
Quadratic minimum step length (  0.562868434495) accepted
    Initial Ne1:    7192.00046770
      Final Ne1:    7192.00000000

=================== Penalty functional idempotency correction ==================
 RMS occupancy error at iteration   1:  0.002970 (step -0.3384 Ne1=   7192.0000)
 RMS occupancy error at iteration   2:  0.000109 (step -0.4978 Ne1=   7192.0000)
 RMS occupancy error at iteration   3:  0.000001 (step -0.5000 Ne1=   7192.0000)
            Final RMS occupancy error   :  0.000000 (Ne1=   7192.0000)
               Final occupancy bounds   : [  0.0000,  1.0000]
================================================================================

    6        -1.153357662898E+04     8.1499E-05     7.3714E-05    -1.0942E-01
MG BCs: +ve charge blocks (gridpoints):     31292 (   17527400).
MG BCs: -ve charge blocks (gridpoints):      8358 (    1111423).
MG BCs:     Elided blocks (gridpoints):    169341 (  177657642).
MG BCs: Computational effort saved:  99.9798%.
MG BCs: Charge after coarse-graining:           -9.0010084.
MG DL_MG: Calling solver with defect correction order = 8
MG DL_MG: Solver finished
MG Hartree energy from (\int phi*rho dr):              1429.083077
MG Hartree energy from (\int eps (grad phi)^2 dr):     1428.432545
MG Discrepancy due to finite box and discretization:     -0.650532 (  -0.04552%)
MG Correction to account for finite box:                  0.475949
MG Remaining discrepancy, due to discretization:         -0.174583 (  -0.01222%)
      ideal mu1:      -0.764298997801
             Q0:  -11533.655367819010
             G0:      -0.170969120757
   RMS gradient:       0.000063564047
MG BCs: +ve charge blocks (gridpoints):     31296 (   17527837).
MG BCs: -ve charge blocks (gridpoints):      8357 (    1111178).
MG BCs:     Elided blocks (gridpoints):    169337 (  177657450).
MG BCs: Computational effort saved:  99.9798%.
MG BCs: Charge after coarse-graining:           -9.0010087.
MG DL_MG: Calling solver with defect correction order = 8
MG DL_MG: Solver finished
MG Hartree energy from (\int phi*rho dr):              1429.526312
MG Hartree energy from (\int eps (grad phi)^2 dr):     1428.875956
MG Discrepancy due to finite box and discretization:     -0.650356 (  -0.04549%)
MG Correction to account for finite box:                  0.475947
MG Remaining discrepancy, due to discretization:         -0.174409 (  -0.01220%)
     Trial step:       0.587420298570
             Q1:  -11533.710070049157
 Quadratic coef:       0.045728501815
 Linear coef   :      -0.100430731961
           Qmin:  -11533.710510298657
Quadratic minimum step length (  0.645057767183) accepted
    Initial Ne1:    7191.99999995
      Final Ne1:    7192.00000000

=================== Penalty functional idempotency correction ==================
 RMS occupancy error at iteration   1:  0.000073 (step -0.4963 Ne1=   7192.0000)
 RMS occupancy error at iteration   2:  0.000000 (step -0.5000 Ne1=   7192.0000)
            Final RMS occupancy error   :  0.000000 (Ne1=   7192.0000)
               Final occupancy bounds   : [  0.0000,  1.0000]
================================================================================

    7        -1.153365536782E+04     6.3564E-05     5.7492E-05    -7.8739E-02
MG BCs: +ve charge blocks (gridpoints):     31296 (   17527866).
MG BCs: -ve charge blocks (gridpoints):      8357 (    1111168).
MG BCs:     Elided blocks (gridpoints):    169337 (  177657431).
MG BCs: Computational effort saved:  99.9798%.
MG BCs: Charge after coarse-graining:           -9.0010087.
MG DL_MG: Calling solver with defect correction order = 8
MG DL_MG: Solver finished
MG Hartree energy from (\int phi*rho dr):              1429.569990
MG Hartree energy from (\int eps (grad phi)^2 dr):     1428.919651
MG Discrepancy due to finite box and discretization:     -0.650339 (  -0.04549%)
MG Correction to account for finite box:                  0.475947
MG Remaining discrepancy, due to discretization:         -0.174392 (  -0.01220%)
      ideal mu1:      -0.765126417268
             Q0:  -11533.710516214953
             G0:      -0.115779758176
   RMS gradient:       0.000052298794
MG BCs: +ve charge blocks (gridpoints):     31297 (   17527978).
MG BCs: -ve charge blocks (gridpoints):      8356 (    1110989).
MG BCs:     Elided blocks (gridpoints):    169336 (  177657498).
MG BCs: Computational effort saved:  99.9798%.
MG BCs: Charge after coarse-graining:           -9.0010087.
MG DL_MG: Calling solver with defect correction order = 8
MG DL_MG: Solver finished
MG Hartree energy from (\int phi*rho dr):              1429.730845
MG Hartree energy from (\int eps (grad phi)^2 dr):     1429.080567
MG Discrepancy due to finite box and discretization:     -0.650278 (  -0.04548%)
MG Correction to account for finite box:                  0.475913
MG Remaining discrepancy, due to discretization:         -0.174365 (  -0.01220%)
     Trial step:       0.615564802595
             Q1:  -11533.750017713523
 Quadratic coef:       0.031768445417
 Linear coef   :      -0.071269943986
           Qmin:  -11533.750488307143
Quadratic minimum step length (  0.690484983215) accepted
    Initial Ne1:    7191.99999996
      Final Ne1:    7192.00000000

=================== Penalty functional idempotency correction ==================
 RMS occupancy error at iteration   1:  0.000315 (step -0.4830 Ne1=   7192.0000)
 RMS occupancy error at iteration   2:  0.000003 (step -0.5000 Ne1=   7192.0000)
            Final RMS occupancy error   :  0.000000 (Ne1=   7192.0000)
               Final occupancy bounds   : [  0.0000,  1.0000]
================================================================================

    8        -1.153371051621E+04     5.2299E-05     4.7303E-05    -5.5148E-02
MG BCs: +ve charge blocks (gridpoints):     31296 (   17527935).
MG BCs: -ve charge blocks (gridpoints):      8356 (    1110982).
MG BCs:     Elided blocks (gridpoints):    169337 (  177657548).
MG BCs: Computational effort saved:  99.9798%.
MG BCs: Charge after coarse-graining:           -9.0010087.
MG DL_MG: Calling solver with defect correction order = 8
MG DL_MG: Solver finished
MG Hartree energy from (\int phi*rho dr):              1429.750632
MG Hartree energy from (\int eps (grad phi)^2 dr):     1429.100362
MG Discrepancy due to finite box and discretization:     -0.650270 (  -0.04548%)
MG Correction to account for finite box:                  0.475908
MG Remaining discrepancy, due to discretization:         -0.174362 (  -0.01220%)
      ideal mu1:      -0.764945041510
             Q0:  -11533.750501554925
             G0:      -0.082799691570
   RMS gradient:       0.000044215246
MG BCs: +ve charge blocks (gridpoints):     31296 (   17527556).
MG BCs: -ve charge blocks (gridpoints):      8355 (    1111132).
MG BCs:     Elided blocks (gridpoints):    169337 (  177657777).
MG BCs: Computational effort saved:  99.9798%.
MG BCs: Charge after coarse-graining:           -9.0010086.
MG DL_MG: Calling solver with defect correction order = 8
MG DL_MG: Solver finished
MG Hartree energy from (\int phi*rho dr):              1429.437070
MG Hartree energy from (\int eps (grad phi)^2 dr):     1428.786890
MG Discrepancy due to finite box and discretization:     -0.650181 (  -0.04549%)
MG Correction to account for finite box:                  0.475822
MG Remaining discrepancy, due to discretization:         -0.174358 (  -0.01220%)
     Trial step:       0.651949578102
             Q1:  -11533.790084691602
 Quadratic coef:       0.014398087309
 Linear coef   :      -0.053981223986
           Qmin:  -11533.801098076541
Quadratic minimum step length (  1.222142755757) accepted
    Initial Ne1:    7191.99999840
      Final Ne1:    7192.00000000

=================== Penalty functional idempotency correction ==================
 RMS occupancy error at iteration   1:  0.001780 (step -0.4153 Ne1=   7192.0000)
 RMS occupancy error at iteration   2:  0.000043 (step -0.4983 Ne1=   7192.0000)
            Final RMS occupancy error   :  0.000000 (Ne1=   7192.0000)
               Final occupancy bounds   : [ -0.0000,  1.0000]
================================================================================

    9        -1.153375050155E+04     4.4215E-05     3.9992E-05    -3.9985E-02
MG BCs: +ve charge blocks (gridpoints):     31296 (   17527198).
MG BCs: -ve charge blocks (gridpoints):      8354 (    1111319).
MG BCs:     Elided blocks (gridpoints):    169337 (  177657948).
MG BCs: Computational effort saved:  99.9798%.
MG BCs: Charge after coarse-graining:           -9.0010085.
MG DL_MG: Calling solver with defect correction order = 8
MG DL_MG: Solver finished
MG Hartree energy from (\int phi*rho dr):              1429.164722
MG Hartree energy from (\int eps (grad phi)^2 dr):     1428.514643
MG Discrepancy due to finite box and discretization:     -0.650079 (  -0.04549%)
MG Correction to account for finite box:                  0.475721
MG Remaining discrepancy, due to discretization:         -0.174358 (  -0.01220%)
      ideal mu1:      -0.763453635543
   10        -1.153379694399E+04     6.3336E-05     5.7286E-05    -4.6442E-02
Finished density kernel iterations (  10)

Writing density kernel to file "host_28221.vacuum_dkn" ... done


>>> Density kernel optimised for the current NGWF basis:
     ~~~~~~~~~~~~~~~~~~~~~~~~~~~~~~~~~~~~~~~~~~~~~~~~~~~~~~~~~~~
     Total energy                =  -1.15337969439895E+04  Eh
     Estimated bandgap           =  -5.6394E-01  Eh
     RMS occupancy error         =   1.0372E-07
     [H,K] commutator            =   5.7286E-05
     Occupancy bounds            = [ -0.000:  1.000]
     ~~~~~~~~~~~~~~~~~~~~~~~~~~~~~~~~~~~~~~~~~~~~~~~~~~~~~~~~~~~




################################################################################
########################### NGWF CG iteration  001 #############################
################################################################################
****** Reciprocal space K.E. preconditioning with k_zero =  3.5000 a0^-1 *******

>>> Checking for convergence of NGWFs:   NOT CONVERGED
  ========================================================================
         NGWF RMS gradient =  1.5624E-03 >  2.0000E-06  | above tolerance
  ========================================================================

>>> Improving NGWFs using line search:
============ Calculation of NGWF S^-1 using Hotelling algorithm ================ 
         Iteration  |  Frobenius norm and Maximum abs value    (of I-S*S_n^-1)   
               1       0.19150185E+00     0.49568952E-02
               2       0.84903822E-03     0.37867298E-04
               3       0.28619028E-07     0.22876583E-08
               4       0.12863299E-12     0.59952043E-14
================================================================================
MG BCs: +ve charge blocks (gridpoints):     30766 (   17476325).
MG BCs: -ve charge blocks (gridpoints):      8372 (    1111393).
MG BCs:     Elided blocks (gridpoints):    169867 (  177708747).
MG BCs: Computational effort saved:  99.9801%.
MG BCs: Charge after coarse-graining:           -9.0010080.
MG DL_MG: Calling solver with defect correction order = 8
MG DL_MG: Solver finished
MG Hartree energy from (\int phi*rho dr):              1397.945719
MG Hartree energy from (\int eps (grad phi)^2 dr):     1397.296386
MG Discrepancy due to finite box and discretization:     -0.649333 (  -0.04645%)
MG Correction to account for finite box:                  0.475636
MG Remaining discrepancy, due to discretization:         -0.173697 (  -0.01243%)
============ Calculation of NGWF S^-1 using Hotelling algorithm ================ 
         Iteration  |  Frobenius norm and Maximum abs value    (of I-S*S_n^-1)   
               1       0.18485304E+01     0.40318341E-01
               2       0.70996293E-01     0.22917057E-02
               3       0.14196483E-03     0.85271742E-05
               4       0.10652145E-08     0.13717264E-09
               5       0.10980387E-12     0.39968029E-14
================================================================================
------------------------------- NGWF line search -------------------------------
RMS gradient                =       0.00156237395517
Trial step length           =               0.122474
Gradient along search dir.  =       -269.46212345182
Functional at step 0        =  -11533.79694398946594
Functional at step 1        =  -11564.32721876760479
Functional predicted        =  -11643.94711606417695
Selected quadratic step     =               0.817556
--------------------------- NGWF line search finished --------------------------
                                               
Writing NGWFs to file "host_28221.vacuum_tightbox_ngwfs"....  done

>>> Optimising kernel for current NGWFs:
   Initial electron number for spin 1:    7226.21187857
     Final electron number for spin 1:    7192.00000000

=================== Penalty functional idempotency correction ==================
 RMS occupancy error at iteration   1:  0.004229 (step -0.4863 Ne1=   7192.0000)
 RMS occupancy error at iteration   2:  0.000069 (step -0.5003 Ne1=   7192.0000)
            Final RMS occupancy error   :  0.000000 (Ne1=   7192.0000)
               Final occupancy bounds   : [  0.0000,  1.0000]
================================================================================

................................................................................
<<<<<<<<<<<<<< LNV (Original version) density kernel optimisation >>>>>>>>>>>>>>
~~~~~~~~~~~~~~~~~~~~~~~~~~~~~~~~~~~~~~~~~~~~~~~~~~~~~~~~~~~~~~~~~~~~~~~~~~~~~~~~
   iter  |      energy (Eh)       | rms gradient |  commutator  |   dE (Eh)
MG BCs: +ve charge blocks (gridpoints):     25032 (   17245144).
MG BCs: -ve charge blocks (gridpoints):      8535 (    1095363).
MG BCs:     Elided blocks (gridpoints):    175608 (  177955958).
MG BCs: Computational effort saved:  99.9829%.
MG BCs: Charge after coarse-graining:           -9.0006714.
MG DL_MG: Calling solver with defect correction order = 8
MG DL_MG: Solver finished
MG Hartree energy from (\int phi*rho dr):              1243.103610
MG Hartree energy from (\int eps (grad phi)^2 dr):     1242.454144
MG Discrepancy due to finite box and discretization:     -0.649465 (  -0.05225%)
MG Correction to account for finite box:                  0.475238
MG Remaining discrepancy, due to discretization:         -0.174227 (  -0.01402%)
      ideal mu1:      -0.703923757234
             Q0:  -11643.130483876914
             G0:     -10.290950712322
   RMS gradient:       0.000493151602
MG BCs: +ve charge blocks (gridpoints):     25126 (   17262877).
MG BCs: -ve charge blocks (gridpoints):      8508 (    1091337).
MG BCs:     Elided blocks (gridpoints):    175514 (  177942251).
MG BCs: Computational effort saved:  99.9829%.
MG BCs: Charge after coarse-graining:           -9.0006667.
MG DL_MG: Calling solver with defect correction order = 8
MG DL_MG: Solver finished
MG Hartree energy from (\int phi*rho dr):              1263.393916
MG Hartree energy from (\int eps (grad phi)^2 dr):     1262.738729
MG Discrepancy due to finite box and discretization:     -0.655186 (  -0.05186%)
MG Correction to account for finite box:                  0.473698
MG Remaining discrepancy, due to discretization:         -0.181489 (  -0.01437%)
     Trial step:       0.892622794912
             Q1:  -11639.860743220313
 Quadratic coef:      12.455677843733
 Linear coef   :      -9.185937187133
           Qmin:  -11644.824117958186
Quadratic minimum step length (  0.329150168651) accepted
    Initial Ne1:    7191.99959164
      Final Ne1:    7192.00000000

=================== Penalty functional idempotency correction ==================
 RMS occupancy error at iteration   1:  0.000367 (step -0.4985 Ne1=   7192.0000)
 RMS occupancy error at iteration   2:  0.000000 (step -0.5000 Ne1=   7192.0000)
            Final RMS occupancy error   :  0.000000 (Ne1=   7192.0000)
               Final occupancy bounds   : [  0.0000,  1.0000]
================================================================================

    1        -1.164313048388E+04     4.9315E-04     4.4604E-04
MG BCs: +ve charge blocks (gridpoints):     25068 (   17251715).
MG BCs: -ve charge blocks (gridpoints):      8520 (    1094001).
MG BCs:     Elided blocks (gridpoints):    175572 (  177950749).
MG BCs: Computational effort saved:  99.9829%.
MG BCs: Charge after coarse-graining:           -9.0006696.
MG DL_MG: Calling solver with defect correction order = 8
MG DL_MG: Solver finished
MG Hartree energy from (\int phi*rho dr):              1249.183732
MG Hartree energy from (\int eps (grad phi)^2 dr):     1248.532314
MG Discrepancy due to finite box and discretization:     -0.651418 (  -0.05215%)
MG Correction to account for finite box:                  0.474622
MG Remaining discrepancy, due to discretization:         -0.176796 (  -0.01415%)
      ideal mu1:      -0.710308050128
             Q0:  -11644.783635635045
             G0:      -0.991840247253
   RMS gradient:       0.000154415609
MG BCs: +ve charge blocks (gridpoints):     25068 (   17251735).
MG BCs: -ve charge blocks (gridpoints):      8527 (    1094768).
MG BCs:     Elided blocks (gridpoints):    175572 (  177949962).
MG BCs: Computational effort saved:  99.9829%.
MG BCs: Charge after coarse-graining:           -9.0006695.
MG DL_MG: Calling solver with defect correction order = 8
MG DL_MG: Solver finished
MG Hartree energy from (\int phi*rho dr):              1250.452028
MG Hartree energy from (\int eps (grad phi)^2 dr):     1249.800580
MG Discrepancy due to finite box and discretization:     -0.651448 (  -0.05210%)
MG Correction to account for finite box:                  0.474289
MG Remaining discrepancy, due to discretization:         -0.177160 (  -0.01417%)
     Trial step:       0.542039614315
             Q1:  -11644.982586018159
 Quadratic coef:       0.338666321970
 Linear coef   :      -0.537616705084
           Qmin:  -11644.996995882902
Quadratic minimum step length (  0.430231074909) accepted
    Initial Ne1:    7191.99994765
      Final Ne1:    7192.00000000

=================== Penalty functional idempotency correction ==================
 RMS occupancy error at iteration   1:  0.000158 (step -0.4986 Ne1=   7192.0000)
 RMS occupancy error at iteration   2:  0.000001 (step -0.5000 Ne1=   7192.0000)
            Final RMS occupancy error   :  0.000000 (Ne1=   7192.0000)
               Final occupancy bounds   : [  0.0000,  1.0000]
================================================================================

    2        -1.164478363564E+04     1.5442E-04     1.3967E-04    -1.6532E+00
MG BCs: +ve charge blocks (gridpoints):     25067 (   17251750).
MG BCs: -ve charge blocks (gridpoints):      8526 (    1094572).
MG BCs:     Elided blocks (gridpoints):    175573 (  177950143).
MG BCs: Computational effort saved:  99.9829%.
MG BCs: Charge after coarse-graining:           -9.0006696.
MG DL_MG: Calling solver with defect correction order = 8
MG DL_MG: Solver finished
MG Hartree energy from (\int phi*rho dr):              1250.189901
MG Hartree energy from (\int eps (grad phi)^2 dr):     1249.538461
MG Discrepancy due to finite box and discretization:     -0.651440 (  -0.05211%)
MG Correction to account for finite box:                  0.474358
MG Remaining discrepancy, due to discretization:         -0.177082 (  -0.01416%)
      ideal mu1:      -0.711610939103
             Q0:  -11644.997536935261
             G0:      -0.183751680585
   RMS gradient:       0.000065820900
MG BCs: +ve charge blocks (gridpoints):     25067 (   17251337).
MG BCs: -ve charge blocks (gridpoints):      8527 (    1094960).
MG BCs:     Elided blocks (gridpoints):    175573 (  177950168).
MG BCs: Computational effort saved:  99.9829%.
MG BCs: Charge after coarse-graining:           -9.0006696.
MG DL_MG: Calling solver with defect correction order = 8
MG DL_MG: Solver finished
MG Hartree energy from (\int phi*rho dr):              1249.825610
MG Hartree energy from (\int eps (grad phi)^2 dr):     1249.174443
MG Discrepancy due to finite box and discretization:     -0.651167 (  -0.05210%)
MG Correction to account for finite box:                  0.474103
MG Remaining discrepancy, due to discretization:         -0.177064 (  -0.01417%)
     Trial step:       0.482910225518
             Q1:  -11645.060515927500
 Quadratic coef:       0.025756573272
 Linear coef   :      -0.088735565510
           Qmin:  -11645.073964033147
Quadratic minimum step length (  0.831851960662) accepted
    Initial Ne1:    7191.99998154
      Final Ne1:    7192.00000000

=================== Penalty functional idempotency correction ==================
 RMS occupancy error at iteration   1:  0.000330 (step -0.4779 Ne1=   7192.0000)
 RMS occupancy error at iteration   2:  0.000005 (step -0.5000 Ne1=   7192.0000)
            Final RMS occupancy error   :  0.000000 (Ne1=   7192.0000)
               Final occupancy bounds   : [ -0.0000,  1.0000]
================================================================================

    3        -1.164499753694E+04     6.5821E-05     5.9534E-05    -2.1390E-01
MG BCs: +ve charge blocks (gridpoints):     25067 (   17251188).
MG BCs: -ve charge blocks (gridpoints):      8527 (    1095157).
MG BCs:     Elided blocks (gridpoints):    175573 (  177950120).
MG BCs: Computational effort saved:  99.9829%.
MG BCs: Charge after coarse-graining:           -9.0006695.
MG DL_MG: Calling solver with defect correction order = 8
MG DL_MG: Solver finished
MG Hartree energy from (\int phi*rho dr):              1249.563056
MG Hartree energy from (\int eps (grad phi)^2 dr):     1248.912091
MG Discrepancy due to finite box and discretization:     -0.650966 (  -0.05210%)
MG Correction to account for finite box:                  0.473915
MG Remaining discrepancy, due to discretization:         -0.177051 (  -0.01417%)
      ideal mu1:      -0.711003580203
             Q0:  -11645.073575779912
             G0:      -0.099372151208
   RMS gradient:       0.000048601785
MG BCs: +ve charge blocks (gridpoints):     25067 (   17250944).
MG BCs: -ve charge blocks (gridpoints):      8527 (    1095234).
MG BCs:     Elided blocks (gridpoints):    175573 (  177950287).
MG BCs: Computational effort saved:  99.9829%.
MG BCs: Charge after coarse-graining:           -9.0006695.
MG DL_MG: Calling solver with defect correction order = 8
MG DL_MG: Solver finished
MG Hartree energy from (\int phi*rho dr):              1249.461779
MG Hartree energy from (\int eps (grad phi)^2 dr):     1248.811301
MG Discrepancy due to finite box and discretization:     -0.650478 (  -0.05206%)
MG Correction to account for finite box:                  0.473576
MG Remaining discrepancy, due to discretization:         -0.176902 (  -0.01416%)
     Trial step:       0.633805820359
             Q1:  -11645.113808353082
 Quadratic coef:       0.022750074648
 Linear coef   :      -0.062982647817
           Qmin:  -11645.117166998705
Quadratic minimum step length (  0.877332698600) accepted
    Initial Ne1:    7191.99999395
      Final Ne1:    7192.00000000

=================== Penalty functional idempotency correction ==================
 RMS occupancy error at iteration   1:  0.000850 (step -0.4412 Ne1=   7192.0000)
 RMS occupancy error at iteration   2:  0.000019 (step -0.4991 Ne1=   7192.0000)
            Final RMS occupancy error   :  0.000000 (Ne1=   7192.0000)
               Final occupancy bounds   : [ -0.0000,  1.0000]
================================================================================

    4        -1.164507357578E+04     4.8602E-05     4.3959E-05    -7.6039E-02
MG BCs: +ve charge blocks (gridpoints):     25066 (   17250893).
MG BCs: -ve charge blocks (gridpoints):      8529 (    1095237).
MG BCs:     Elided blocks (gridpoints):    175574 (  177950335).
MG BCs: Computational effort saved:  99.9829%.
MG BCs: Charge after coarse-graining:           -9.0006695.
MG DL_MG: Calling solver with defect correction order = 8
MG DL_MG: Solver finished
MG Hartree energy from (\int phi*rho dr):              1249.426535
MG Hartree energy from (\int eps (grad phi)^2 dr):     1248.776241
MG Discrepancy due to finite box and discretization:     -0.650294 (  -0.05205%)
MG Correction to account for finite box:                  0.473449
MG Remaining discrepancy, due to discretization:         -0.176845 (  -0.01415%)
      ideal mu1:      -0.711646536821
             Q0:  -11645.116192104178
             G0:      -0.125998023718
   RMS gradient:       0.000054915624
MG BCs: +ve charge blocks (gridpoints):     25067 (   17252479).
MG BCs: -ve charge blocks (gridpoints):      8527 (    1094582).
MG BCs:     Elided blocks (gridpoints):    175573 (  177949404).
MG BCs: Computational effort saved:  99.9829%.
MG BCs: Charge after coarse-graining:           -9.0006693.
MG DL_MG: Calling solver with defect correction order = 8
MG DL_MG: Solver finished
MG Hartree energy from (\int phi*rho dr):              1250.494286
MG Hartree energy from (\int eps (grad phi)^2 dr):     1249.844817
MG Discrepancy due to finite box and discretization:     -0.649468 (  -0.05194%)
MG Correction to account for finite box:                  0.472720
MG Remaining discrepancy, due to discretization:         -0.176748 (  -0.01413%)
     Trial step:       0.745693349014
             Q1:  -11645.172621590202
 Quadratic coef:       0.037526402251
 Linear coef   :      -0.093955888275
           Qmin:  -11645.175002091361
Quadratic minimum step length (  0.933506501881) accepted
    Initial Ne1:    7192.00056511
      Final Ne1:    7192.00000000

=================== Penalty functional idempotency correction ==================
 RMS occupancy error at iteration   1:  0.003681 (step -0.3183 Ne1=   7192.0000)
 RMS occupancy error at iteration   2:  0.000207 (step -0.4859 Ne1=   7192.0000)
 RMS occupancy error at iteration   3:  0.000002 (step -0.5000 Ne1=   7192.0000)
            Final RMS occupancy error   :  0.000000 (Ne1=   7192.0000)
               Final occupancy bounds   : [  0.0000,  1.0000]
================================================================================

    5        -1.164511619210E+04     5.4916E-05     4.9670E-05    -4.2616E-02
MG BCs: +ve charge blocks (gridpoints):     25063 (   17252882).
MG BCs: -ve charge blocks (gridpoints):      8526 (    1094433).
MG BCs:     Elided blocks (gridpoints):    175577 (  177949150).
MG BCs: Computational effort saved:  99.9829%.
MG BCs: Charge after coarse-graining:           -9.0006692.
MG DL_MG: Calling solver with defect correction order = 8
MG DL_MG: Solver finished
MG Hartree energy from (\int phi*rho dr):              1250.770306
MG Hartree energy from (\int eps (grad phi)^2 dr):     1250.120969
MG Discrepancy due to finite box and discretization:     -0.649337 (  -0.05191%)
MG Correction to account for finite box:                  0.472613
MG Remaining discrepancy, due to discretization:         -0.176724 (  -0.01413%)
      ideal mu1:      -0.713861104606
             Q0:  -11645.168248229311
             G0:      -0.175364723461
   RMS gradient:       0.000064949577
========================= Kernel Line Step Protection ==========================
|  Iter |  Trial Step |   RMS Occupancy Error |   Occupancy Bounds | Accepted? |
    0        0.000000                0.000000    [ 1.0000:  0.0000]
    1        0.834332                0.009825    [ 1.4025: -0.3884]        No
    2        0.417166                0.003773    [ 1.1819: -0.1764]       Yes
================================================================================
MG BCs: +ve charge blocks (gridpoints):     25063 (   17253225).
MG BCs: -ve charge blocks (gridpoints):      8523 (    1094323).
MG BCs:     Elided blocks (gridpoints):    175577 (  177948917).
MG BCs: Computational effort saved:  99.9829%.
MG BCs: Charge after coarse-graining:           -9.0006692.
MG DL_MG: Calling solver with defect correction order = 8
MG DL_MG: Solver finished
MG Hartree energy from (\int phi*rho dr):              1250.840271
MG Hartree energy from (\int eps (grad phi)^2 dr):     1250.191555
MG Discrepancy due to finite box and discretization:     -0.648716 (  -0.05186%)
MG Correction to account for finite box:                  0.471983
MG Remaining discrepancy, due to discretization:         -0.176732 (  -0.01413%)
     Trial step:       0.417165911153
             Q1:  -11645.223813234246
 Quadratic coef:       0.017591179711
 Linear coef   :      -0.073156184647
           Qmin:  -11645.244306621074
Quadratic minimum step length (  0.867430920691) accepted
========================= Kernel Line Step Protection ==========================
|  Iter |  Trial Step |   RMS Occupancy Error |   Occupancy Bounds | Accepted? |
    0        0.000000                0.000000    [ 1.0000:  0.0000]
    1        0.867431                0.010403    [ 1.4209: -0.4061]        No
    2        0.433715                0.003970    [ 1.1901: -0.1843]       Yes
================================================================================
    Initial Ne1:    7192.00036680
      Final Ne1:    7192.00000000

=================== Penalty functional idempotency correction ==================
 RMS occupancy error at iteration   1:  0.003970 (step -0.3096 Ne1=   7192.0000)
 RMS occupancy error at iteration   2:  0.000229 (step -0.4838 Ne1=   7192.0000)
 RMS occupancy error at iteration   3:  0.000003 (step -0.5000 Ne1=   7192.0000)
            Final RMS occupancy error   :  0.000000 (Ne1=   7192.0000)
               Final occupancy bounds   : [  0.0000,  1.0000]
================================================================================

    6        -1.164516824823E+04     6.4950E-05     5.8745E-05    -5.2056E-02
MG BCs: +ve charge blocks (gridpoints):     25064 (   17253236).
MG BCs: -ve charge blocks (gridpoints):      8523 (    1094326).
MG BCs:     Elided blocks (gridpoints):    175576 (  177948903).
MG BCs: Computational effort saved:  99.9829%.
MG BCs: Charge after coarse-graining:           -9.0006692.
MG DL_MG: Calling solver with defect correction order = 8
MG DL_MG: Solver finished
MG Hartree energy from (\int phi*rho dr):              1250.836528
MG Hartree energy from (\int eps (grad phi)^2 dr):     1250.187856
MG Discrepancy due to finite box and discretization:     -0.648672 (  -0.05186%)
MG Correction to account for finite box:                  0.471937
MG Remaining discrepancy, due to discretization:         -0.176735 (  -0.01413%)
      ideal mu1:      -0.714852874816
             Q0:  -11645.220113205607
             G0:      -0.308562562858
   RMS gradient:       0.000068880644
========================= Kernel Line Step Protection ==========================
|  Iter |  Trial Step |   RMS Occupancy Error |   Occupancy Bounds | Accepted? |
    0        0.000000                0.000000    [ 1.0000:  0.0000]
    1        0.601550                0.010057    [ 1.4155: -0.3903]        No
    2        0.300775                0.003994    [ 1.1935: -0.1831]       Yes
================================================================================
MG BCs: +ve charge blocks (gridpoints):     25064 (   17252491).
MG BCs: -ve charge blocks (gridpoints):      8523 (    1094673).
MG BCs:     Elided blocks (gridpoints):    175576 (  177949301).
MG BCs: Computational effort saved:  99.9829%.
MG BCs: Charge after coarse-graining:           -9.0006693.
MG DL_MG: Calling solver with defect correction order = 8
MG DL_MG: Solver finished
MG Hartree energy from (\int phi*rho dr):              1250.191160
MG Hartree energy from (\int eps (grad phi)^2 dr):     1249.542974
MG Discrepancy due to finite box and discretization:     -0.648186 (  -0.05185%)
MG Correction to account for finite box:                  0.471396
MG Remaining discrepancy, due to discretization:         -0.176790 (  -0.01414%)
     Trial step:       0.300775086399
             Q1:  -11645.292857043445
 Quadratic coef:       0.020064093665
 Linear coef   :      -0.092807931503
           Qmin:  -11645.327435672963
Quadratic minimum step length (  0.695628571159) accepted
========================= Kernel Line Step Protection ==========================
|  Iter |  Trial Step |   RMS Occupancy Error |   Occupancy Bounds | Accepted? |
    0        0.000000                0.000000    [ 1.0000:  0.0000]
    1        0.695629                0.012382    [ 1.4881: -0.4577]        No
    2        0.347814                0.004805    [ 1.2269: -0.2144]       Yes
================================================================================
[...]
MG Hartree energy from (\int eps (grad phi)^2 dr):     1208.123028
MG Discrepancy due to finite box and discretization:     -0.182590 (  -0.01511%)
MG Correction to account for finite box:                  0.006359
MG Remaining discrepancy, due to discretization:         -0.176230 (  -0.01458%)
     Trial step:       0.237649502673
             Q1:  -11679.519602327142
 Quadratic coef:       0.000000000362
 Linear coef   :      -0.000000000245
           Qmin:  -11679.519602327300
Quadratic minimum step length (  0.080401423826) accepted
    Initial Ne1:    7192.00000000
      Final Ne1:    7192.00000000

=================== Penalty functional idempotency correction ==================
 RMS occupancy error at iteration   1:  0.000000 (step -0.5000 Ne1=   7192.0000)
            Final RMS occupancy error   :  0.000000 (Ne1=   7192.0000)
               Final occupancy bounds   : [  0.0000,  1.0000]
================================================================================

    7        -1.167951960233E+04     4.9352E-09     4.4638E-09     0.0000E+00

Reusing previously generated solute cavity.
MG BCs: +ve charge blocks (gridpoints):     29252 (   19497262).
MG BCs: -ve charge blocks (gridpoints):      8521 (    1063210).
MG BCs:     Elided blocks (gridpoints):    171388 (  175735993).
MG BCs: Computational effort saved:  99.9808%.
MG BCs: Charge after coarse-graining:           -9.0009689.
MG DL_MG: Calling solver with defect correction order = 8
MG DL_MG: Solver finished
MG Hartree energy from (\int phi*rho dr):              1208.305624
MG Hartree energy from (\int eps (grad phi)^2 dr):     1208.123034
MG Discrepancy due to finite box and discretization:     -0.182590 (  -0.01511%)
MG Correction to account for finite box:                  0.006359
MG Remaining discrepancy, due to discretization:         -0.176230 (  -0.01458%)
      ideal mu1:      -0.480493380771
             Q0:  -11679.519602327142
             G0:      -0.000000001646
   RMS gradient:       0.000000004510

Reusing previously generated solute cavity.
MG BCs: +ve charge blocks (gridpoints):     29252 (   19497262).
MG BCs: -ve charge blocks (gridpoints):      8521 (    1063210).
MG BCs:     Elided blocks (gridpoints):    171388 (  175735993).
MG BCs: Computational effort saved:  99.9808%.
MG BCs: Charge after coarse-graining:           -9.0009689.
MG DL_MG: Calling solver with defect correction order = 8
MG DL_MG: Solver finished
MG Hartree energy from (\int phi*rho dr):              1208.305615
MG Hartree energy from (\int eps (grad phi)^2 dr):     1208.123025
MG Discrepancy due to finite box and discretization:     -0.182590 (  -0.01511%)
MG Correction to account for finite box:                  0.006359
MG Remaining discrepancy, due to discretization:         -0.176230 (  -0.01458%)
     Trial step:       0.138229368756
             Q1:  -11679.519602327025
 Quadratic coef:       0.000000000344
 Linear coef   :      -0.000000000228
           Qmin:  -11679.519602327180
Quadratic minimum step length (  0.045755080343) accepted
    Initial Ne1:    7192.00000000
      Final Ne1:    7192.00000000

=================== Penalty functional idempotency correction ==================
 RMS occupancy error at iteration   1:  0.000000 (step -0.5000 Ne1=   7192.0000)
            Final RMS occupancy error   :  0.000000 (Ne1=   7192.0000)
               Final occupancy bounds   : [  0.0000,  1.0000]
================================================================================

    8        -1.167951960233E+04     4.5104E-09     4.0795E-09     1.1642E-10

Reusing previously generated solute cavity.
MG BCs: +ve charge blocks (gridpoints):     29252 (   19497262).
MG BCs: -ve charge blocks (gridpoints):      8521 (    1063210).
MG BCs:     Elided blocks (gridpoints):    171388 (  175735993).
MG BCs: Computational effort saved:  99.9808%.
MG BCs: Charge after coarse-graining:           -9.0009689.
MG DL_MG: Calling solver with defect correction order = 8
MG DL_MG: Solver finished
MG Hartree energy from (\int phi*rho dr):              1208.305621
MG Hartree energy from (\int eps (grad phi)^2 dr):     1208.123031
MG Discrepancy due to finite box and discretization:     -0.182590 (  -0.01511%)
MG Correction to account for finite box:                  0.006359
MG Remaining discrepancy, due to discretization:         -0.176230 (  -0.01458%)
      ideal mu1:      -0.480493377246
             Q0:  -11679.519602327142
             G0:      -0.000000001951
   RMS gradient:       0.000000004105

Reusing previously generated solute cavity.
MG BCs: +ve charge blocks (gridpoints):     29252 (   19497262).
MG BCs: -ve charge blocks (gridpoints):      8521 (    1063210).
MG BCs:     Elided blocks (gridpoints):    171388 (  175735993).
MG BCs: Computational effort saved:  99.9808%.
MG BCs: Charge after coarse-graining:           -9.0009689.
MG DL_MG: Calling solver with defect correction order = 8
MG DL_MG: Solver finished
MG Hartree energy from (\int phi*rho dr):              1208.305614
MG Hartree energy from (\int eps (grad phi)^2 dr):     1208.123024
MG Discrepancy due to finite box and discretization:     -0.182590 (  -0.01511%)
MG Correction to account for finite box:                  0.006359
MG Remaining discrepancy, due to discretization:         -0.176230 (  -0.01458%)
     Trial step:       0.079527956551
             Q1:  -11679.519602327025
 Quadratic coef:       0.000000000271
 Linear coef   :      -0.000000000155
           Qmin:  -11679.519602327164
Quadratic minimum step length (  0.022764134875) accepted
    Initial Ne1:    7192.00000000
      Final Ne1:    7192.00000000

=================== Penalty functional idempotency correction ==================
 RMS occupancy error at iteration   1:  0.000000 (step -0.5000 Ne1=   7192.0000)
            Final RMS occupancy error   :  0.000000 (Ne1=   7192.0000)
               Final occupancy bounds   : [  0.0000,  1.0000]
================================================================================

    9        -1.167951960233E+04     4.1052E-09     3.7130E-09     0.0000E+00

Reusing previously generated solute cavity.
MG BCs: +ve charge blocks (gridpoints):     29252 (   19497262).
MG BCs: -ve charge blocks (gridpoints):      8521 (    1063210).
MG BCs:     Elided blocks (gridpoints):    171388 (  175735993).
MG BCs: Computational effort saved:  99.9808%.
MG BCs: Charge after coarse-graining:           -9.0009689.
MG DL_MG: Calling solver with defect correction order = 8
MG DL_MG: Solver finished
MG Hartree energy from (\int phi*rho dr):              1208.305619
MG Hartree energy from (\int eps (grad phi)^2 dr):     1208.123029
MG Discrepancy due to finite box and discretization:     -0.182590 (  -0.01511%)
MG Correction to account for finite box:                  0.006359
MG Remaining discrepancy, due to discretization:         -0.176230 (  -0.01458%)
      ideal mu1:      -0.480493374938
   10        -1.167951960233E+04     3.8518E-09     3.4839E-09     1.1642E-10
Finished density kernel iterations (  10)

Writing density kernel to file "host_28221.dkn" ... done


>>> Density kernel optimised for the current NGWF basis:
     ~~~~~~~~~~~~~~~~~~~~~~~~~~~~~~~~~~~~~~~~~~~~~~~~~~~~~~~~~~~
     Total energy                =  -1.16795196023270E+04  Eh
     Estimated bandgap           =   9.4853E-02  Eh
     RMS occupancy error         =   8.6434E-16
     [H,K] commutator            =   3.4839E-09
     Occupancy bounds            = [  0.000:  1.000]
     ~~~~~~~~~~~~~~~~~~~~~~~~~~~~~~~~~~~~~~~~~~~~~~~~~~~~~~~~~~~




################################################################################
########################### NGWF CG iteration  005 #############################
################################################################################
****** Reciprocal space K.E. preconditioning with k_zero =  3.5000 a0^-1 *******

>>> Checking for convergence of NGWFs: 
           ........................................................
           |         *** NGWF optimisation converged ***          |
           | RMS NGWF gradient =    0.00000087635990              |
           | Criteria satisfied:                                  |
           | -> RMS NGWF gradient lower than set threshold.       |
           ========================================================

Reusing previously generated solute cavity.
MG BCs: +ve charge blocks (gridpoints):     29252 (   19497262).
MG BCs: -ve charge blocks (gridpoints):      8521 (    1063210).
MG BCs:     Elided blocks (gridpoints):    171388 (  175735993).
MG BCs: Computational effort saved:  99.9808%.
MG BCs: Charge after coarse-graining:           -9.0009689.
MG DL_MG: Calling solver with defect correction order = 8
MG DL_MG: Solver finished
MG Hartree energy from (\int phi*rho dr):              1208.305619
MG Hartree energy from (\int eps (grad phi)^2 dr):     1208.123029
MG Discrepancy due to finite box and discretization:     -0.182590 (  -0.01511%)
MG Correction to account for finite box:                  0.006359
MG Remaining discrepancy, due to discretization:         -0.176230 (  -0.01458%)

================================================================================
           ---------------- ENERGY COMPONENTS (Eh) ----------------
           | Kinetic                    :     8532.09063866429278 |
           | Pseudo. (local,OBC,corr'd) :    -5053.45560349571952 |
           | Pseudopotential (non-local):     1402.99788876434377 |
           | Hartree (molecular)        :     1208.30561885859288 |
           | Exchange-correlation       :    -3357.74753017546982 |
           | Ion-ion (open BC)          :   821736.24358762102202 |
           | Dispersion Correction      :       -3.23324530408398 |
           | Smeared ion non-self corr. :  -821688.20911399577744 |
           | Smeared ion self corr.     :   -14457.16956389741972 |
           | Solvent cavitation energy  :        2.34001826246391 |
           | Solute-solvent dis-rep en. :       -1.68229762934187 |
           | Total                      :   -11679.51960232721649 |
           --------------------------------------------------------
           ------ LOCAL ENERGY COMPONENTS FROM MATRIX TRACES ------
           | Pseudopotential (local)    :    -5053.45560349570496 |
           | Hartree                    :    -1987.92771820349321 |
           --------------------------------------------------------
           Integrated density           :     7191.99999999782449
           Integrated density tr(KS)    :     7191.99999999999909
================================================================================


                        <<<<< CALCULATION SUMMARY >>>>>                         
|ITER|    RMS GRADIENT   |     TOTAL ENERGY    |   step   |     Epredicted              
   0     0.00003822421864 -11679.46117564209271   0.622500 -11679.51137687465234        
   1     0.00001032916378 -11679.51889554737136   0.099918 -11679.51948394361170        
   2     0.00000451498647 -11679.51957840844989   0.017863 -11679.51959850671119        
   3     0.00000200030756 -11679.51960139814764   0.003559 -11679.51960218420209        
   4     0.00000087635990 -11679.51960232702550  <-- CG                                 

=================== Finished the calculation in solvent ========================
= Adjusting the following parameters: 
= read_denskern: F
= read_tightbox_ngwfs: F
= maxit_pen: 0 (restored to user-specified value)
= restart read filename prefix: ""
= restart write filename prefix: ""
================================================================================

================================================================================
IS: Calculation in solvent completed (NGWFs converged).      

Individual components of total energy in solvent:     hartree           kcal/mol
- Usual non-electrostatic DFT terms:    -12888.48294181874007    -8087644.976830
- Electrostatic fixed charge energy:      1208.30561885859288      758223.206948
- Apolar cavitation energy:                  2.34001826246391        1468.383597
- Apolar dispersion-repulsion energy:       -1.68229762934187       -1055.657678
 -------------------------------------------------------------------------------
- Total energy in solvent:              -11679.51960232702550    -7329009.043962

Components of total energy in solvent:                hartree           kcal/mol
- Usual non-electrostatic DFT terms:    -12888.48294181874007    -8087644.976830
- Electrostatic energy:                   1208.30561885859288      758223.206948
- Apolar energy terms:                       0.65772063312204         412.725920
 -------------------------------------------------------------------------------
- Total energy in solvent:              -11679.51960232702550    -7329009.043962

Calculation of free energy of solvation:              hartree           kcal/mol
- Total energy in solvent:         (+)  -11679.51960232702550    -7329009.043962
- Total energy in vacuum:          (-)  -11675.75871863483917    -7326649.053866
 -------------------------------------------------------------------------------
- Total free energy of solvation:           -3.76088369218633       -2359.990096

Components of polar term in f.e. of solvation:        hartree           kcal/mol
- Electrostatic:                            -4.62971464458974       -2905.189739
- Change in nonelectrostatic DFT terms:      0.21111031928194         132.473723
 -------------------------------------------------------------------------------
- Polar term in f.e. of solvation:          -4.41860432530780       -2772.716016

Components of free energy of solvation:               hartree           kcal/mol
- Polar term in f.e. of solvation: (+)      -4.41860432530780       -2772.716016
- Apolar (cavitation, dis., rep.): (+)       0.65772063312204         412.725920
 -------------------------------------------------------------------------------
- Total free energy of solvation:           -3.76088369218575       -2359.990096
================================================================================


------------------------------ TIMING INFORMATION ------------------------------
AVERAGE TIME:   27396.820s on     40 node(s)                                    
TOTAL TIME:     27396.821s on     40 node(s)                                    
================= AVERAGE TIMINGS FROM ALL NODES (CUMULATIVE) ==================
|| TAG                                    #calls    cpu time   %total  Gflops ||
|| work_imbalance                       :     1        0.00s   0.000%  ------ ||
|| parallel_prepare_fd_halos_request    :  1947        0.02s   0.000%  ------ ||
|| sparse_set_to_garbage                :   176        0.04s   0.000%  ------ ||
|| parallel_prepare_fd_halos_satisfy    :  1947        0.06s   0.000%  ------ ||
|| ngwfs_initialise_from_radial         :     1        0.17s   0.001%  ------ ||
|| basis_extract_function_from_box      :  5366        0.19s   0.001%  ------ ||
|| parallel_prepare_fd_halos_alloc      :  1947        0.21s   0.001%  ------ ||
|| restart_ngwfs_tightbox_input         :     1        1.10s   0.004%  ------ ||
|| pseudopotentials_nonlocal_mat        :    30        1.21s   0.004%  ------ ||
|| parallel_prepare_fd_halos_comms_imbal:  1947        3.51s   0.013%  ------ ||
|| openbc_locps_radial                  :     1        4.54s   0.017%  ------ ||
|| density_init_guess_real              :     1        4.89s   0.018%  ------ ||
|| restart_kernel_read                  :     1        5.94s   0.022%  ------ ||
|| parallel_prepare_fd_halos_clear      :  1947       14.28s   0.052%  ------ ||
|| sparse_init                          :     2       22.39s   0.082%  ------ ||
|| restart_kernel_write                 :    17       23.59s   0.086%  ------ ||
|| projectors_func_ovlp_box             :    30       24.36s   0.089%  ------ ||
|| parallel_prepare_fd_halos_comms_wait :  1947       24.61s   0.090%  ------ ||
|| function_ops_brappd_ketppd           :    30       26.38s   0.096%  ------ ||
|| projectors_init_fftbox_recip         :   206       28.18s   0.103%  ------ ||
|| parallel_prepare_fd_halos            :  1947       42.69s   0.156%  ------ ||
|| palser_mano_kernel_optimise          :     1       53.90s   0.197%  ------ ||
|| fourier_apply_box_pair               :  7652       55.63s   0.203% 565.475 ||
|| pseudo_make_structure_factor         :     2       56.92s   0.208%  ------ ||
|| basis_copy_function_to_box           : 87167       58.55s   0.214%  ------ ||
|| ngwf_gradient_coeffs                 :    16       62.06s   0.227%  ------ ||
|| restart_ngwfs_tightbox_output        :    14       93.22s   0.340%  ------ ||
|| sparse_embed_hotelling_invert_embed  :    30       94.19s   0.344%  ------ ||
|| finite_difference_derivative         :  1947      108.27s   0.395%  ------ ||
|| integrals_kinetic                    :    30      165.89s   0.606%  ------ ||
|| openbc_locps_on_grid                 :     2      190.89s   0.697%  ------ ||
|| fourier_apply_cell_backward          :  1299      210.79s   0.769%  85.122 ||
|| projectors_gradient_batch            :   176      219.19s   0.800%  ------ ||
|| fourier_apply_cell_forward           :  1297      223.71s   0.817%  80.081 ||
|| basis_dot_function_with_box          : 13.11M     245.08s   0.895%  ------ ||
|| sparse_trace                         :  5375      257.64s   0.940%  ------ ||
|| kernel_purify                        :   495      343.44s   1.254%  ------ ||
|| hamiltonian_energy_components        :     4      436.00s   1.591%  ------ ||
|| xc_energy_potential                  :   324      510.13s   1.862%  ------ ||
|| basis_add_function_to_box            : 27.33M     529.15s   1.931%  ------ ||
|| lnv_gradient_norm                    :   160      566.49s   2.068%  ------ ||
|| kernel_fix                           :   160      649.92s   2.372%  ------ ||
|| ngwf_gradient_build_batch            :   176      809.67s   2.955%  ------ ||
|| cell_grid_deposit_box_real           : 54660      922.62s   3.368%  ------ ||
|| integrals_locpot_mat_els_batch       :  1859      935.17s   3.413%  ------ ||
|| cell_grid_extract_box_real           : 51060     1009.18s   3.684%  ------ ||
|| ngwf_gradient_batch                  :   176     1110.22s   4.052%  ------ ||
|| density_batch_row_sums               :  3553     1264.13s   4.614%  ------ ||
|| ngwf_gradient_lnv                    :    16     1271.59s   4.641%  ------ ||
|| density_fftbox_deposit_to_cell       : 52649     1604.99s   5.858%  ------ ||
|| sparse_product                       :  6737     2160.92s   7.887%  ------ ||
|| multigrid_prepare_bound_cond         :   324     2544.35s   9.287%  ------ ||
|| potential_apply_to_ngwf_batch        :  1859     3416.00s  12.469%  ------ ||
|| density_fftbox_interpolate_multiply  : 52649     3873.59s  14.139%  ------ ||
|| fourier_apply_box                    : 181.9k    3893.76s  14.212% 930.826 ||
|| integrals_locpot_dbl_grid            :   169     4368.54s  15.945%  ------ ||
|| density_batch_interp_deposit         :  3553     6153.63s  22.461%  ------ ||
|| dl_mg_solver_calls                   :   324     6762.32s  24.683%  ------ ||
|| density_on_dbl_grid                  :   323     7885.19s  28.781%  ------ ||
|| multigrid_calculate_hartree          :   324     9458.33s  34.523%  ------ ||
|| hamiltonian_lhxc_calculate           :   319    17858.70s  65.185%  ------ ||
|| lnv_denskernel_optimise_cg           :    16    23542.90s  85.933%  ------ ||
|| ngwf_cg_optimise                     :     2    26573.93s  96.996%  ------ ||
|| total_time                           :     1    27396.82s 100.000%  ------ ||
================================================================================
Overhead of generating timer report: 
- 0 ms averaging over threads,
- 5 ms ensuring consistency across MPI ranks,
- 2 ms printing in order.

Job completed: 12-05-2020 03:21 (+0100)

