 +---------------------------------------------------------------+
 |                                                               |
 |        ####### #     # ####### ####### ####### ######         |
 |        #     # ##    # #          #    #       #     #        |
 |        #     # # #   # #          #    #       #     #        |
 |        #     # #  #  # #####      #    #####   ######         |
 |        #     # #   # # #          #    #       #              |
 |        #     # #    ## #          #    #       #              |
 |        ####### #     # #######    #    ####### #              |
 |                                                               |
 |        Linear-Scaling Ab Initio Total Energy Program          |
 |                                                               |
 |          Release for academic collaborators of ODG            |
 |                                             Version 5.3.2.6.  |
 |                                                               |
 +---------------------------------------------------------------+
 |                                                               |
 |  Authors:                                                     |
 |  Jacek Dziedzic, Peter D. Haynes, Nicholas D. M. Hine,        |
 |  Arash. A. Mostofi, Mike C. Payne and Chris-Kriton Skylaris   |
 |                                                               |
 |  Contributors:                                                |
 |  J. Aarons, L. Andrinopoulos, P. W. Avraam, R. A. Bell,       |
 |  A. Bhandari, G. A. Bramley, R. J. Charlton, S. J. Clark,     |
 |  R. J. Clements, G. C. Constantinescu, F. Corsetti,           |
 |  N. Corsini, O. Dieguez, S. M. M. Dubois, K. K. B. Duff,      |
 |  J. M. Escartin, A. Greco, H. Helal, Q. O. Hill, L. P. Lee,   |
 |  J.-H. Li, E. B. Linscott, G. Moynihan, D. D. O`Regan,        |
 |  O. K. Okan, M. J. S. Phipps, C. J. Pickard,                  |
 |  J. C. A. Prentice, M. I. J. Probert, L. E. Ratcliff,         |
 |  M. Robinson, A. Ruiz Serrano, J. S. Spencer, E. W. Tait,     |
 |  G. Teobaldi, D. Turban, V. Vitale, K. A. Wilkinson,          |
 |  C. Weber, J. C. Womack, N. Yeung and T. J. Zuehlsdorff       |
 |                                                               |
 |                                   Copyright (c) 2004-2019     |
 |                                                               |
 |  Please cite:                                                 |
 |  "Introducing ONETEP: Linear-scaling density functional       |
 |   simulations on parallel computers".                         |
 |   C.-K. Skylaris, P. D. Haynes, A. A. Mostofi, M. C. Payne.   |
 |   J. Chem. Phys. 122 084119 (2005).                           |
 |                                                               |
 |          in all publications arising from your use of ONETEP. |
 |                                                               |
 +---------------------------------------------------------------+
 |                                                               |
 |   ONETEP is based on developments described in the following  |
 |   publications:                                               |
 |                                                               |
 |  "Nonorthogonal generalized Wannier function pseudopotential  |
 |   plane-wave method".                                         |
 |   C.-K. Skylaris, A. A. Mostofi, P. D. Haynes, O. Dieguez,    |
 |   M. C. Payne.                                                |
 |   Phys. Rev. B 66 035119 (2002).                              |
 |                                                               |
 |  "Preconditioned iterative minimization for linear-scaling    |
 |   electronic structure calculations".                         |
 |   A. A. Mostofi, P. D. Haynes, C.-K. Skylaris, M. C. Payne.   |
 |   J. Chem. Phys. 119(17), pp.8842-8848 (2003).                |
 |                                                               |
 |  "Total-energy calculations on a real space grid with         |
 |   localized functions and a plane-wave basis".                |
 |   A. A. Mostofi, C.-K. Skylaris, P. D. Haynes, M. C. Payne.   |
 |   Comput. Phys. Commun. 147, pp.788-802 (2002).               |
 |                                                               |
 |  "Accurate kinetic energy evaluation in electronic structure  |
 |   calculations with localized functions on real space grids"  |
 |   C.-K. Skylaris, A. A. Mostofi, P. D. Haynes, C. J. Pickard, |
 |   M. C. Payne.                                                |
 |   Comput. Phys. Commun. 140, pp.315-322 (2001).               |
 |                                                               |
 |  "Accurate ionic forces and geometry optimization in linear-  |
 |   scaling density-functional theory with local orbitals"      |
 |   N. D. M. Hine, M. Robinson, P. D. Haynes, C.-K. Skylaris,   |
 |   M. C. Payne, and A. A. Mostofi.                             |
 |   Phys. Rev. B 83 195102 (2011).                              |
 |                                                               |
 +---------------------------------------------------------------+

Job started: 12-03-2020 15:12 (-0000)
 
Reading parameters from file "complex_4281.dat" ...... done

If your calculation crashes here, before "Checking processes and threads..."
is displayed, then your stack size is insufficient.
If so, use "ulimit -s unlimited" at runtime.
You can disable this check with "check_stack_size F".

Checking processes and threads...
   Determining the default number of threads...
      No default threads set at compilation time: defaulting to 1.
      OpenMP library call suggests 4 threads.
      Hybrid MPI-OpenMP compilation detected.
      Number of MPI processes > 1.
      OMP_NUM_THREADS environment variable present and
      its value matches the one obtained from the OpenMP library call.
      Using this value as default.
      Default threads: 4
      Default applies to threads_max and threads_num_fftboxes.
      Settings in the input file override this default.
   ... done

   Running with 40 MPI processes.
   There are 10 MPI processes running on the same node as the root process.
   Each MPI process is using: 
               1 threads for simulation cell FFTs.
               1 threads for parallel FFT box operations.
               4 threads for loops over batched FFT box operations.
               4 threads in other parallel regions.
... done

Basic input checks...... done

Reading geometry and species blocks from file "complex_4281.dat" ...
  <species_atomic_set> block not found: NGWF initialisation set to SOLVE
IS: Dielectric excluded regions:
    - NONE.
    
  Number of PPD points along a3 set to 1.  This is 
  the default value, it may have been provided also in the input file.
... done
 Writing xyz coordinates to file "complex_4281.xyz" ... done


--------------------------------------------------------------------------------
---------------------------------- INPUT FILE ----------------------------------
--------------------------------------------------------------------------------

cutoff_energy       : 800 eV                                                    
xc_functional B97M-V                                                            
task SINGLEPOINT                                                                
write_xyz true                                                                  
output_detail VERBOSE                                                           
ngwf_threshold_orig : 0.000002                                                  
kernel_cutoff       : 1000                                                      
k_zero              : 3.5                                                       
elec_cg_max 0                                                                   
occ_mix 1.0                                                                     
dispersion 0                                                                    
maxit_ngwf_cg 40                                                                
minit_lnv 10                                                                    
maxit_lnv 10                                                                    
write_denskern T                                                                
write_tightbox_ngwfs T                                                          
charge 9                                                                        
is_implicit_solvent T                                                           
is_auto_solvation T                                                             
is_include_apolar T                                                             
is_smeared_ion_rep T                                                            
is_solvent_surf_tension 4.7624E-5 Ha/bohr**2                                    
is_apolar_scaling_factor 0.281075                                               
is_solvation_beta 1.3                                                           
is_density_threshold 0.00035                                                    
is_bulk_permittivity 78.54                                                      
is_dielectric_model fix_initial                                                 
is_smeared_ion_width 0.8                                                        
mg_defco_fd_order 8                                                             
is_bc_coarseness 10                                                             
is_bc_surface_coarseness 1                                                      
fine_grid_scale 2.0                                                             
%block species                                                                  
N   N   7 4 8.0                                                                 
H   H   1 1 8.0                                                                 
C   C   6 4 8.0                                                                 
S   S  16 9 8.0                                                                 
O   O   8 4 8.0                                                                 
F   F   9 9 8.0                                                                 
%endblock species                                                               
%block species_pot                                                              
N   N_00.recpot                                                                 
H   H_04.recpot                                                                 
C   C_01.recpot                                                                 
S   S_00.recpot                                                                 
O   O_02.recpot                                                                 
F   F_00.recpot                                                                 
%endblock species_pot                                                           
%block lattice_cart                                                             
139.898   0.000   0.000                                                         
0.000 144.87   0.000                                                            
0.000   0.000   168.12                                                          
%endblock lattice_cart                                                          
%block positions_abs                                                            
     Hash =  -000004429085523361256559
%endblock positions_abs                                                         

--------------------------------------------------------------------------------
-------------------------------- END INPUT FILE --------------------------------
--------------------------------------------------------------------------------


 
 ESDF WARNING(1): "kernelcutoff" (esdf_physical) has no units. Assume "bohr".
 ESDF WARNING(2): "kzero" (esdf_physical) has no units. Assume "1/bohr".
 ESDF WARNING(3
 ): "issmearedionwidth" (esdf_physical) has no units. Assume "bohr".
<<<<<<<<<<<<<<<<<<<<<<<<<<<<<<<<< Full system >>>>>>>>>>>>>>>>>>>>>>>>>>>>>>>>>>
<<<<<<<<<<<<<<<<<<<<<<<<< Pseudopotential information >>>>>>>>>>>>>>>>>>>>>>>>>>
File: N_00.recpot [ 2001 points up to Gmax=  52.9 (1/bohr)]
  Atomic number:  7;  ionic charge:  5.000000
    Shell 1: l = 0; rc = 1.48 bohr
File: H_04.recpot [ 2001 points up to Gmax=  52.9 (1/bohr)]
  Atomic number:  1;  ionic charge:  1.000000
    Local potential
File: C_01.recpot [ 2001 points up to Gmax=  52.9 (1/bohr)]
  Atomic number:  6;  ionic charge:  4.000000
    Shell 1: l = 0; rc = 1.48 bohr
File: S_00.recpot [ 2001 points up to Gmax=  52.9 (1/bohr)]
  Atomic number: 16;  ionic charge:  6.000000
    Shell 1: l = 0; rc = 1.90 bohr
    Shell 2: l = 2; rc = 1.84 bohr
File: O_02.recpot [ 2001 points up to Gmax=  52.9 (1/bohr)]
  Atomic number:  8;  ionic charge:  6.000000
    Shell 1: l = 0; rc = 1.31 bohr
File: F_00.recpot [ 2001 points up to Gmax=  52.9 (1/bohr)]
  Atomic number:  9;  ionic charge:  7.000000
    Shell 1: l = 0; rc = 1.60 bohr
<<<<<<<<<<<<<<<<<<<<<<<<<<<<<<<<<<<<<<<<>>>>>>>>>>>>>>>>>>>>>>>>>>>>>>>>>>>>>>>>

-------------------------- Atom counting information ---------------------------
Symbol    Natoms    Nngwfs    Nprojs
  N        237       948       237
  H       1317      1317         0
  C        816      3264       816
  S          6        54        36
  O        239       956       239
  F          1         9         1
.......   ......    ......    ......
Totals:   2616      6548      1329
--------------------------------------------------------------------------------

=============================== PSINC grid sizes ===============================
                      Simulation cell:  275 x 286 x 336
                              FFT-box:   99 x  99 x  99
                                  PPD:    5 x  11 x   1
Grid space d1=  0.508720000000a0 (KE cutoff=  29.35259Eh = 798.72452eV)
Grid space d2=  0.506538461538a0 (KE cutoff=  29.60596Eh = 805.61916eV)
Grid space d3=  0.500357142857a0 (KE cutoff=  30.34197Eh = 825.64705eV)
================================================================================

********************* Fourier parallelisation information **********************
       Coarse grid (whole simulation cell) dimensions:    275   286   336
          Real-space ('12') slabs/node (min max mean):      8     9     8
         Recip-space ('23') slabs/node (min max mean):      3     4     3
********************************************************************************

********************* Fourier parallelisation information **********************
       Double grid (whole simulation cell) dimensions:    550   572   672
          Real-space ('12') slabs/node (min max mean):     16    17    16
         Recip-space ('23') slabs/node (min max mean):      6     7     6
********************************************************************************
ONETEP fine grid is 550 x 572 x 672 gridpoints, 139.8980 x 144.8700 x 168.1200 bohr.
FD multigrid is     545 x 569 x 665 gridpoints, 138.6262 x 144.1102 x 166.3688 bohr.


Calculating local pseudopotential in open BC on a radial grid ...
Discrepancy between calculated realspace psloc and -Z/x on [5a0,262.342a0]:
max |rel. diff| # avg |rel. diff| #  avg rel. diff #  f # pseudopotential file
 0.000258413739    0.000003708905   0.000000070960   56  'N_00.recpot'
 0.000398954828    0.000016185045  -0.000000074508   56  'H_04.recpot'
 0.000375346405    0.000017198923   0.000000144535   56  'C_01.recpot'
 0.000466850533    0.000020125278   0.000000461745   56  'S_00.recpot'
 0.000671508953    0.000026045986   0.000000155458   56  'O_02.recpot'
 0.002873965647    0.000134299806   0.000000884984   56  'F_00.recpot'
... done
 WARNING: meta-GGA functionality under development.
          Using this functional is experimental.
          Minimum tau threshold, xc_min_tau =   1.00000000E-12
 WARNING: Using alternative XC functional PBE for 
          radial densities (xc_radial).

Atom SCF Calculation for N  : Z (AE atom) =   7 : Z (PS atom) =   5
Config String:
Orbitals (num,occ):  2     2.00 3.00
Orbitals   (num,l):  2        0    1
Real-space Grid (nr,dr,rmax): 1203    0.0066555740    8.0000000000
Spherical Bessel Basis (nsws,lmax,cutoff):   47    1  176.3951722778
Confining potential (l,width,scale):  0    3.0000000000  100.0000000000
Confining potential (l,width,scale):  1    3.0000000000  100.0000000000
  1         -4.7312375307   -3.4155304497    7.0523828109   -1.9351020946
  2         -9.7309464766   -2.0532547791    8.2966052865   -2.2494486027
  3         -9.6627394379   -2.1124926340    8.2327997121   -2.2369778124
  4         -9.6814993499   -2.1215521045    8.2229805960   -2.2365178421
  5         -9.6843326483   -2.1250939529    8.2191374534   -2.2362718126
  6         -9.6859628709   -2.1267894855    8.2172963573   -2.2362066344
  7         -9.6867347035   -2.1276425665    8.2163697352   -2.2361903369
  8         -9.6870802100   -2.1280764625    8.2158983890   -2.2361891460
  9         -9.6872290423   -2.1282977424    8.2156580222   -2.2361920435
 10         -9.6872901988   -2.1284107021    8.2155353368   -2.2361953393
 11         -9.6873135296   -2.1284684031    8.2154726809   -2.2361979819
 12         -9.6873212476   -2.1284978948    8.2154406648   -2.2361998431
 13         -9.6873229586   -2.1285129774    8.2154242957   -2.2362010676
 14         -9.6873226456   -2.1285206957    8.2154159216   -2.2362018403
 15         -9.6873218534   -2.1285246479    8.2154116349   -2.2362023142
 16         -9.6873212599   -2.1285262679    8.2154098784   -2.2362025420
 17         -9.6873207834   -2.1285272564    8.2154088068   -2.2362026955
 18         -9.6873204210   -2.1285278597    8.2154081529   -2.2362027982
 19         -9.6873201550   -2.1285282280    8.2154077538   -2.2362028667
 20         -9.6873199645   -2.1285284529    8.2154075102   -2.2362029121
 21         -9.6873198305   -2.1285285903    8.2154073614   -2.2362029421
 22         -9.6873197377   -2.1285286742    8.2154072705   -2.2362029618
Atom SCF converged after  22 iterations to a total energy of     -9.68731974

Atom SCF Calculation for H  : Z (AE atom) =   1 : Z (PS atom) =   1
Config String:
Orbitals (num,occ):  1     1.00
Orbitals   (num,l):  1        0
Real-space Grid (nr,dr,rmax): 1203    0.0066555740    8.0000000000
Spherical Bessel Basis (nsws,lmax,cutoff):   47    0  176.3951722778
Confining potential (l,width,scale):  0    3.0000000000  100.0000000000
  1         -0.3194257691   -0.2393854593    0.2820953124   -0.2424203209
  2         -0.3951823392   -0.2377116493    0.2886404059   -0.2475147891
  3         -0.4317044583   -0.2352244387    0.2921333887   -0.2514046172
  4         -0.4470703708   -0.2341892222    0.2934391879   -0.2531009782
  5         -0.4532132900   -0.2338556667    0.2938388426   -0.2537313520
  6         -0.4556579251   -0.2337612552    0.2939448584   -0.2539550462
  7         -0.4566418315   -0.2337377355    0.2939680120   -0.2540342273
  8         -0.4570437922   -0.2337331116    0.2939708287   -0.2540627372
  9         -0.4572102946   -0.2337328328    0.2939698291   -0.2540732650
 10         -0.4572800424   -0.2337332404    0.2939687193   -0.2540772588
 11         -0.4573095100   -0.2337335791    0.2939680317   -0.2540788122
 12         -0.4573220379   -0.2337337762    0.2939676699   -0.2540794294
 13         -0.4573273880   -0.2337338775    0.2939674931   -0.2540796787
 14         -0.4573296803   -0.2337339266    0.2939674099   -0.2540797808
 15         -0.4573306647   -0.2337339495    0.2939673718   -0.2540798230
 16         -0.4573310882   -0.2337339601    0.2939673545   -0.2540798406
 17         -0.4573312706   -0.2337339649    0.2939673467   -0.2540798479
 18         -0.4573313493   -0.2337339670    0.2939673433   -0.2540798510
Atom SCF converged after  18 iterations to a total energy of     -0.45733135

Atom SCF Calculation for C  : Z (AE atom) =   6 : Z (PS atom) =   4
Config String:
Orbitals (num,occ):  2     2.00 2.00
Orbitals   (num,l):  2        0    1
Real-space Grid (nr,dr,rmax): 1203    0.0066555740    8.0000000000
Spherical Bessel Basis (nsws,lmax,cutoff):   47    1  176.3951722778
Confining potential (l,width,scale):  0    3.0000000000  100.0000000000
Confining potential (l,width,scale):  1    3.0000000000  100.0000000000
  1         -5.2976922011   -1.3069684169    4.5135249990   -1.4493313817
  2         -5.3721716256   -1.3429755895    4.4750154450   -1.4361613026
  3         -5.3809959565   -1.3617365618    4.4541655428   -1.4305930207
  4         -5.3918938866   -1.3667928461    4.4484735100   -1.4294652294
  5         -5.3956096428   -1.3688539142    4.4461376126   -1.4290734646
  6         -5.3968271862   -1.3696852393    4.4451910874   -1.4289366866
  7         -5.3972028401   -1.3700178062    4.4448112275   -1.4288900460
  8         -5.3973067903   -1.3701500158    4.4446598370   -1.4288749220
  9         -5.3973286940   -1.3702023868    4.4445997329   -1.4288704293
 10         -5.3973289850   -1.3702230869    4.4445759233   -1.4288693188
 11         -5.3973254264   -1.3702312560    4.4445665049   -1.4288691775
 12         -5.3973224003   -1.3702344755    4.4445627836   -1.4288692549
 13         -5.3973208708   -1.3702354890    4.4445616088   -1.4288693270
 14         -5.3973198783   -1.3702360102    4.4445610034   -1.4288693814
 15         -5.3973192535   -1.3702362780    4.4445606917   -1.4288694190
 16         -5.3973188684   -1.3702364155    4.4445605313   -1.4288694437
 17         -5.3973186349   -1.3702364860    4.4445604489   -1.4288694595
 18         -5.3973184951   -1.3702365221    4.4445604065   -1.4288694693
 19         -5.3973184122   -1.3702365405    4.4445603848   -1.4288694753
Atom SCF converged after  19 iterations to a total energy of     -5.39731841

Atom SCF Calculation for S  : Z (AE atom) =  16 : Z (PS atom) =   6
Config String:
Orbitals (num,occ):  3     2.00 4.00 0.00
Orbitals   (num,l):  3        0    1    2
Real-space Grid (nr,dr,rmax): 1203    0.0066555740    8.0000000000
Spherical Bessel Basis (nsws,lmax,cutoff):   47    2  176.3951722778
Confining potential (l,width,scale):  0    3.0000000000  100.0000000000
Confining potential (l,width,scale):  1    3.0000000000  100.0000000000
Confining potential (l,width,scale):  2    3.0000000000  100.0000000000
  1        -12.4735062396   -1.0328741412   10.1554312477   -2.4512393157
  2         -9.9458301913   -2.4607392455    8.3041325857   -2.0306994528
  3        -10.1450417646   -2.2931184565    8.4831893826   -2.0812538287
  4        -10.1528335592   -2.2733105793    8.5050388867   -2.0896035179
  5        -10.1571940363   -2.2633716629    8.5160794258   -2.0939370707
  6        -10.1594380571   -2.2584938667    8.5215163935   -2.0961289008
  7        -10.1605856507   -2.2561081821    8.5241804044   -2.0972291378
  8        -10.1611799191   -2.2549395235    8.5254868240   -2.0977806248
  9        -10.1614918752   -2.2543658586    8.5261285885   -2.0980571586
 10        -10.1616572884   -2.2540839121    8.5264441898   -2.0981959233
 11        -10.1617455602   -2.2539453058    8.5265994231   -2.0982656006
 12        -10.1617928447   -2.2538772062    8.5266757320   -2.0983006047
 13        -10.1618182292   -2.2538437891    8.5267131983   -2.0983181961
 14        -10.1618318741   -2.2538274201    8.5267315620   -2.0983270391
 15        -10.1618392144   -2.2538194197    8.5267405433   -2.0983314852
 16        -10.1618431651   -2.2538155200    8.5267449245   -2.0983337210
 17        -10.1618452923   -2.2538136252    8.5267470551   -2.0983348455
 18        -10.1618464380   -2.2538127080    8.5267480875   -2.0983354110
 19        -10.1618470552   -2.2538122659    8.5267485856   -2.0983356955
 20        -10.1618473878   -2.2538120540    8.5267488248   -2.0983358386
 21        -10.1618475670   -2.2538119530    8.5267489389   -2.0983359106
 22        -10.1618476637   -2.2538119053    8.5267489929   -2.0983359468
Atom SCF converged after  22 iterations to a total energy of    -10.16184766

Atom SCF Calculation for O  : Z (AE atom) =   8 : Z (PS atom) =   6
Config String:
Orbitals (num,occ):  2     2.00 4.00
Orbitals   (num,l):  2        0    1
Real-space Grid (nr,dr,rmax): 1203    0.0066555740    8.0000000000
Spherical Bessel Basis (nsws,lmax,cutoff):   47    1  176.3951722778
Confining potential (l,width,scale):  0    3.0000000000  100.0000000000
Confining potential (l,width,scale):  1    3.0000000000  100.0000000000
  1         -1.8735052164   -7.5539365035   10.1554312477   -2.4512393157
  2        -16.0318313751   -3.1285771268   13.6395848164   -3.2358799643
  3        -15.9524020423   -3.0762819706   13.6967272503   -3.2536856837
  4        -15.8521515939   -3.0781493909   13.6951909330   -3.2561700440
  5        -15.8357139793   -3.0748501933   13.6988803334   -3.2580493133
  6        -15.8246052853   -3.0740779781   13.6997881576   -3.2588327446
  7        -15.8189019501   -3.0737449687   13.7001869911   -3.2592378801
  8        -15.8159785510   -3.0736026016   13.7003615168   -3.2594475790
  9        -15.8144776168   -3.0735437994   13.7004360379   -3.2595560735
 10        -15.8137058024   -3.0735207882   13.7004667348   -3.2596122456
 11        -15.8133083127   -3.0735125946   13.7004786868   -3.2596413656
 12        -15.8131032938   -3.0735102195   13.7004828997   -3.2596564858
 13        -15.8129973902   -3.0735099286   13.7004840891   -3.2596643505
 14        -15.8129426040   -3.0735102506   13.7004842061   -3.2596684489
 15        -15.8129142203   -3.0735106556   13.7004840157   -3.2596705887
 16        -15.8128994940   -3.0735109855   13.7004837906   -3.2596717080
 17        -15.8128918425   -3.0735112169   13.7004836103   -3.2596722946
 18        -15.8128878614   -3.0735113674   13.7004834848   -3.2596726026
 19        -15.8128857871   -3.0735114608   13.7004834035   -3.2596727646
 20        -15.8128847048   -3.0735115170   13.7004833533   -3.2596728500
 21        -15.8128841394   -3.0735115501   13.7004833231   -3.2596728951
 22        -15.8128838436   -3.0735115693   13.7004833054   -3.2596729190
 23        -15.8128836887   -3.0735115802   13.7004832951   -3.2596729316
 24        -15.8128836074   -3.0735115864   13.7004832893   -3.2596729383
Atom SCF converged after  24 iterations to a total energy of    -15.81288361

Atom SCF Calculation for F  : Z (AE atom) =   9 : Z (PS atom) =   7
Config String:
Orbitals (num,occ):  5     2.00 5.00 0.00 0.00 0.00
Orbitals   (num,l):  5        0    1    0    1    2
Real-space Grid (nr,dr,rmax): 1203    0.0066555740    8.0000000000
Spherical Bessel Basis (nsws,lmax,cutoff):   47    2  176.3951722778
Confining potential (l,width,scale):  0    3.0000000000  100.0000000000
Confining potential (l,width,scale):  1    3.0000000000  100.0000000000
Confining potential (l,width,scale):  2    3.0000000000  100.0000000000
  1          2.7613408675  -14.5815130354   13.8226703094   -2.9941905181
  2        -23.6468980113   -4.9263326541   20.5563421412   -4.3754293297
  3        -24.5333043594   -4.3845963970   21.1176052958   -4.4841731563
  4        -24.3589864791   -4.3106783108   21.1950887716   -4.4997202795
  5        -24.2648391338   -4.2783243831   21.2295118026   -4.5072738146
  6        -24.2274338603   -4.2663478973   21.2423649225   -4.5102591768
  7        -24.2052315491   -4.2595041622   21.2497430410   -4.5120310941
  8        -24.1920610535   -4.2555995140   21.2539669715   -4.5130761189
  9        -24.1842594614   -4.2533726648   21.2563826077   -4.5136908004
 10        -24.1796430262   -4.2521035456   21.2577627107   -4.5140519045
 11        -24.1769128010   -4.2513811698   21.2585501121   -4.5142639028
 12        -24.1752983031   -4.2509707627   21.2589985394   -4.5143883165
 13        -24.1743434247   -4.2507381589   21.2592533437   -4.5144613128
 14        -24.1737784708   -4.2506067164   21.2593977374   -4.5145041342
 15        -24.1734440540   -4.2505326993   21.2594793047   -4.5145292513
 16        -24.1732459871   -4.2504911905   21.2595252124   -4.5145439823
 17        -24.1731286021   -4.2504680245   21.2595509400   -4.5145526212
 18        -24.1730589855   -4.2504551689   21.2595652865   -4.5145576869
 19        -24.1730176682   -4.2504480829   21.2595732399   -4.5145606573
 20        -24.1729931274   -4.2504442088   21.2595776183   -4.5145623987
 21        -24.1729785394   -4.2504421116   21.2595800086   -4.5145634196
 22        -24.1729698603   -4.2504409903   21.2595813001   -4.5145640181
 23        -24.1729646922   -4.2504404002   21.2595819890   -4.5145643688
 24        -24.1729616119   -4.2504400960   21.2595823505   -4.5145645744
 25        -24.1729597743   -4.2504399438   21.2595825360   -4.5145646948
 26        -24.1729586769   -4.2504398706   21.2595826284   -4.5145647654
 27        -24.1729580209   -4.2504398378   21.2595826723   -4.5145648067
 28        -24.1729576283   -4.2504398249   21.2595826917   -4.5145648309
 29        -24.1729573931   -4.2504398211   21.2595826991   -4.5145648451
 30        -24.1729572521   -4.2504398214   21.2595827010   -4.5145648534
 31        -24.1729571674   -4.2504398230   21.2595827006   -4.5145648582
Atom SCF converged after  31 iterations to a total energy of    -24.17295717
 
WARNING in ngwfs_initialise: Setting radial NGWF functions for species  6 (F):
Last NGWF on atom has m = -2 and does not complete set of m-values for l = 2.
This breaks symmetry and may cause unstable NGWF optimisation and poor 
convergence. Suggest increasing number of NGWFs per atom from   9 to  13.
NB: All NGWF radial function angular momenta:     0    1    0    1    2
 

========================== Calculation in vacuum ==============================
= Adjusting the following parameters: 
= is_implicit_solvent: F
= is_include_apolar: F
= write_denskern: T
= write_tightbox_ngwfs: T
= restart read filename prefix: ""
= restart write filename prefix: "vacuum_"
===============================================================================

Determining parallel strategy ...
... using space-filling curve
... NGWF load balancing: max    164;  min    163;  average    164
... Projector load balancing: max     36;  min     31;  average     33
... done
Calculating direct Ion-Ion energy ...
Ion-Ion Energy        :    835746.18601615680382
Basis initialisation ...... NGWF spheres initialised
... Projector spheres initialised
... NGWF tight boxes initialised
... Tight-boxes gathered
... NGWF basis size (local,global):    1273288  51077724
... Nonlocal pseudopotential projector initialisation
... done

========================== Sparse matrix information ===========================
                        Overlap matrix filling:   6.79%
                        Density kernel filling: 100.00%
              NGWF-Proj overlap matrix filling:   1.78%
                    Hamiltonian matrix filling:   7.67%
                  NGWF diagonal matrix filling:   0.05%
                             KS matrix filling: 100.00% 
                           KSKS matrix filling: 100.00% 
================================================================================

Sparse matrix initialisation ... done

Generating smeared ion density ... done
Smeared ion self correction:     -14544.936866
Smeared ion non-self correction: -835697.763496
NGWF initialisation ...... done
============ Calculation of NGWF S^-1 using Hotelling algorithm ================ 
         Iteration  |  Frobenius norm and Maximum abs value    (of I-S*S_n^-1)   
               1       0.78872453E+02     0.98379467E+00
               2       0.77111897E+02     0.96800828E+00
               3       0.74229330E+02     0.93758534E+00
               4       0.70075166E+02     0.88076342E+00
               5       0.64839726E+02     0.78018525E+00
               6       0.58899206E+02     0.70577203E+00
               7       0.52852031E+02     0.67158265E+00
               8       0.47259635E+02     0.64568087E+00
               9       0.41320759E+02     0.60814311E+00
              10       0.33312414E+02     0.54233260E+00
              11       0.22905060E+02     0.43952524E+00
              12       0.12149444E+02     0.30401751E+00
              13       0.42865465E+01     0.15817919E+00
              14       0.80168035E+00     0.54682204E-01
              15       0.73636776E-01     0.10952254E-01
              16       0.25436059E-02     0.51200716E-03
              17       0.53894497E-05     0.11710936E-05
              18       0.28213176E-10     0.62130301E-11
              19       0.52235989E-13     0.29976022E-14
================================================================================
Calculating local pseudopotential in open BC on the fine real space grid ...
... done

MG BCs: +ve charge blocks (gridpoints):     20267 (   15888987).
MG BCs: -ve charge blocks (gridpoints):      8056 (    1079425).
MG BCs:     Elided blocks (gridpoints):    189778 (  189251413).
MG BCs: Computational effort saved:  99.9863%.
MG BCs: Charge after coarse-graining:           -9.0002254.
MG DL_MG: Calling solver with defect correction order = 8
MG DL_MG: Solver finished
MG Hartree energy from (\int phi*rho dr):              1470.948089
MG Hartree energy from (\int eps (grad phi)^2 dr):     1470.338596
MG Discrepancy due to finite box and discretization:     -0.609493 (  -0.04144%)
MG Correction to account for finite box:                  0.454458
MG Remaining discrepancy, due to discretization:         -0.155035 (  -0.01054%)
 WARNING: xc_energy_potential using alternative initial XC functional PBE.
Up spin density kernel initialisation ... 
======= Optimisation of K by Palser-Manolopoulos canonical purification ======== 
         Iteration  |  Band structure energy |    c_n   
               1       -2556.89523918303621    0.5307734
               2       -2732.37804446059909    0.5199670
               3       -2917.83563396684895    0.5154159
               4       -3079.65840381719136    0.5251010
               5       -3185.74296779625547    0.5561350
               6       -3233.40908303100287    0.6024429
               7       -3249.67870798657805    0.6221253
               8       -3256.28420335359533    0.6209917
               9       -3259.50299590564646    0.6310454
              10       -3260.89179421354174    0.6523634
              11       -3261.44112383252286    0.6682643
              12       -3261.67703647834060    0.6773078
              13       -3261.78744233568705    0.6581308
              14       -3261.84802925896111    0.5916762
              15       -3261.88740314291954    0.4985930
              16       -3261.90663272296661    0.3739434
              17       -3261.90764653860651    0.3687956
              18       -3261.90796674943704    0.4154391
              19       -3261.90817640071964    0.4650580
              20       -3261.90827981487382    0.4939082
              21       -3261.90830332333053    0.4998146
              22       -3261.90831053508009    0.4999998
              23       -3261.90832025537748    0.5000000
              24       -3261.90833413438759    0.5000000
              25       -3261.90835278227132    0.5000000
              26       -3261.90837469111193    0.5000000
              27       -3261.90839397324726    0.5000000
              28       -3261.90840335465509    0.5000000
              29       -3261.90840482995645    0.5000000
              30       -3261.90840485951276    0.5000000
Termination criterion satisfied: band energy change below threshold.
Final occupancy bounds: [    0.00000000000258:    0.99999999999998]
Closest occupancy to 0.5:     0.99999999999902
================================================================================
... done

Writing density kernel to file "complex_4281.vacuum_dkn" ... done

>>> Optimising kernel for current NGWFs:
   Initial electron number for spin 1:    7234.00000000
     Final electron number for spin 1:    7234.00000000

=================== Penalty functional idempotency correction ==================
 RMS occupancy error at iteration   1:  0.000000 (step -0.5000 Ne1=   7234.0000)
            Final RMS occupancy error   :  0.000000 (Ne1=   7234.0000)
               Final occupancy bounds   : [ -0.0000,  1.0000]
================================================================================

................................................................................
<<<<<<<<<<<<<< LNV (Original version) density kernel optimisation >>>>>>>>>>>>>>
~~~~~~~~~~~~~~~~~~~~~~~~~~~~~~~~~~~~~~~~~~~~~~~~~~~~~~~~~~~~~~~~~~~~~~~~~~~~~~~~
   iter  |      energy (Eh)       | rms gradient |  commutator  |   dE (Eh)
MG BCs: +ve charge blocks (gridpoints):     30591 (   17057407).
MG BCs: -ve charge blocks (gridpoints):      8399 (    1112372).
MG BCs:     Elided blocks (gridpoints):    179451 (  188050046).
MG BCs: Computational effort saved:  99.9811%.
MG BCs: Charge after coarse-graining:           -9.0009521.
MG DL_MG: Calling solver with defect correction order = 8
MG DL_MG: Solver finished
MG Hartree energy from (\int phi*rho dr):              1425.068707
MG Hartree energy from (\int eps (grad phi)^2 dr):     1424.403362
MG Discrepancy due to finite box and discretization:     -0.665346 (  -0.04669%)
MG Correction to account for finite box:                  0.467206
MG Remaining discrepancy, due to discretization:         -0.198140 (  -0.01390%)
      ideal mu1:      -0.731660281118
             Q0:  -11541.049357987591
             G0:    -127.540920098106
   RMS gradient:       0.001724710082
MG BCs: +ve charge blocks (gridpoints):     30589 (   17137801).
MG BCs: -ve charge blocks (gridpoints):      8297 (    1089097).
MG BCs:     Elided blocks (gridpoints):    179452 (  187992927).
MG BCs: Computational effort saved:  99.9811%.
MG BCs: Charge after coarse-graining:           -9.0009739.
MG DL_MG: Calling solver with defect correction order = 8
MG DL_MG: Solver finished
MG Hartree energy from (\int phi*rho dr):              1447.536697
MG Hartree energy from (\int eps (grad phi)^2 dr):     1446.888081
MG Discrepancy due to finite box and discretization:     -0.648616 (  -0.04481%)
MG Correction to account for finite box:                  0.466261
MG Remaining discrepancy, due to discretization:         -0.182355 (  -0.01260%)
     Trial step:       0.500000000000
             Q1:  -11553.609391535167
 Quadratic coef:      51.210426501477
 Linear coef   :     -63.770460049053
           Qmin:  -11560.902109920591
Quadratic minimum step length (  0.311315802297) accepted
    Initial Ne1:    7234.00000000
      Final Ne1:    7234.00000000

=================== Penalty functional idempotency correction ==================
 RMS occupancy error at iteration   1:  0.003232 (step -0.4889 Ne1=   7234.0000)
 RMS occupancy error at iteration   2:  0.000028 (step -0.5003 Ne1=   7234.0000)
            Final RMS occupancy error   :  0.000000 (Ne1=   7234.0000)
               Final occupancy bounds   : [  0.0000,  1.0000]
================================================================================

    1        -1.154104935799E+04     1.7247E-03     1.5612E-03
MG BCs: +ve charge blocks (gridpoints):     30578 (   17108585).
MG BCs: -ve charge blocks (gridpoints):      8331 (    1098017).
MG BCs:     Elided blocks (gridpoints):    179463 (  188013223).
MG BCs: Computational effort saved:  99.9811%.
MG BCs: Charge after coarse-graining:           -9.0009662.
MG DL_MG: Calling solver with defect correction order = 8
MG DL_MG: Solver finished
MG Hartree energy from (\int phi*rho dr):              1432.488256
MG Hartree energy from (\int eps (grad phi)^2 dr):     1431.834189
MG Discrepancy due to finite box and discretization:     -0.654067 (  -0.04566%)
MG Correction to account for finite box:                  0.466495
MG Remaining discrepancy, due to discretization:         -0.187572 (  -0.01309%)
      ideal mu1:      -0.777424134243
             Q0:  -11561.287132858764
             G0:     -11.523787645655
   RMS gradient:       0.000514669743
MG BCs: +ve charge blocks (gridpoints):     30585 (   17125901).
MG BCs: -ve charge blocks (gridpoints):      8304 (    1091354).
MG BCs:     Elided blocks (gridpoints):    179456 (  188002570).
MG BCs: Computational effort saved:  99.9811%.
MG BCs: Charge after coarse-graining:           -9.0009709.
MG DL_MG: Calling solver with defect correction order = 8
MG DL_MG: Solver finished
MG Hartree energy from (\int phi*rho dr):              1437.889333
MG Hartree energy from (\int eps (grad phi)^2 dr):     1437.239272
MG Discrepancy due to finite box and discretization:     -0.650062 (  -0.04521%)
MG Correction to account for finite box:                  0.465556
MG Remaining discrepancy, due to discretization:         -0.184506 (  -0.01283%)
     Trial step:       0.394535044259
             Q1:  -11563.917274346342
 Quadratic coef:       1.916396581231
 Linear coef   :      -4.546538068808
           Qmin:  -11563.983731336028
Quadratic minimum step length (  0.468005582918) accepted
    Initial Ne1:    7233.99977080
      Final Ne1:    7234.00000000

=================== Penalty functional idempotency correction ==================
 RMS occupancy error at iteration   1:  0.001553 (step -0.4939 Ne1=   7234.0000)
 RMS occupancy error at iteration   2:  0.000012 (step -0.5003 Ne1=   7234.0000)
            Final RMS occupancy error   :  0.000000 (Ne1=   7234.0000)
               Final occupancy bounds   : [  0.0000,  1.0000]
================================================================================

    2        -1.156128713286E+04     5.1467E-04     4.6586E-04    -2.0238E+01
MG BCs: +ve charge blocks (gridpoints):     30585 (   17129110).
MG BCs: -ve charge blocks (gridpoints):      8302 (    1090101).
MG BCs:     Elided blocks (gridpoints):    179456 (  188000614).
MG BCs: Computational effort saved:  99.9811%.
MG BCs: Charge after coarse-graining:           -9.0009719.
MG DL_MG: Calling solver with defect correction order = 8
MG DL_MG: Solver finished
MG Hartree energy from (\int phi*rho dr):              1438.925856
MG Hartree energy from (\int eps (grad phi)^2 dr):     1438.276495
MG Discrepancy due to finite box and discretization:     -0.649361 (  -0.04513%)
MG Correction to account for finite box:                  0.465390
MG Remaining discrepancy, due to discretization:         -0.183971 (  -0.01279%)
      ideal mu1:      -0.800910541960
             Q0:  -11564.019161207485
             G0:      -1.942302555437
   RMS gradient:       0.000211341112
MG BCs: +ve charge blocks (gridpoints):     30580 (   17130461).
MG BCs: -ve charge blocks (gridpoints):      8302 (    1090244).
MG BCs:     Elided blocks (gridpoints):    179461 (  187999120).
MG BCs: Computational effort saved:  99.9811%.
MG BCs: Charge after coarse-graining:           -9.0009719.
MG DL_MG: Calling solver with defect correction order = 8
MG DL_MG: Solver finished
MG Hartree energy from (\int phi*rho dr):              1438.196702
MG Hartree energy from (\int eps (grad phi)^2 dr):     1437.547941
MG Discrepancy due to finite box and discretization:     -0.648762 (  -0.04511%)
MG Correction to account for finite box:                  0.465005
MG Remaining discrepancy, due to discretization:         -0.183757 (  -0.01278%)
     Trial step:       0.429702924554
             Q1:  -11564.522701121750
 Quadratic coef:       0.331073174173
 Linear coef   :      -0.834613088439
           Qmin:  -11564.545161999557
Quadratic minimum step length (  0.541626010426) accepted
    Initial Ne1:    7233.99984916
      Final Ne1:    7234.00000000

=================== Penalty functional idempotency correction ==================
 RMS occupancy error at iteration   1:  0.000639 (step -0.4964 Ne1=   7234.0000)
 RMS occupancy error at iteration   2:  0.000005 (step -0.5000 Ne1=   7234.0000)
            Final RMS occupancy error   :  0.000000 (Ne1=   7234.0000)
               Final occupancy bounds   : [  0.0000,  1.0000]
================================================================================

    3        -1.156401916121E+04     2.1134E-04     1.9130E-04    -2.7320E+00
MG BCs: +ve charge blocks (gridpoints):     30585 (   17130734).
MG BCs: -ve charge blocks (gridpoints):      8306 (    1090247).
MG BCs:     Elided blocks (gridpoints):    179456 (  187998844).
MG BCs: Computational effort saved:  99.9811%.
MG BCs: Charge after coarse-graining:           -9.0009720.
MG DL_MG: Calling solver with defect correction order = 8
MG DL_MG: Solver finished
MG Hartree energy from (\int phi*rho dr):              1438.012780
MG Hartree energy from (\int eps (grad phi)^2 dr):     1437.364161
MG Discrepancy due to finite box and discretization:     -0.648618 (  -0.04511%)
MG Correction to account for finite box:                  0.464906
MG Remaining discrepancy, due to discretization:         -0.183713 (  -0.01278%)
      ideal mu1:      -0.803872438319
             Q0:  -11564.550256292336
             G0:      -0.479785259905
   RMS gradient:       0.000105237851
MG BCs: +ve charge blocks (gridpoints):     30584 (   17131421).
MG BCs: -ve charge blocks (gridpoints):      8307 (    1090036).
MG BCs:     Elided blocks (gridpoints):    179457 (  187998368).
MG BCs: Computational effort saved:  99.9811%.
MG BCs: Charge after coarse-graining:           -9.0009719.
MG DL_MG: Calling solver with defect correction order = 8
MG DL_MG: Solver finished
MG Hartree energy from (\int phi*rho dr):              1439.140688
MG Hartree energy from (\int eps (grad phi)^2 dr):     1438.492104
MG Discrepancy due to finite box and discretization:     -0.648584 (  -0.04507%)
MG Correction to account for finite box:                  0.464701
MG Remaining discrepancy, due to discretization:         -0.183883 (  -0.01278%)
     Trial step:       0.482429560345
             Q1:  -11564.677343547693
 Quadratic coef:       0.104375336638
 Linear coef   :      -0.231462591996
           Qmin:  -11564.678579067666
Quadratic minimum step length (  0.534917539382) accepted
    Initial Ne1:    7233.99996334
      Final Ne1:    7234.00000000

=================== Penalty functional idempotency correction ==================
 RMS occupancy error at iteration   1:  0.000304 (step -0.4942 Ne1=   7234.0000)
 RMS occupancy error at iteration   2:  0.000004 (step -0.5000 Ne1=   7234.0000)
            Final RMS occupancy error   :  0.000000 (Ne1=   7234.0000)
               Final occupancy bounds   : [  0.0000,  1.0000]
================================================================================

    4        -1.156455025629E+04     1.0524E-04     9.5258E-05    -5.3110E-01
MG BCs: +ve charge blocks (gridpoints):     30585 (   17131483).
MG BCs: -ve charge blocks (gridpoints):      8306 (    1090017).
MG BCs:     Elided blocks (gridpoints):    179456 (  187998325).
MG BCs: Computational effort saved:  99.9811%.
MG BCs: Charge after coarse-graining:           -9.0009719.
MG DL_MG: Calling solver with defect correction order = 8
MG DL_MG: Solver finished
MG Hartree energy from (\int phi*rho dr):              1439.263990
MG Hartree energy from (\int eps (grad phi)^2 dr):     1438.615409
MG Discrepancy due to finite box and discretization:     -0.648581 (  -0.04506%)
MG Correction to account for finite box:                  0.464678
MG Remaining discrepancy, due to discretization:         -0.183903 (  -0.01278%)
      ideal mu1:      -0.803871524898
             Q0:  -11564.679220256861
             G0:      -0.192830084835
   RMS gradient:       0.000066894228
MG BCs: +ve charge blocks (gridpoints):     30581 (   17131071).
MG BCs: -ve charge blocks (gridpoints):      8305 (    1090299).
MG BCs:     Elided blocks (gridpoints):    179460 (  187998455).
MG BCs: Computational effort saved:  99.9811%.
MG BCs: Charge after coarse-graining:           -9.0009715.
MG DL_MG: Calling solver with defect correction order = 8
MG DL_MG: Solver finished
MG Hartree energy from (\int phi*rho dr):              1438.930285
MG Hartree energy from (\int eps (grad phi)^2 dr):     1438.281634
MG Discrepancy due to finite box and discretization:     -0.648651 (  -0.04508%)
MG Correction to account for finite box:                  0.464592
MG Remaining discrepancy, due to discretization:         -0.184059 (  -0.01279%)
     Trial step:       0.507996095797
             Q1:  -11564.740417002933
 Quadratic coef:       0.036760184177
 Linear coef   :      -0.097956930248
           Qmin:  -11564.744478092196
Quadratic minimum step length (  0.676842883629) accepted
    Initial Ne1:    7233.99998094
      Final Ne1:    7234.00000000

=================== Penalty functional idempotency correction ==================
 RMS occupancy error at iteration   1:  0.000469 (step -0.4761 Ne1=   7234.0000)
 RMS occupancy error at iteration   2:  0.000010 (step -0.5001 Ne1=   7234.0000)
            Final RMS occupancy error   :  0.000000 (Ne1=   7234.0000)
               Final occupancy bounds   : [  0.0000,  1.0000]
================================================================================

    5        -1.156467922026E+04     6.6894E-05     6.0551E-05    -1.2896E-01
MG BCs: +ve charge blocks (gridpoints):     30582 (   17130970).
MG BCs: -ve charge blocks (gridpoints):      8302 (    1090334).
MG BCs:     Elided blocks (gridpoints):    179459 (  187998521).
MG BCs: Computational effort saved:  99.9811%.
MG BCs: Charge after coarse-graining:           -9.0009714.
MG DL_MG: Calling solver with defect correction order = 8
MG DL_MG: Solver finished
MG Hartree energy from (\int phi*rho dr):              1438.819027
MG Hartree energy from (\int eps (grad phi)^2 dr):     1438.170356
MG Discrepancy due to finite box and discretization:     -0.648671 (  -0.04508%)
MG Correction to account for finite box:                  0.464560
MG Remaining discrepancy, due to discretization:         -0.184112 (  -0.01280%)
      ideal mu1:      -0.802967941586
             Q0:  -11564.744102616678
             G0:      -0.168351467368
   RMS gradient:       0.000062919599
MG BCs: +ve charge blocks (gridpoints):     30583 (   17130364).
MG BCs: -ve charge blocks (gridpoints):      8302 (    1090668).
MG BCs:     Elided blocks (gridpoints):    179458 (  187998793).
MG BCs: Computational effort saved:  99.9811%.
MG BCs: Charge after coarse-graining:           -9.0009712.
MG DL_MG: Calling solver with defect correction order = 8
MG DL_MG: Solver finished
MG Hartree energy from (\int phi*rho dr):              1437.680780
MG Hartree energy from (\int eps (grad phi)^2 dr):     1437.032342
MG Discrepancy due to finite box and discretization:     -0.648438 (  -0.04510%)
MG Correction to account for finite box:                  0.464285
MG Remaining discrepancy, due to discretization:         -0.184153 (  -0.01281%)
     Trial step:       0.586373210807
             Q1:  -11564.822046371875
 Quadratic coef:       0.020773035267
 Linear coef   :      -0.098716790465
           Qmin:  -11564.861382116213
Quadratic minimum step length (  1.393269703777) accepted
    Initial Ne1:    7233.99988742
      Final Ne1:    7234.00000000

=================== Penalty functional idempotency correction ==================
 RMS occupancy error at iteration   1:  0.004569 (step -0.3266 Ne1=   7234.0000)
 RMS occupancy error at iteration   2:  0.000214 (step -0.4989 Ne1=   7234.0000)
 RMS occupancy error at iteration   3:  0.000003 (step -0.5000 Ne1=   7234.0000)
            Final RMS occupancy error   :  0.000000 (Ne1=   7234.0000)
               Final occupancy bounds   : [  0.0000,  1.0000]
================================================================================

    6        -1.156474410262E+04     6.2920E-05     5.6953E-05    -6.4882E-02
MG BCs: +ve charge blocks (gridpoints):     30582 (   17129651).
MG BCs: -ve charge blocks (gridpoints):      8306 (    1091163).
MG BCs:     Elided blocks (gridpoints):    179459 (  187999011).
MG BCs: Computational effort saved:  99.9811%.
MG BCs: Charge after coarse-graining:           -9.0009708.
MG DL_MG: Calling solver with defect correction order = 8
MG DL_MG: Solver finished
MG Hartree energy from (\int phi*rho dr):              1436.143182
MG Hartree energy from (\int eps (grad phi)^2 dr):     1435.495041
MG Discrepancy due to finite box and discretization:     -0.648141 (  -0.04513%)
MG Correction to account for finite box:                  0.463932
MG Remaining discrepancy, due to discretization:         -0.184210 (  -0.01283%)
      ideal mu1:      -0.802562367113
             Q0:  -11564.828391775722
             G0:      -0.417618543622
   RMS gradient:       0.000098691833
MG BCs: +ve charge blocks (gridpoints):     30585 (   17132999).
MG BCs: -ve charge blocks (gridpoints):      8299 (    1089062).
MG BCs:     Elided blocks (gridpoints):    179456 (  187997764).
MG BCs: Computational effort saved:  99.9811%.
MG BCs: Charge after coarse-graining:           -9.0009723.
MG DL_MG: Calling solver with defect correction order = 8
MG DL_MG: Solver finished
MG Hartree energy from (\int phi*rho dr):              1441.286051
MG Hartree energy from (\int eps (grad phi)^2 dr):     1440.638614
MG Discrepancy due to finite box and discretization:     -0.647437 (  -0.04492%)
MG Correction to account for finite box:                  0.463339
MG Remaining discrepancy, due to discretization:         -0.184098 (  -0.01277%)
     Trial step:       0.903867263332
             Q1:  -11564.920744187199
 Quadratic coef:       0.285119318663
 Linear coef   :      -0.377471730140
           Qmin:  -11564.953326230991
Quadratic minimum step length (  0.598318523814) accepted
    Initial Ne1:    7233.99999967
      Final Ne1:    7234.00000000

=================== Penalty functional idempotency correction ==================
 RMS occupancy error at iteration   1:  0.000197 (step -0.4874 Ne1=   7234.0000)
 RMS occupancy error at iteration   2:  0.000001 (step -0.5000 Ne1=   7234.0000)
            Final RMS occupancy error   :  0.000000 (Ne1=   7234.0000)
               Final occupancy bounds   : [  0.0000,  1.0000]
================================================================================

    7        -1.156482839178E+04     9.8692E-05     8.9333E-05    -8.4289E-02
MG BCs: +ve charge blocks (gridpoints):     30582 (   17131934).
MG BCs: -ve charge blocks (gridpoints):      8298 (    1089750).
MG BCs:     Elided blocks (gridpoints):    179459 (  187998141).
MG BCs: Computational effort saved:  99.9811%.
MG BCs: Charge after coarse-graining:           -9.0009717.
MG DL_MG: Calling solver with defect correction order = 8
MG DL_MG: Solver finished
MG Hartree energy from (\int phi*rho dr):              1439.538647
MG Hartree energy from (\int eps (grad phi)^2 dr):     1438.890969
MG Discrepancy due to finite box and discretization:     -0.647678 (  -0.04499%)
MG Correction to account for finite box:                  0.463544
MG Remaining discrepancy, due to discretization:         -0.184133 (  -0.01279%)
      ideal mu1:      -0.804468507513
             Q0:  -11564.953738260665
             G0:      -0.258526937862
   RMS gradient:       0.000077538885
MG BCs: +ve charge blocks (gridpoints):     30584 (   17131742).
MG BCs: -ve charge blocks (gridpoints):      8301 (    1089753).
MG BCs:     Elided blocks (gridpoints):    179457 (  187998330).
MG BCs: Computational effort saved:  99.9811%.
MG BCs: Charge after coarse-graining:           -9.0009720.
MG DL_MG: Calling solver with defect correction order = 8
MG DL_MG: Solver finished
MG Hartree energy from (\int phi*rho dr):              1439.162645
MG Hartree energy from (\int eps (grad phi)^2 dr):     1438.515809
MG Discrepancy due to finite box and discretization:     -0.646836 (  -0.04495%)
MG Correction to account for finite box:                  0.462905
MG Remaining discrepancy, due to discretization:         -0.183930 (  -0.01278%)
     Trial step:       0.735391410557
             Q1:  -11565.058296765084
 Quadratic coef:       0.085559985082
 Linear coef   :      -0.190118489501
           Qmin:  -11565.059351416206
Quadratic minimum step length (  0.817037918095) accepted
    Initial Ne1:    7233.99999949
      Final Ne1:    7234.00000000

=================== Penalty functional idempotency correction ==================
 RMS occupancy error at iteration   1:  0.001302 (step -0.4256 Ne1=   7234.0000)
 RMS occupancy error at iteration   2:  0.000044 (step -0.4981 Ne1=   7234.0000)
 RMS occupancy error at iteration   3:  0.000000 (step -0.5000 Ne1=   7234.0000)
            Final RMS occupancy error   :  0.000000 (Ne1=   7234.0000)
               Final occupancy bounds   : [  0.0000,  1.0000]
================================================================================

    8        -1.156495373826E+04     7.7539E-05     7.0186E-05    -1.2535E-01
MG BCs: +ve charge blocks (gridpoints):     30584 (   17131729).
MG BCs: -ve charge blocks (gridpoints):      8301 (    1089775).
MG BCs:     Elided blocks (gridpoints):    179457 (  187998321).
MG BCs: Computational effort saved:  99.9811%.
MG BCs: Charge after coarse-graining:           -9.0009720.
MG DL_MG: Calling solver with defect correction order = 8
MG DL_MG: Solver finished
MG Hartree energy from (\int phi*rho dr):              1439.123544
MG Hartree energy from (\int eps (grad phi)^2 dr):     1438.476787
MG Discrepancy due to finite box and discretization:     -0.646757 (  -0.04494%)
MG Correction to account for finite box:                  0.462848
MG Remaining discrepancy, due to discretization:         -0.183908 (  -0.01278%)
      ideal mu1:      -0.804057000721
             Q0:  -11565.058888404281
             G0:      -0.217548572924
   RMS gradient:       0.000071094949
MG BCs: +ve charge blocks (gridpoints):     30584 (   17130300).
MG BCs: -ve charge blocks (gridpoints):      8303 (    1090499).
MG BCs:     Elided blocks (gridpoints):    179457 (  187999026).
MG BCs: Computational effort saved:  99.9811%.
MG BCs: Charge after coarse-graining:           -9.0009718.
MG DL_MG: Calling solver with defect correction order = 8
MG DL_MG: Solver finished
MG Hartree energy from (\int phi*rho dr):              1437.293352
MG Hartree energy from (\int eps (grad phi)^2 dr):     1436.647304
MG Discrepancy due to finite box and discretization:     -0.646048 (  -0.04495%)
MG Correction to account for finite box:                  0.462285
MG Remaining discrepancy, due to discretization:         -0.183763 (  -0.01279%)
     Trial step:       0.775140417645
             Q1:  -11565.124596260604
 Quadratic coef:       0.102922835351
 Linear coef   :      -0.168630691674
           Qmin:  -11565.127960321310
Quadratic minimum step length (  0.635002253516) accepted
    Initial Ne1:    7233.99999967
      Final Ne1:    7234.00000000

=================== Penalty functional idempotency correction ==================
 RMS occupancy error at iteration   1:  0.002259 (step -0.3882 Ne1=   7234.0000)
 RMS occupancy error at iteration   2:  0.000096 (step -0.4963 Ne1=   7234.0000)
 RMS occupancy error at iteration   3:  0.000001 (step -0.5000 Ne1=   7234.0000)
            Final RMS occupancy error   :  0.000000 (Ne1=   7234.0000)
               Final occupancy bounds   : [  0.0000,  1.0000]
================================================================================

    9        -1.156505888840E+04     7.1095E-05     6.4353E-05    -1.0515E-01
MG BCs: +ve charge blocks (gridpoints):     30583 (   17130544).
MG BCs: -ve charge blocks (gridpoints):      8303 (    1090386).
MG BCs:     Elided blocks (gridpoints):    179458 (  187998895).
MG BCs: Computational effort saved:  99.9811%.
MG BCs: Charge after coarse-graining:           -9.0009718.
MG DL_MG: Calling solver with defect correction order = 8
MG DL_MG: Solver finished
MG Hartree energy from (\int phi*rho dr):              1437.621999
MG Hartree energy from (\int eps (grad phi)^2 dr):     1436.975886
MG Discrepancy due to finite box and discretization:     -0.646112 (  -0.04494%)
MG Correction to account for finite box:                  0.462323
MG Remaining discrepancy, due to discretization:         -0.183790 (  -0.01278%)
      ideal mu1:      -0.803701835347
   10        -1.156512975698E+04     5.4567E-05     4.9392E-05    -7.0869E-02
Finished density kernel iterations (  10)

Writing density kernel to file "complex_4281.vacuum_dkn" ... done


>>> Density kernel optimised for the current NGWF basis:
     ~~~~~~~~~~~~~~~~~~~~~~~~~~~~~~~~~~~~~~~~~~~~~~~~~~~~~~~~~~~
     Total energy                =  -1.15651297569837E+04  Eh
     Estimated bandgap           =  -4.3425E-01  Eh
     RMS occupancy error         =   9.6326E-11
     [H,K] commutator            =   4.9392E-05
     Occupancy bounds            = [  0.000:  1.000]
     ~~~~~~~~~~~~~~~~~~~~~~~~~~~~~~~~~~~~~~~~~~~~~~~~~~~~~~~~~~~




################################################################################
########################### NGWF CG iteration  001 #############################
################################################################################
****** Reciprocal space K.E. preconditioning with k_zero =  3.5000 a0^-1 *******

>>> Checking for convergence of NGWFs:   NOT CONVERGED
  ========================================================================
         NGWF RMS gradient =  1.6629E-03 >  2.0000E-06  | above tolerance
  ========================================================================

>>> Improving NGWFs using line search:
============ Calculation of NGWF S^-1 using Hotelling algorithm ================ 
         Iteration  |  Frobenius norm and Maximum abs value    (of I-S*S_n^-1)   
               1       0.24351810E+00     0.67314126E-02
               2       0.13779458E-02     0.60376646E-04
               3       0.75407882E-07     0.54767192E-08
               4       0.13523310E-12     0.84376950E-14
================================================================================
MG BCs: +ve charge blocks (gridpoints):     30190 (   17079485).
MG BCs: -ve charge blocks (gridpoints):      8305 (    1086980).
MG BCs:     Elided blocks (gridpoints):    179854 (  188053360).
MG BCs: Computational effort saved:  99.9813%.
MG BCs: Charge after coarse-graining:           -9.0009768.
MG DL_MG: Calling solver with defect correction order = 8
MG DL_MG: Solver finished
MG Hartree energy from (\int phi*rho dr):              1409.106554
MG Hartree energy from (\int eps (grad phi)^2 dr):     1408.461898
MG Discrepancy due to finite box and discretization:     -0.644656 (  -0.04575%)
MG Correction to account for finite box:                  0.462259
MG Remaining discrepancy, due to discretization:         -0.182397 (  -0.01294%)
============ Calculation of NGWF S^-1 using Hotelling algorithm ================ 
         Iteration  |  Frobenius norm and Maximum abs value    (of I-S*S_n^-1)   
               1       0.21726231E+01     0.52052767E-01
               2       0.97327473E-01     0.34901954E-02
               3       0.27604903E-03     0.16972517E-04
               4       0.40682287E-08     0.43851212E-09
               5       0.11707803E-12     0.57731597E-14
================================================================================
------------------------------- NGWF line search -------------------------------
RMS gradient                =       0.00166290633056
Trial step length           =               0.122474
Gradient along search dir.  =       -301.18370484892
Functional at step 0        =  -11565.12975698371883
Functional at step 1        =  -11599.09508076030761
Functional predicted        =  -11681.54627129408436
Selected quadratic step     =               0.773060
--------------------------- NGWF line search finished --------------------------
                                               
Writing NGWFs to file "complex_4281.vacuum_tightbox_ngwfs"....  done

>>> Optimising kernel for current NGWFs:
   Initial electron number for spin 1:    7280.14401789
     Final electron number for spin 1:    7234.00000000

=================== Penalty functional idempotency correction ==================
 RMS occupancy error at iteration   1:  0.005268 (step -0.4824 Ne1=   7234.0000)
 RMS occupancy error at iteration   2:  0.000099 (step -0.5003 Ne1=   7234.0000)
            Final RMS occupancy error   :  0.000000 (Ne1=   7234.0000)
               Final occupancy bounds   : [  0.0000,  1.0000]
================================================================================

................................................................................
<<<<<<<<<<<<<< LNV (Original version) density kernel optimisation >>>>>>>>>>>>>>
~~~~~~~~~~~~~~~~~~~~~~~~~~~~~~~~~~~~~~~~~~~~~~~~~~~~~~~~~~~~~~~~~~~~~~~~~~~~~~~~
   iter  |      energy (Eh)       | rms gradient |  commutator  |   dE (Eh)
MG BCs: +ve charge blocks (gridpoints):     24919 (   16809642).
MG BCs: -ve charge blocks (gridpoints):      8402 (    1057184).
MG BCs:     Elided blocks (gridpoints):    185126 (  188352999).
MG BCs: Computational effort saved:  99.9838%.
MG BCs: Charge after coarse-graining:           -9.0007431.
MG DL_MG: Calling solver with defect correction order = 8
MG DL_MG: Solver finished
MG Hartree energy from (\int phi*rho dr):              1279.492084
MG Hartree energy from (\int eps (grad phi)^2 dr):     1278.850166
MG Discrepancy due to finite box and discretization:     -0.641919 (  -0.05017%)
MG Correction to account for finite box:                  0.461993
MG Remaining discrepancy, due to discretization:         -0.179926 (  -0.01406%)
      ideal mu1:      -0.747485576000
             Q0:  -11680.922705163131
             G0:      -9.771731381270
   RMS gradient:       0.000477394146
MG BCs: +ve charge blocks (gridpoints):     24985 (   16822610).
MG BCs: -ve charge blocks (gridpoints):      8376 (    1053702).
MG BCs:     Elided blocks (gridpoints):    185060 (  188343513).
MG BCs: Computational effort saved:  99.9838%.
MG BCs: Charge after coarse-graining:           -9.0007391.
MG DL_MG: Calling solver with defect correction order = 8
MG DL_MG: Solver finished
MG Hartree energy from (\int phi*rho dr):              1292.933878
MG Hartree energy from (\int eps (grad phi)^2 dr):     1292.287618
MG Discrepancy due to finite box and discretization:     -0.646260 (  -0.04998%)
MG Correction to account for finite box:                  0.461131
MG Remaining discrepancy, due to discretization:         -0.185128 (  -0.01432%)
     Trial step:       0.701581008862
             Q1:  -11680.594545189640
 Quadratic coef:       7.183821134289
 Linear coef   :      -6.855661160799
           Qmin:  -11682.558328081392
Quadratic minimum step length (  0.334766246521) accepted
    Initial Ne1:    7233.99894415
      Final Ne1:    7234.00000000

=================== Penalty functional idempotency correction ==================
 RMS occupancy error at iteration   1:  0.000366 (step -0.4985 Ne1=   7234.0000)
 RMS occupancy error at iteration   2:  0.000000 (step -0.5000 Ne1=   7234.0000)
            Final RMS occupancy error   :  0.000000 (Ne1=   7234.0000)
               Final occupancy bounds   : [  0.0000,  1.0000]
================================================================================

    1        -1.168092270516E+04     4.7739E-04     4.3212E-04
MG BCs: +ve charge blocks (gridpoints):     24953 (   16815889).
MG BCs: -ve charge blocks (gridpoints):      8388 (    1055396).
MG BCs:     Elided blocks (gridpoints):    185092 (  188348540).
MG BCs: Computational effort saved:  99.9838%.
MG BCs: Charge after coarse-graining:           -9.0007413.
MG DL_MG: Calling solver with defect correction order = 8
MG DL_MG: Solver finished
MG Hartree energy from (\int phi*rho dr):              1285.000213
MG Hartree energy from (\int eps (grad phi)^2 dr):     1284.356320
MG Discrepancy due to finite box and discretization:     -0.643892 (  -0.05011%)
MG Correction to account for finite box:                  0.461555
MG Remaining discrepancy, due to discretization:         -0.182337 (  -0.01419%)
      ideal mu1:      -0.753023040455
             Q0:  -11682.539343197015
             G0:      -0.903269468528
   RMS gradient:       0.000145539036
MG BCs: +ve charge blocks (gridpoints):     24958 (   16815130).
MG BCs: -ve charge blocks (gridpoints):      8394 (    1056253).
MG BCs:     Elided blocks (gridpoints):    185087 (  188348442).
MG BCs: Computational effort saved:  99.9838%.
MG BCs: Charge after coarse-graining:           -9.0007412.
MG DL_MG: Calling solver with defect correction order = 8
MG DL_MG: Solver finished
MG Hartree energy from (\int phi*rho dr):              1285.497461
MG Hartree energy from (\int eps (grad phi)^2 dr):     1284.853372
MG Discrepancy due to finite box and discretization:     -0.644089 (  -0.05010%)
MG Correction to account for finite box:                  0.461441
MG Remaining discrepancy, due to discretization:         -0.182648 (  -0.01421%)
     Trial step:       0.484629385167
             Q1:  -11682.744386872742
 Quadratic coef:       0.232707251445
 Linear coef   :      -0.437750927172
           Qmin:  -11682.745209014529
Quadratic minimum step length (  0.455823704191) accepted
    Initial Ne1:    7233.99986637
      Final Ne1:    7234.00000000

=================== Penalty functional idempotency correction ==================
 RMS occupancy error at iteration   1:  0.000149 (step -0.4990 Ne1=   7234.0000)
 RMS occupancy error at iteration   2:  0.000000 (step -0.5000 Ne1=   7234.0000)
            Final RMS occupancy error   :  0.000000 (Ne1=   7234.0000)
               Final occupancy bounds   : [  0.0000,  1.0000]
================================================================================

    2        -1.168253934320E+04     1.4554E-04     1.3174E-04    -1.6166E+00
MG BCs: +ve charge blocks (gridpoints):     24958 (   16815199).
MG BCs: -ve charge blocks (gridpoints):      8393 (    1056191).
MG BCs:     Elided blocks (gridpoints):    185087 (  188348435).
MG BCs: Computational effort saved:  99.9838%.
MG BCs: Charge after coarse-graining:           -9.0007412.
MG DL_MG: Calling solver with defect correction order = 8
MG DL_MG: Solver finished
MG Hartree energy from (\int phi*rho dr):              1285.468240
MG Hartree energy from (\int eps (grad phi)^2 dr):     1284.824163
MG Discrepancy due to finite box and discretization:     -0.644077 (  -0.05010%)
MG Correction to account for finite box:                  0.461448
MG Remaining discrepancy, due to discretization:         -0.182629 (  -0.01421%)
      ideal mu1:      -0.753550985469
             Q0:  -11682.745615063468
             G0:      -0.190187171248
   RMS gradient:       0.000066534431
MG BCs: +ve charge blocks (gridpoints):     24958 (   16814339).
MG BCs: -ve charge blocks (gridpoints):      8396 (    1056600).
MG BCs:     Elided blocks (gridpoints):    185087 (  188348886).
MG BCs: Computational effort saved:  99.9838%.
MG BCs: Charge after coarse-graining:           -9.0007412.
MG DL_MG: Calling solver with defect correction order = 8
MG DL_MG: Solver finished
MG Hartree energy from (\int phi*rho dr):              1284.790209
MG Hartree energy from (\int eps (grad phi)^2 dr):     1284.146305
MG Discrepancy due to finite box and discretization:     -0.643904 (  -0.05012%)
MG Correction to account for finite box:                  0.461343
MG Remaining discrepancy, due to discretization:         -0.182561 (  -0.01421%)
     Trial step:       0.470005916459
             Q1:  -11682.804046551348
 Quadratic coef:       0.030957607842
 Linear coef   :      -0.089389095721
           Qmin:  -11682.810142097296
Quadratic minimum step length (  0.678563474133) accepted
    Initial Ne1:    7233.99995842
      Final Ne1:    7234.00000000

=================== Penalty functional idempotency correction ==================
 RMS occupancy error at iteration   1:  0.000174 (step -0.4903 Ne1=   7234.0000)
 RMS occupancy error at iteration   2:  0.000002 (step -0.5000 Ne1=   7234.0000)
            Final RMS occupancy error   :  0.000000 (Ne1=   7234.0000)
               Final occupancy bounds   : [  0.0000,  1.0000]
================================================================================

    3        -1.168274561506E+04     6.6534E-05     6.0225E-05    -2.0627E-01
MG BCs: +ve charge blocks (gridpoints):     24956 (   16813938).
MG BCs: -ve charge blocks (gridpoints):      8398 (    1056821).
MG BCs:     Elided blocks (gridpoints):    185089 (  188349066).
MG BCs: Computational effort saved:  99.9838%.
MG BCs: Charge after coarse-graining:           -9.0007412.
MG DL_MG: Calling solver with defect correction order = 8
MG DL_MG: Solver finished
MG Hartree energy from (\int phi*rho dr):              1284.488677
MG Hartree energy from (\int eps (grad phi)^2 dr):     1283.844849
MG Discrepancy due to finite box and discretization:     -0.643828 (  -0.05012%)
MG Correction to account for finite box:                  0.461297
MG Remaining discrepancy, due to discretization:         -0.182532 (  -0.01421%)
      ideal mu1:      -0.752711855868
             Q0:  -11682.810198291088
             G0:      -0.066314020055
   RMS gradient:       0.000039289547
MG BCs: +ve charge blocks (gridpoints):     24957 (   16813849).
MG BCs: -ve charge blocks (gridpoints):      8396 (    1056830).
MG BCs:     Elided blocks (gridpoints):    185088 (  188349146).
MG BCs: Computational effort saved:  99.9838%.
MG BCs: Charge after coarse-graining:           -9.0007413.
MG DL_MG: Calling solver with defect correction order = 8
MG DL_MG: Solver finished
MG Hartree energy from (\int phi*rho dr):              1284.531234
MG Hartree energy from (\int eps (grad phi)^2 dr):     1283.887593
MG Discrepancy due to finite box and discretization:     -0.643641 (  -0.05011%)
MG Correction to account for finite box:                  0.461213
MG Remaining discrepancy, due to discretization:         -0.182427 (  -0.01420%)
     Trial step:       0.564737857360
             Q1:  -11682.835085785366
 Quadratic coef:       0.012562543321
 Linear coef   :      -0.037450037599
           Qmin:  -11682.838108748396
Quadratic minimum step length (  0.841766410315) accepted
    Initial Ne1:    7233.99998151
      Final Ne1:    7234.00000000

=================== Penalty functional idempotency correction ==================
 RMS occupancy error at iteration   1:  0.000365 (step -0.4728 Ne1=   7234.0000)
 RMS occupancy error at iteration   2:  0.000004 (step -0.5000 Ne1=   7234.0000)
            Final RMS occupancy error   :  0.000000 (Ne1=   7234.0000)
               Final occupancy bounds   : [  0.0000,  1.0000]
================================================================================

    4        -1.168281019829E+04     3.9290E-05     3.5564E-05    -6.4583E-02
MG BCs: +ve charge blocks (gridpoints):     24956 (   16813805).
MG BCs: -ve charge blocks (gridpoints):      8396 (    1056846).
MG BCs:     Elided blocks (gridpoints):    185089 (  188349174).
MG BCs: Computational effort saved:  99.9838%.
MG BCs: Charge after coarse-graining:           -9.0007413.
MG DL_MG: Calling solver with defect correction order = 8
MG DL_MG: Solver finished
MG Hartree energy from (\int phi*rho dr):              1284.553437
MG Hartree energy from (\int eps (grad phi)^2 dr):     1283.909886
MG Discrepancy due to finite box and discretization:     -0.643551 (  -0.05010%)
MG Correction to account for finite box:                  0.461174
MG Remaining discrepancy, due to discretization:         -0.182377 (  -0.01420%)
      ideal mu1:      -0.753150358604
             Q0:  -11682.837931471877
             G0:      -0.067405133247
   RMS gradient:       0.000039718414
MG BCs: +ve charge blocks (gridpoints):     24955 (   16815078).
MG BCs: -ve charge blocks (gridpoints):      8394 (    1056393).
MG BCs:     Elided blocks (gridpoints):    185090 (  188348354).
MG BCs: Computational effort saved:  99.9838%.
MG BCs: Charge after coarse-graining:           -9.0007411.
MG DL_MG: Calling solver with defect correction order = 8
MG DL_MG: Solver finished
MG Hartree energy from (\int phi*rho dr):              1285.342576
MG Hartree energy from (\int eps (grad phi)^2 dr):     1284.699251
MG Discrepancy due to finite box and discretization:     -0.643326 (  -0.05005%)
MG Correction to account for finite box:                  0.461000
MG Remaining discrepancy, due to discretization:         -0.182326 (  -0.01419%)
     Trial step:       0.689476148216
             Q1:  -11682.863801603089
 Quadratic coef:       0.020604100429
 Linear coef   :      -0.046474231641
           Qmin:  -11682.864138078348
Quadratic minimum step length (  0.777584887368) accepted
    Initial Ne1:    7233.99997924
      Final Ne1:    7234.00000000

=================== Penalty functional idempotency correction ==================
 RMS occupancy error at iteration   1:  0.001090 (step -0.4257 Ne1=   7234.0000)
 RMS occupancy error at iteration   2:  0.000027 (step -0.4983 Ne1=   7234.0000)
            Final RMS occupancy error   :  0.000000 (Ne1=   7234.0000)
               Final occupancy bounds   : [ -0.0000,  1.0000]
================================================================================

    5        -1.168283793147E+04     3.9718E-05     3.5952E-05    -2.7733E-02
MG BCs: +ve charge blocks (gridpoints):     24955 (   16815219).
MG BCs: -ve charge blocks (gridpoints):      8393 (    1056348).
MG BCs:     Elided blocks (gridpoints):    185090 (  188348258).
MG BCs: Computational effort saved:  99.9838%.
MG BCs: Charge after coarse-graining:           -9.0007410.
MG DL_MG: Calling solver with defect correction order = 8
MG DL_MG: Solver finished
MG Hartree energy from (\int phi*rho dr):              1285.444824
MG Hartree energy from (\int eps (grad phi)^2 dr):     1284.801527
MG Discrepancy due to finite box and discretization:     -0.643298 (  -0.05004%)
MG Correction to account for finite box:                  0.460978
MG Remaining discrepancy, due to discretization:         -0.182320 (  -0.01418%)
      ideal mu1:      -0.754215416300
             Q0:  -11682.864523585071
             G0:      -0.054147841876
   RMS gradient:       0.000034721740
MG BCs: +ve charge blocks (gridpoints):     24957 (   16815189).
MG BCs: -ve charge blocks (gridpoints):      8396 (    1056440).
MG BCs:     Elided blocks (gridpoints):    185088 (  188348196).
MG BCs: Computational effort saved:  99.9838%.
MG BCs: Charge after coarse-graining:           -9.0007410.
MG DL_MG: Calling solver with defect correction order = 8
MG DL_MG: Solver finished
MG Hartree energy from (\int phi*rho dr):              1285.172753
MG Hartree energy from (\int eps (grad phi)^2 dr):     1284.529543
MG Discrepancy due to finite box and discretization:     -0.643210 (  -0.05005%)
MG Correction to account for finite box:                  0.460864
MG Remaining discrepancy, due to discretization:         -0.182346 (  -0.01419%)
     Trial step:       0.732206414239
             Q1:  -11682.887201234815
 Quadratic coef:       0.016969747396
 Linear coef   :      -0.039647397139
           Qmin:  -11682.887681208800
Quadratic minimum step length (  0.855347985333) accepted
    Initial Ne1:    7234.00102603
      Final Ne1:    7234.00000000

=================== Penalty functional idempotency correction ==================
 RMS occupancy error at iteration   1:  0.001902 (step -0.3847 Ne1=   7234.0000)
 RMS occupancy error at iteration   2:  0.000072 (step -0.4947 Ne1=   7234.0000)
 RMS occupancy error at iteration   3:  0.000000 (step -0.5000 Ne1=   7234.0000)
            Final RMS occupancy error   :  0.000000 (Ne1=   7234.0000)
               Final occupancy bounds   : [  0.0000,  1.0000]
================================================================================

[...]
 RMS occupancy error at iteration   1:  0.000000 (step -0.5000 Ne1=   7234.0000)
            Final RMS occupancy error   :  0.000000 (Ne1=   7234.0000)
               Final occupancy bounds   : [ -0.0000,  1.0000]
================================================================================

    7        -1.171939511824E+04     3.4980E-09     3.1663E-09     0.0000E+00

Reusing previously generated solute cavity.
MG BCs: +ve charge blocks (gridpoints):     29312 (   18964120).
MG BCs: -ve charge blocks (gridpoints):      8423 (    1034103).
MG BCs:     Elided blocks (gridpoints):    180733 (  186221602).
MG BCs: Computational effort saved:  99.9817%.
MG BCs: Charge after coarse-graining:           -9.0009773.
MG DL_MG: Calling solver with defect correction order = 8
MG DL_MG: Solver finished
MG Hartree energy from (\int phi*rho dr):              1235.685725
MG Hartree energy from (\int eps (grad phi)^2 dr):     1235.497887
MG Discrepancy due to finite box and discretization:     -0.187838 (  -0.01520%)
MG Correction to account for finite box:                  0.006275
MG Remaining discrepancy, due to discretization:         -0.181563 (  -0.01469%)
      ideal mu1:      -0.514469718714
             Q0:  -11719.395118239801
             G0:      -0.000000000870
   RMS gradient:       0.000000003246

Reusing previously generated solute cavity.
MG BCs: +ve charge blocks (gridpoints):     29312 (   18964120).
MG BCs: -ve charge blocks (gridpoints):      8423 (    1034103).
MG BCs:     Elided blocks (gridpoints):    180733 (  186221602).
MG BCs: Computational effort saved:  99.9817%.
MG BCs: Charge after coarse-graining:           -9.0009773.
MG DL_MG: Calling solver with defect correction order = 8
MG DL_MG: Solver finished
MG Hartree energy from (\int phi*rho dr):              1235.685731
MG Hartree energy from (\int eps (grad phi)^2 dr):     1235.497893
MG Discrepancy due to finite box and discretization:     -0.187838 (  -0.01520%)
MG Correction to account for finite box:                  0.006275
MG Remaining discrepancy, due to discretization:         -0.181563 (  -0.01469%)
     Trial step:       0.088208063359
             Q1:  -11719.395118239685
 Quadratic coef:       0.000000000193
 Linear coef   :      -0.000000000077
           Qmin:  -11719.395118239809
Quadratic minimum step length (  0.017561645770) accepted
    Initial Ne1:    7234.00000000
      Final Ne1:    7234.00000000

=================== Penalty functional idempotency correction ==================
 RMS occupancy error at iteration   1:  0.000000 (step -0.5000 Ne1=   7234.0000)
            Final RMS occupancy error   :  0.000000 (Ne1=   7234.0000)
               Final occupancy bounds   : [ -0.0000,  1.0000]
================================================================================

    8        -1.171939511824E+04     3.2455E-09     2.9377E-09     1.1642E-10

Reusing previously generated solute cavity.
MG BCs: +ve charge blocks (gridpoints):     29312 (   18964120).
MG BCs: -ve charge blocks (gridpoints):      8423 (    1034103).
MG BCs:     Elided blocks (gridpoints):    180733 (  186221602).
MG BCs: Computational effort saved:  99.9817%.
MG BCs: Charge after coarse-graining:           -9.0009773.
MG DL_MG: Calling solver with defect correction order = 8
MG DL_MG: Solver finished
MG Hartree energy from (\int phi*rho dr):              1235.685726
MG Hartree energy from (\int eps (grad phi)^2 dr):     1235.497888
MG Discrepancy due to finite box and discretization:     -0.187838 (  -0.01520%)
MG Correction to account for finite box:                  0.006275
MG Remaining discrepancy, due to discretization:         -0.181563 (  -0.01469%)
      ideal mu1:      -0.514469718707
             Q0:  -11719.395118239801
             G0:      -0.000000001078
   RMS gradient:       0.000000003006

Reusing previously generated solute cavity.
MG BCs: +ve charge blocks (gridpoints):     29312 (   18964120).
MG BCs: -ve charge blocks (gridpoints):      8423 (    1034103).
MG BCs:     Elided blocks (gridpoints):    180733 (  186221602).
MG BCs: Computational effort saved:  99.9817%.
MG BCs: Charge after coarse-graining:           -9.0009773.
MG DL_MG: Calling solver with defect correction order = 8
MG DL_MG: Solver finished
MG Hartree energy from (\int phi*rho dr):              1235.685730
MG Hartree energy from (\int eps (grad phi)^2 dr):     1235.497892
MG Discrepancy due to finite box and discretization:     -0.187838 (  -0.01520%)
MG Correction to account for finite box:                  0.006275
MG Remaining discrepancy, due to discretization:         -0.181563 (  -0.01469%)
     Trial step:       0.039358337907
             Q1:  -11719.395118239685
 Quadratic coef:       0.000000000158
 Linear coef   :      -0.000000000042
           Qmin:  -11719.395118239805
Quadratic minimum step length (  0.005275146047) accepted
    Initial Ne1:    7234.00000000
      Final Ne1:    7234.00000000

=================== Penalty functional idempotency correction ==================
 RMS occupancy error at iteration   1:  0.000000 (step -0.5000 Ne1=   7234.0000)
            Final RMS occupancy error   :  0.000000 (Ne1=   7234.0000)
               Final occupancy bounds   : [  0.0000,  1.0000]
================================================================================

    9        -1.171939511824E+04     3.0058E-09     2.7208E-09     0.0000E+00

Reusing previously generated solute cavity.
MG BCs: +ve charge blocks (gridpoints):     29312 (   18964120).
MG BCs: -ve charge blocks (gridpoints):      8423 (    1034103).
MG BCs:     Elided blocks (gridpoints):    180733 (  186221602).
MG BCs: Computational effort saved:  99.9817%.
MG BCs: Charge after coarse-graining:           -9.0009773.
MG DL_MG: Calling solver with defect correction order = 8
MG DL_MG: Solver finished
MG Hartree energy from (\int phi*rho dr):              1235.685727
MG Hartree energy from (\int eps (grad phi)^2 dr):     1235.497889
MG Discrepancy due to finite box and discretization:     -0.187838 (  -0.01520%)
MG Correction to account for finite box:                  0.006275
MG Remaining discrepancy, due to discretization:         -0.181563 (  -0.01469%)
      ideal mu1:      -0.514469718712
   10        -1.171939511824E+04     2.9119E-09     2.6357E-09     0.0000E+00
Finished density kernel iterations (  10)

Writing density kernel to file "complex_4281.dkn" ... done


>>> Density kernel optimised for the current NGWF basis:
     ~~~~~~~~~~~~~~~~~~~~~~~~~~~~~~~~~~~~~~~~~~~~~~~~~~~~~~~~~~~
     Total energy                =  -1.17193951182398E+04  Eh
     Estimated bandgap           =   1.2181E-01  Eh
     RMS occupancy error         =   3.5161E-16
     [H,K] commutator            =   2.6357E-09
     Occupancy bounds            = [  0.000:  1.000]
     ~~~~~~~~~~~~~~~~~~~~~~~~~~~~~~~~~~~~~~~~~~~~~~~~~~~~~~~~~~~




################################################################################
########################### NGWF CG iteration  005 #############################
################################################################################
****** Reciprocal space K.E. preconditioning with k_zero =  3.5000 a0^-1 *******

>>> Checking for convergence of NGWFs: 
           ........................................................
           |         *** NGWF optimisation converged ***          |
           | RMS NGWF gradient =    0.00000099302565              |
           | Criteria satisfied:                                  |
           | -> RMS NGWF gradient lower than set threshold.       |
           ========================================================

Reusing previously generated solute cavity.
MG BCs: +ve charge blocks (gridpoints):     29312 (   18964120).
MG BCs: -ve charge blocks (gridpoints):      8423 (    1034103).
MG BCs:     Elided blocks (gridpoints):    180733 (  186221602).
MG BCs: Computational effort saved:  99.9817%.
MG BCs: Charge after coarse-graining:           -9.0009773.
MG DL_MG: Calling solver with defect correction order = 8
MG DL_MG: Solver finished
MG Hartree energy from (\int phi*rho dr):              1235.685727
MG Hartree energy from (\int eps (grad phi)^2 dr):     1235.497889
MG Discrepancy due to finite box and discretization:     -0.187838 (  -0.01520%)
MG Correction to account for finite box:                  0.006275
MG Remaining discrepancy, due to discretization:         -0.181563 (  -0.01469%)

================================================================================
           ---------------- ENERGY COMPONENTS (Eh) ----------------
           | Kinetic                    :     8462.43619165418204 |
           | Pseudo. (local,OBC,corr'd) :    -5023.12207035049141 |
           | Pseudopotential (non-local):     1456.35268420593638 |
           | Hartree (molecular)        :     1235.68572687234973 |
           | Exchange-correlation       :    -3354.86788255353849 |
           | Ion-ion (open BC)          :   835746.18601615680382 |
           | Smeared ion non-self corr. :  -835697.76349580753595 |
           | Smeared ion self corr.     :   -14544.93686558573609 |
           | Solvent cavitation energy  :        2.25767915407816 |
           | Solute-solvent dis-rep en. :       -1.62310198584564 |
           | Total                      :   -11719.39511823983776 |
           --------------------------------------------------------
           ------ LOCAL ENERGY COMPONENTS FROM MATRIX TRACES ------
           | Pseudopotential (local)    :    -5023.12207035049050 |
           | Hartree                    :    -1998.16296902853719 |
           --------------------------------------------------------
           Integrated density           :     7233.99999999820830
           Integrated density tr(KS)    :     7234.00000000000091
================================================================================


                        <<<<< CALCULATION SUMMARY >>>>>                         
|ITER|    RMS GRADIENT   |     TOTAL ENERGY    |   step   |     Epredicted              
   0     0.00003754064679 -11719.34897255024407   0.517845 -11719.38871631732400        
   1     0.00001242196938 -11719.39401912596077   0.110256 -11719.39494563695553        
   2     0.00000529901304 -11719.39508461509831   0.018654 -11719.39511314090669        
   3     0.00000228680475 -11719.39511704992037   0.003529 -11719.39511805487382        
   4     0.00000099302565 -11719.39511823980138  <-- CG                                 

=================== Finished the calculation in solvent ========================
= Adjusting the following parameters: 
= read_denskern: F
= read_tightbox_ngwfs: F
= maxit_pen: 0 (restored to user-specified value)
= restart read filename prefix: ""
= restart write filename prefix: ""
================================================================================

================================================================================
IS: Calculation in solvent completed (NGWFs converged).      

Individual components of total energy in solvent:     hartree           kcal/mol
- Usual non-electrostatic DFT terms:    -12955.71542228038379    -8129833.994369
- Electrostatic fixed charge energy:      1235.68572687234973      775404.483754
- Apolar cavitation energy:                  2.25767915407816        1416.715028
- Apolar dispersion-repulsion energy:       -1.62310198584564       -1018.511851
 -------------------------------------------------------------------------------
- Total energy in solvent:              -11719.39511823980138    -7354031.307438

Components of total energy in solvent:                hartree           kcal/mol
- Usual non-electrostatic DFT terms:    -12955.71542228038379    -8129833.994369
- Electrostatic energy:                   1235.68572687234973      775404.483754
- Apolar energy terms:                       0.63457716823252         398.203176
 -------------------------------------------------------------------------------
- Total energy in solvent:              -11719.39511823980138    -7354031.307438

Calculation of free energy of solvation:              hartree           kcal/mol
- Total energy in solvent:         (+)  -11719.39511823980138    -7354031.307438
- Total energy in vacuum:          (-)  -11715.53588277159724    -7351609.600671
 -------------------------------------------------------------------------------
- Total free energy of solvation:           -3.85923546820413       -2421.706766

Components of polar term in f.e. of solvation:        hartree           kcal/mol
- Electrostatic:                            -4.86096279298226       -3050.300139
- Change in nonelectrostatic DFT terms:      0.36715015654590         230.390197
 -------------------------------------------------------------------------------
- Polar term in f.e. of solvation:          -4.49381263643636       -2819.909943

Components of free energy of solvation:               hartree           kcal/mol
- Polar term in f.e. of solvation: (+)      -4.49381263643636       -2819.909943
- Apolar (cavitation, dis., rep.): (+)       0.63457716823252         398.203176
 -------------------------------------------------------------------------------
- Total free energy of solvation:           -3.85923546820384       -2421.706766
================================================================================


------------------------------ TIMING INFORMATION ------------------------------
AVERAGE TIME:   71193.650s on     40 node(s)                                    
TOTAL TIME:     71193.650s on     40 node(s)                                    
================= AVERAGE TIMINGS FROM ALL NODES (CUMULATIVE) ==================
|| TAG                                    #calls    cpu time   %total  Gflops ||
|| work_imbalance                       :     1        0.00s   0.000%  ------ ||
|| parallel_prepare_fd_halos_request    :  2073        0.02s   0.000%  ------ ||
|| sparse_set_to_garbage                :   225        0.06s   0.000%  ------ ||
|| parallel_prepare_fd_halos_alloc      :  2073        0.06s   0.000%  ------ ||
|| parallel_prepare_fd_halos_satisfy    :  2073        0.06s   0.000%  ------ ||
|| ngwfs_initialise_from_radial         :     1        0.17s   0.000%  ------ ||
|| basis_extract_function_from_box      :  5729        0.23s   0.000%  ------ ||
|| pseudopotentials_nonlocal_mat        :    33        1.45s   0.002%  ------ ||
|| parallel_prepare_fd_halos_comms_imbal:  2073        3.48s   0.005%  ------ ||
|| restart_ngwfs_tightbox_input         :     1        4.28s   0.006%  ------ ||
|| restart_kernel_read                  :     1        4.67s   0.007%  ------ ||
|| openbc_locps_radial                  :     1        5.44s   0.008%  ------ ||
|| density_init_guess_real              :     1        6.13s   0.009%  ------ ||
|| parallel_prepare_fd_halos_clear      :  2073       14.99s   0.021%  ------ ||
|| sparse_init                          :     2       22.86s   0.032%  ------ ||
|| projectors_func_ovlp_box             :    33       25.95s   0.036%  ------ ||
|| parallel_prepare_fd_halos_comms_wait :  2073       26.41s   0.037%  ------ ||
|| projectors_init_fftbox_recip         :   220       29.65s   0.042%  ------ ||
|| function_ops_brappd_ketppd           :    33       29.77s   0.042%  ------ ||
|| parallel_prepare_fd_halos            :  2073       45.04s   0.063%  ------ ||
|| palser_mano_kernel_optimise          :     1       53.74s   0.075%  ------ ||
|| pseudo_make_structure_factor         :     2       62.32s   0.088%  ------ ||
|| ngwf_gradient_coeffs                 :    17       69.69s   0.098%  ------ ||
|| sparse_embed_hotelling_invert_embed  :    33      107.19s   0.151%  ------ ||
|| basis_copy_function_to_box           : 177.6k     117.02s   0.164%  ------ ||
|| finite_difference_derivative         :  2073      120.39s   0.169%  ------ ||
|| restart_kernel_write                 :    18      121.41s   0.171%  ------ ||
|| integrals_kinetic                    :    33      193.82s   0.272%  ------ ||
|| openbc_locps_on_grid                 :     2      197.74s   0.278%  ------ ||
|| projectors_gradient_batch            :   187      223.04s   0.313%  ------ ||
|| restart_ngwfs_tightbox_output        :    15      257.84s   0.362%  ------ ||
|| sparse_trace                         :  5613      292.89s   0.411%  ------ ||
|| fourier_apply_box_pair               : 50040      330.14s   0.464% 585.002 ||
|| kernel_purify                        :   527      390.46s   0.548%  ------ ||
|| basis_dot_function_with_box          : 20.56M     406.61s   0.571%  ------ ||
|| lnv_gradient_norm                    :   170      618.09s   0.868%  ------ ||
|| kernel_fix                           :   170      700.56s   0.984%  ------ ||
|| hamiltonian_energy_components        :     4      731.48s   1.027%  ------ ||
|| integrals_locpot_mat_els_batch       :  1969     1027.11s   1.443%  ------ ||
|| basis_add_function_to_box            : 55.03M    1040.59s   1.462%  ------ ||
|| ke_density_batch_grad_apply          :  3784     1091.44s   1.533%  ------ ||
|| ke_density_batch_row_sums            :  3784     1353.89s   1.902%  ------ ||
|| density_batch_row_sums               :  3784     1357.85s   1.907%  ------ ||
|| fourier_apply_cell_backward          :  9295     1678.08s   2.357%  81.161 ||
|| density_fftbox_deposit_to_cell       : 56416     1716.78s   2.411%  ------ ||
|| ke_density_fftbox_deposit_to_cell    : 56416     1925.99s   2.705%  ------ ||
|| fourier_apply_cell_forward           :  9293     1969.14s   2.766%  69.149 ||
|| cell_grid_deposit_box_real           : 115.0k    2108.51s   2.962%  ------ ||
|| cell_grid_extract_box_real           : 141.7k    2344.87s   3.294%  ------ ||
|| sparse_product                       :  7093     2389.68s   3.357%  ------ ||
|| ngwf_gradient_build_batch            :   187     2516.02s   3.534%  ------ ||
|| multigrid_prepare_bound_cond         :   345     2764.47s   3.883%  ------ ||
|| ngwf_gradient_batch                  :   187     2837.46s   3.986%  ------ ||
|| ngwf_gradient_lnv                    :    17     3029.82s   4.256%  ------ ||
|| potential_apply_to_ngwf_batch        :  1969     3487.04s   4.898%  ------ ||
|| density_fftbox_interpolate_multiply  : 56416     3870.88s   5.437%  ------ ||
|| integrals_locpot_dbl_grid            :   179     4539.12s   6.376%  ------ ||
|| xc_energy_potential                  :   345     4878.60s   6.853%  ------ ||
|| density_batch_interp_deposit         :  3784     6281.91s   8.824%  ------ ||
|| dl_mg_solver_calls                   :   345     7616.91s  10.699%  ------ ||
|| density_on_dbl_grid                  :   344     8140.18s  11.434%  ------ ||
|| nlxc_vdw_energy                      :   688     8150.28s  11.448%  ------ ||
|| potential_apply_to_fftbox_batch      :  5610     9320.05s  13.091%  ------ ||
|| multigrid_calculate_hartree          :   345    10551.89s  14.821%  ------ ||
|| integrals_div_locpot_grad_functions  :   170    14200.06s  19.946%  ------ ||
|| ke_density_fftbox_interpolate_multipl: 56416    15424.75s  21.666%  ------ ||
|| ke_density_batch_interp_deposit      :  3784    18052.31s  25.357%  ------ ||
|| fourier_apply_box                    : 1.280M   20189.29s  28.358% 810.284 ||
|| ke_density_on_dbl_grid               :   344    21034.73s  29.546%  ------ ||
|| hamiltonian_lhxc_calculate           :   340    44615.72s  62.668%  ------ ||
|| lnv_denskernel_optimise_cg           :    17    63705.10s  89.481%  ------ ||
|| ngwf_cg_optimise                     :     2    70330.60s  98.788%  ------ ||
|| total_time                           :     1    71193.65s 100.000%  ------ ||
================================================================================
Overhead of generating timer report: 
- 0 ms averaging over threads,
- 7 ms ensuring consistency across MPI ranks,
- 2 ms printing in order.

Job completed: 13-03-2020 10:59 (-0000)

