 +---------------------------------------------------------------+
 |                                                               |
 |        ####### #     # ####### ####### ####### ######         |
 |        #     # ##    # #          #    #       #     #        |
 |        #     # # #   # #          #    #       #     #        |
 |        #     # #  #  # #####      #    #####   ######         |
 |        #     # #   # # #          #    #       #              |
 |        #     # #    ## #          #    #       #              |
 |        ####### #     # #######    #    ####### #              |
 |                                                               |
 |        Linear-Scaling Ab Initio Total Energy Program          |
 |                                                               |
 |          Release for academic collaborators of ODG            |
 |                                             Version 5.3.2.6.  |
 |                                                               |
 +---------------------------------------------------------------+
 |                                                               |
 |  Authors:                                                     |
 |  Jacek Dziedzic, Peter D. Haynes, Nicholas D. M. Hine,        |
 |  Arash. A. Mostofi, Mike C. Payne and Chris-Kriton Skylaris   |
 |                                                               |
 |  Contributors:                                                |
 |  J. Aarons, L. Andrinopoulos, P. W. Avraam, R. A. Bell,       |
 |  A. Bhandari, G. A. Bramley, R. J. Charlton, S. J. Clark,     |
 |  R. J. Clements, G. C. Constantinescu, F. Corsetti,           |
 |  N. Corsini, O. Dieguez, S. M. M. Dubois, K. K. B. Duff,      |
 |  J. M. Escartin, A. Greco, H. Helal, Q. O. Hill, L. P. Lee,   |
 |  J.-H. Li, E. B. Linscott, G. Moynihan, D. D. O`Regan,        |
 |  O. K. Okan, M. J. S. Phipps, C. J. Pickard,                  |
 |  J. C. A. Prentice, M. I. J. Probert, L. E. Ratcliff,         |
 |  M. Robinson, A. Ruiz Serrano, J. S. Spencer, E. W. Tait,     |
 |  G. Teobaldi, D. Turban, V. Vitale, K. A. Wilkinson,          |
 |  C. Weber, J. C. Womack, N. Yeung and T. J. Zuehlsdorff       |
 |                                                               |
 |                                   Copyright (c) 2004-2019     |
 |                                                               |
 |  Please cite:                                                 |
 |  "Introducing ONETEP: Linear-scaling density functional       |
 |   simulations on parallel computers".                         |
 |   C.-K. Skylaris, P. D. Haynes, A. A. Mostofi, M. C. Payne.   |
 |   J. Chem. Phys. 122 084119 (2005).                           |
 |                                                               |
 |          in all publications arising from your use of ONETEP. |
 |                                                               |
 +---------------------------------------------------------------+
 |                                                               |
 |   ONETEP is based on developments described in the following  |
 |   publications:                                               |
 |                                                               |
 |  "Nonorthogonal generalized Wannier function pseudopotential  |
 |   plane-wave method".                                         |
 |   C.-K. Skylaris, A. A. Mostofi, P. D. Haynes, O. Dieguez,    |
 |   M. C. Payne.                                                |
 |   Phys. Rev. B 66 035119 (2002).                              |
 |                                                               |
 |  "Preconditioned iterative minimization for linear-scaling    |
 |   electronic structure calculations".                         |
 |   A. A. Mostofi, P. D. Haynes, C.-K. Skylaris, M. C. Payne.   |
 |   J. Chem. Phys. 119(17), pp.8842-8848 (2003).                |
 |                                                               |
 |  "Total-energy calculations on a real space grid with         |
 |   localized functions and a plane-wave basis".                |
 |   A. A. Mostofi, C.-K. Skylaris, P. D. Haynes, M. C. Payne.   |
 |   Comput. Phys. Commun. 147, pp.788-802 (2002).               |
 |                                                               |
 |  "Accurate kinetic energy evaluation in electronic structure  |
 |   calculations with localized functions on real space grids"  |
 |   C.-K. Skylaris, A. A. Mostofi, P. D. Haynes, C. J. Pickard, |
 |   M. C. Payne.                                                |
 |   Comput. Phys. Commun. 140, pp.315-322 (2001).               |
 |                                                               |
 |  "Accurate ionic forces and geometry optimization in linear-  |
 |   scaling density-functional theory with local orbitals"      |
 |   N. D. M. Hine, M. Robinson, P. D. Haynes, C.-K. Skylaris,   |
 |   M. C. Payne, and A. A. Mostofi.                             |
 |   Phys. Rev. B 83 195102 (2011).                              |
 |                                                               |
 +---------------------------------------------------------------+

Job started: 11-02-2020 04:19 (-0000)
 
Reading parameters from file "complex_14161.dat" ...... done

If your calculation crashes here, before "Checking processes and threads..."
is displayed, then your stack size is insufficient.
If so, use "ulimit -s unlimited" at runtime.
You can disable this check with "check_stack_size F".

Checking processes and threads...
   Determining the default number of threads...
      No default threads set at compilation time: defaulting to 1.
      OpenMP library call suggests 4 threads.
      Hybrid MPI-OpenMP compilation detected.
      Number of MPI processes > 1.
      OMP_NUM_THREADS environment variable present and
      its value matches the one obtained from the OpenMP library call.
      Using this value as default.
      Default threads: 4
      Default applies to threads_max and threads_num_fftboxes.
      Settings in the input file override this default.
   ... done

   Running with 40 MPI processes.
   There are 10 MPI processes running on the same node as the root process.
   Each MPI process is using: 
               1 threads for simulation cell FFTs.
               1 threads for parallel FFT box operations.
               4 threads for loops over batched FFT box operations.
               4 threads in other parallel regions.
... done

Basic input checks...... done

Reading geometry and species blocks from file "complex_14161.dat" ...
  <species_atomic_set> block not found: NGWF initialisation set to SOLVE
IS: Dielectric excluded regions:
    - NONE.
    
  Number of PPD points along a3 set to 1.  This is 
  the default value, it may have been provided also in the input file.
... done
 Writing xyz coordinates to file "complex_14161.xyz" ... done


--------------------------------------------------------------------------------
---------------------------------- INPUT FILE ----------------------------------
--------------------------------------------------------------------------------

cutoff_energy       : 800 eV                                                    
xc_functional B97M-V                                                            
task SINGLEPOINT                                                                
write_xyz true                                                                  
output_detail VERBOSE                                                           
ngwf_threshold_orig : 0.000002                                                  
kernel_cutoff       : 1000                                                      
k_zero              : 3.5                                                       
elec_cg_max 0                                                                   
occ_mix 1.0                                                                     
dispersion 0                                                                    
maxit_ngwf_cg 40                                                                
minit_lnv 10                                                                    
maxit_lnv 10                                                                    
write_denskern T                                                                
write_tightbox_ngwfs T                                                          
charge 9                                                                        
is_implicit_solvent T                                                           
is_auto_solvation T                                                             
is_include_apolar T                                                             
is_smeared_ion_rep T                                                            
is_solvent_surf_tension 4.7624E-5 Ha/bohr**2                                    
is_apolar_scaling_factor 0.281075                                               
is_solvation_beta 1.3                                                           
is_density_threshold 0.00035                                                    
is_bulk_permittivity 78.54                                                      
is_dielectric_model fix_initial                                                 
is_smeared_ion_width 0.8                                                        
mg_defco_fd_order 8                                                             
is_bc_coarseness 10                                                             
is_bc_surface_coarseness 1                                                      
fine_grid_scale 2.0                                                             
%block species                                                                  
N   N   7 4 8.0                                                                 
H   H   1 1 8.0                                                                 
C   C   6 4 8.0                                                                 
S   S  16 9 8.0                                                                 
O   O   8 4 8.0                                                                 
F   F   9 9 8.0                                                                 
%endblock species                                                               
%block species_pot                                                              
N   N_00.recpot                                                                 
H   H_04.recpot                                                                 
C   C_01.recpot                                                                 
S   S_00.recpot                                                                 
O   O_02.recpot                                                                 
F   F_00.recpot                                                                 
%endblock species_pot                                                           
%block lattice_cart                                                             
139.898   0.000   0.000                                                         
0.000 144.87   0.000                                                            
0.000   0.000   168.12                                                          
%endblock lattice_cart                                                          
%block positions_abs                                                            
     Hash =  -000005518504454706197621
%endblock positions_abs                                                         

--------------------------------------------------------------------------------
-------------------------------- END INPUT FILE --------------------------------
--------------------------------------------------------------------------------


 
 ESDF WARNING(1): "kernelcutoff" (esdf_physical) has no units. Assume "bohr".
 ESDF WARNING(2): "kzero" (esdf_physical) has no units. Assume "1/bohr".
 ESDF WARNING(3
 ): "issmearedionwidth" (esdf_physical) has no units. Assume "bohr".
<<<<<<<<<<<<<<<<<<<<<<<<<<<<<<<<< Full system >>>>>>>>>>>>>>>>>>>>>>>>>>>>>>>>>>
<<<<<<<<<<<<<<<<<<<<<<<<< Pseudopotential information >>>>>>>>>>>>>>>>>>>>>>>>>>
File: N_00.recpot [ 2001 points up to Gmax=  52.9 (1/bohr)]
  Atomic number:  7;  ionic charge:  5.000000
    Shell 1: l = 0; rc = 1.48 bohr
File: H_04.recpot [ 2001 points up to Gmax=  52.9 (1/bohr)]
  Atomic number:  1;  ionic charge:  1.000000
    Local potential
File: C_01.recpot [ 2001 points up to Gmax=  52.9 (1/bohr)]
  Atomic number:  6;  ionic charge:  4.000000
    Shell 1: l = 0; rc = 1.48 bohr
File: S_00.recpot [ 2001 points up to Gmax=  52.9 (1/bohr)]
  Atomic number: 16;  ionic charge:  6.000000
    Shell 1: l = 0; rc = 1.90 bohr
    Shell 2: l = 2; rc = 1.84 bohr
File: O_02.recpot [ 2001 points up to Gmax=  52.9 (1/bohr)]
  Atomic number:  8;  ionic charge:  6.000000
    Shell 1: l = 0; rc = 1.31 bohr
File: F_00.recpot [ 2001 points up to Gmax=  52.9 (1/bohr)]
  Atomic number:  9;  ionic charge:  7.000000
    Shell 1: l = 0; rc = 1.60 bohr
<<<<<<<<<<<<<<<<<<<<<<<<<<<<<<<<<<<<<<<<>>>>>>>>>>>>>>>>>>>>>>>>>>>>>>>>>>>>>>>>

-------------------------- Atom counting information ---------------------------
Symbol    Natoms    Nngwfs    Nprojs
  N        237       948       237
  H       1317      1317         0
  C        816      3264       816
  S          6        54        36
  O        239       956       239
  F          1         9         1
.......   ......    ......    ......
Totals:   2616      6548      1329
--------------------------------------------------------------------------------

=============================== PSINC grid sizes ===============================
                      Simulation cell:  275 x 286 x 336
                              FFT-box:   99 x  99 x  99
                                  PPD:    5 x  11 x   1
Grid space d1=  0.508720000000a0 (KE cutoff=  29.35259Eh = 798.72452eV)
Grid space d2=  0.506538461538a0 (KE cutoff=  29.60596Eh = 805.61916eV)
Grid space d3=  0.500357142857a0 (KE cutoff=  30.34197Eh = 825.64705eV)
================================================================================

********************* Fourier parallelisation information **********************
       Coarse grid (whole simulation cell) dimensions:    275   286   336
          Real-space ('12') slabs/node (min max mean):      8     9     8
         Recip-space ('23') slabs/node (min max mean):      3     4     3
********************************************************************************

********************* Fourier parallelisation information **********************
       Double grid (whole simulation cell) dimensions:    550   572   672
          Real-space ('12') slabs/node (min max mean):     16    17    16
         Recip-space ('23') slabs/node (min max mean):      6     7     6
********************************************************************************
ONETEP fine grid is 550 x 572 x 672 gridpoints, 139.8980 x 144.8700 x 168.1200 bohr.
FD multigrid is     545 x 569 x 665 gridpoints, 138.6262 x 144.1102 x 166.3688 bohr.


Calculating local pseudopotential in open BC on a radial grid ...
Discrepancy between calculated realspace psloc and -Z/x on [5a0,262.342a0]:
max |rel. diff| # avg |rel. diff| #  avg rel. diff #  f # pseudopotential file
 0.000258413739    0.000003708905   0.000000070960   56  'N_00.recpot'
 0.000398954828    0.000016185045  -0.000000074508   56  'H_04.recpot'
 0.000375346405    0.000017198923   0.000000144535   56  'C_01.recpot'
 0.000466850533    0.000020125278   0.000000461745   56  'S_00.recpot'
 0.000671508953    0.000026045986   0.000000155458   56  'O_02.recpot'
 0.002873965647    0.000134299806   0.000000884984   56  'F_00.recpot'
... done
 WARNING: meta-GGA functionality under development.
          Using this functional is experimental.
          Minimum tau threshold, xc_min_tau =   1.00000000E-12
 WARNING: Using alternative XC functional PBE for 
          radial densities (xc_radial).

Atom SCF Calculation for N  : Z (AE atom) =   7 : Z (PS atom) =   5
Config String:
Orbitals (num,occ):  2     2.00 3.00
Orbitals   (num,l):  2        0    1
Real-space Grid (nr,dr,rmax): 1203    0.0066555740    8.0000000000
Spherical Bessel Basis (nsws,lmax,cutoff):   47    1  176.3951722778
Confining potential (l,width,scale):  0    3.0000000000  100.0000000000
Confining potential (l,width,scale):  1    3.0000000000  100.0000000000
  1         -4.7312375307   -3.4155304497    7.0523828109   -1.9351020946
  2         -9.7309464766   -2.0532547791    8.2966052865   -2.2494486027
  3         -9.6627394379   -2.1124926340    8.2327997121   -2.2369778124
  4         -9.6814993499   -2.1215521045    8.2229805960   -2.2365178421
  5         -9.6843326483   -2.1250939529    8.2191374534   -2.2362718126
  6         -9.6859628709   -2.1267894855    8.2172963573   -2.2362066344
  7         -9.6867347035   -2.1276425665    8.2163697352   -2.2361903369
  8         -9.6870802100   -2.1280764625    8.2158983890   -2.2361891460
  9         -9.6872290423   -2.1282977424    8.2156580222   -2.2361920435
 10         -9.6872901988   -2.1284107021    8.2155353368   -2.2361953393
 11         -9.6873135296   -2.1284684031    8.2154726809   -2.2361979819
 12         -9.6873212476   -2.1284978948    8.2154406648   -2.2361998431
 13         -9.6873229586   -2.1285129774    8.2154242957   -2.2362010676
 14         -9.6873226456   -2.1285206957    8.2154159216   -2.2362018403
 15         -9.6873218534   -2.1285246479    8.2154116349   -2.2362023142
 16         -9.6873212599   -2.1285262679    8.2154098784   -2.2362025420
 17         -9.6873207834   -2.1285272564    8.2154088068   -2.2362026955
 18         -9.6873204210   -2.1285278597    8.2154081529   -2.2362027982
 19         -9.6873201550   -2.1285282280    8.2154077538   -2.2362028667
 20         -9.6873199645   -2.1285284529    8.2154075102   -2.2362029121
 21         -9.6873198305   -2.1285285903    8.2154073614   -2.2362029421
 22         -9.6873197377   -2.1285286742    8.2154072705   -2.2362029618
Atom SCF converged after  22 iterations to a total energy of     -9.68731974

Atom SCF Calculation for H  : Z (AE atom) =   1 : Z (PS atom) =   1
Config String:
Orbitals (num,occ):  1     1.00
Orbitals   (num,l):  1        0
Real-space Grid (nr,dr,rmax): 1203    0.0066555740    8.0000000000
Spherical Bessel Basis (nsws,lmax,cutoff):   47    0  176.3951722778
Confining potential (l,width,scale):  0    3.0000000000  100.0000000000
  1         -0.3194257691   -0.2393854593    0.2820953124   -0.2424203209
  2         -0.3951823392   -0.2377116493    0.2886404059   -0.2475147891
  3         -0.4317044583   -0.2352244387    0.2921333887   -0.2514046172
  4         -0.4470703708   -0.2341892222    0.2934391879   -0.2531009782
  5         -0.4532132900   -0.2338556667    0.2938388426   -0.2537313520
  6         -0.4556579251   -0.2337612552    0.2939448584   -0.2539550462
  7         -0.4566418315   -0.2337377355    0.2939680120   -0.2540342273
  8         -0.4570437922   -0.2337331116    0.2939708287   -0.2540627372
  9         -0.4572102946   -0.2337328328    0.2939698291   -0.2540732650
 10         -0.4572800424   -0.2337332404    0.2939687193   -0.2540772588
 11         -0.4573095100   -0.2337335791    0.2939680317   -0.2540788122
 12         -0.4573220379   -0.2337337762    0.2939676699   -0.2540794294
 13         -0.4573273880   -0.2337338775    0.2939674931   -0.2540796787
 14         -0.4573296803   -0.2337339266    0.2939674099   -0.2540797808
 15         -0.4573306647   -0.2337339495    0.2939673718   -0.2540798230
 16         -0.4573310882   -0.2337339601    0.2939673545   -0.2540798406
 17         -0.4573312706   -0.2337339649    0.2939673467   -0.2540798479
 18         -0.4573313493   -0.2337339670    0.2939673433   -0.2540798510
Atom SCF converged after  18 iterations to a total energy of     -0.45733135

Atom SCF Calculation for C  : Z (AE atom) =   6 : Z (PS atom) =   4
Config String:
Orbitals (num,occ):  2     2.00 2.00
Orbitals   (num,l):  2        0    1
Real-space Grid (nr,dr,rmax): 1203    0.0066555740    8.0000000000
Spherical Bessel Basis (nsws,lmax,cutoff):   47    1  176.3951722778
Confining potential (l,width,scale):  0    3.0000000000  100.0000000000
Confining potential (l,width,scale):  1    3.0000000000  100.0000000000
  1         -5.2976922011   -1.3069684169    4.5135249990   -1.4493313817
  2         -5.3721716256   -1.3429755895    4.4750154450   -1.4361613026
  3         -5.3809959565   -1.3617365618    4.4541655428   -1.4305930207
  4         -5.3918938866   -1.3667928461    4.4484735100   -1.4294652294
  5         -5.3956096428   -1.3688539142    4.4461376126   -1.4290734646
  6         -5.3968271862   -1.3696852393    4.4451910874   -1.4289366866
  7         -5.3972028401   -1.3700178062    4.4448112275   -1.4288900460
  8         -5.3973067903   -1.3701500158    4.4446598370   -1.4288749220
  9         -5.3973286940   -1.3702023868    4.4445997329   -1.4288704293
 10         -5.3973289850   -1.3702230869    4.4445759233   -1.4288693188
 11         -5.3973254264   -1.3702312560    4.4445665049   -1.4288691775
 12         -5.3973224003   -1.3702344755    4.4445627836   -1.4288692549
 13         -5.3973208708   -1.3702354890    4.4445616088   -1.4288693270
 14         -5.3973198783   -1.3702360102    4.4445610034   -1.4288693814
 15         -5.3973192535   -1.3702362780    4.4445606917   -1.4288694190
 16         -5.3973188684   -1.3702364155    4.4445605313   -1.4288694437
 17         -5.3973186349   -1.3702364860    4.4445604489   -1.4288694595
 18         -5.3973184951   -1.3702365221    4.4445604065   -1.4288694693
 19         -5.3973184122   -1.3702365405    4.4445603848   -1.4288694753
Atom SCF converged after  19 iterations to a total energy of     -5.39731841

Atom SCF Calculation for S  : Z (AE atom) =  16 : Z (PS atom) =   6
Config String:
Orbitals (num,occ):  3     2.00 4.00 0.00
Orbitals   (num,l):  3        0    1    2
Real-space Grid (nr,dr,rmax): 1203    0.0066555740    8.0000000000
Spherical Bessel Basis (nsws,lmax,cutoff):   47    2  176.3951722778
Confining potential (l,width,scale):  0    3.0000000000  100.0000000000
Confining potential (l,width,scale):  1    3.0000000000  100.0000000000
Confining potential (l,width,scale):  2    3.0000000000  100.0000000000
  1        -12.4735062396   -1.0328741412   10.1554312477   -2.4512393157
  2         -9.9458301913   -2.4607392455    8.3041325857   -2.0306994528
  3        -10.1450417646   -2.2931184565    8.4831893826   -2.0812538287
  4        -10.1528335592   -2.2733105793    8.5050388867   -2.0896035179
  5        -10.1571940363   -2.2633716629    8.5160794258   -2.0939370707
  6        -10.1594380571   -2.2584938667    8.5215163935   -2.0961289008
  7        -10.1605856507   -2.2561081821    8.5241804044   -2.0972291378
  8        -10.1611799191   -2.2549395235    8.5254868240   -2.0977806248
  9        -10.1614918752   -2.2543658586    8.5261285885   -2.0980571586
 10        -10.1616572884   -2.2540839121    8.5264441898   -2.0981959233
 11        -10.1617455602   -2.2539453058    8.5265994231   -2.0982656006
 12        -10.1617928447   -2.2538772062    8.5266757320   -2.0983006047
 13        -10.1618182292   -2.2538437891    8.5267131983   -2.0983181961
 14        -10.1618318741   -2.2538274201    8.5267315620   -2.0983270391
 15        -10.1618392144   -2.2538194197    8.5267405433   -2.0983314852
 16        -10.1618431651   -2.2538155200    8.5267449245   -2.0983337210
 17        -10.1618452923   -2.2538136252    8.5267470551   -2.0983348455
 18        -10.1618464380   -2.2538127080    8.5267480875   -2.0983354110
 19        -10.1618470552   -2.2538122659    8.5267485856   -2.0983356955
 20        -10.1618473878   -2.2538120540    8.5267488248   -2.0983358386
 21        -10.1618475670   -2.2538119530    8.5267489389   -2.0983359106
 22        -10.1618476637   -2.2538119053    8.5267489929   -2.0983359468
Atom SCF converged after  22 iterations to a total energy of    -10.16184766

Atom SCF Calculation for O  : Z (AE atom) =   8 : Z (PS atom) =   6
Config String:
Orbitals (num,occ):  2     2.00 4.00
Orbitals   (num,l):  2        0    1
Real-space Grid (nr,dr,rmax): 1203    0.0066555740    8.0000000000
Spherical Bessel Basis (nsws,lmax,cutoff):   47    1  176.3951722778
Confining potential (l,width,scale):  0    3.0000000000  100.0000000000
Confining potential (l,width,scale):  1    3.0000000000  100.0000000000
  1         -1.8735052164   -7.5539365035   10.1554312477   -2.4512393157
  2        -16.0318313751   -3.1285771268   13.6395848164   -3.2358799643
  3        -15.9524020423   -3.0762819706   13.6967272503   -3.2536856837
  4        -15.8521515939   -3.0781493909   13.6951909330   -3.2561700440
  5        -15.8357139793   -3.0748501933   13.6988803334   -3.2580493133
  6        -15.8246052853   -3.0740779781   13.6997881576   -3.2588327446
  7        -15.8189019501   -3.0737449687   13.7001869911   -3.2592378801
  8        -15.8159785510   -3.0736026016   13.7003615168   -3.2594475790
  9        -15.8144776168   -3.0735437994   13.7004360379   -3.2595560735
 10        -15.8137058024   -3.0735207882   13.7004667348   -3.2596122456
 11        -15.8133083127   -3.0735125946   13.7004786868   -3.2596413656
 12        -15.8131032938   -3.0735102195   13.7004828997   -3.2596564858
 13        -15.8129973902   -3.0735099286   13.7004840891   -3.2596643505
 14        -15.8129426040   -3.0735102506   13.7004842061   -3.2596684489
 15        -15.8129142203   -3.0735106556   13.7004840157   -3.2596705887
 16        -15.8128994940   -3.0735109855   13.7004837906   -3.2596717080
 17        -15.8128918425   -3.0735112169   13.7004836103   -3.2596722946
 18        -15.8128878614   -3.0735113674   13.7004834848   -3.2596726026
 19        -15.8128857871   -3.0735114608   13.7004834035   -3.2596727646
 20        -15.8128847048   -3.0735115170   13.7004833533   -3.2596728500
 21        -15.8128841394   -3.0735115501   13.7004833231   -3.2596728951
 22        -15.8128838436   -3.0735115693   13.7004833054   -3.2596729190
 23        -15.8128836887   -3.0735115802   13.7004832951   -3.2596729316
 24        -15.8128836074   -3.0735115864   13.7004832893   -3.2596729383
Atom SCF converged after  24 iterations to a total energy of    -15.81288361

Atom SCF Calculation for F  : Z (AE atom) =   9 : Z (PS atom) =   7
Config String:
Orbitals (num,occ):  5     2.00 5.00 0.00 0.00 0.00
Orbitals   (num,l):  5        0    1    0    1    2
Real-space Grid (nr,dr,rmax): 1203    0.0066555740    8.0000000000
Spherical Bessel Basis (nsws,lmax,cutoff):   47    2  176.3951722778
Confining potential (l,width,scale):  0    3.0000000000  100.0000000000
Confining potential (l,width,scale):  1    3.0000000000  100.0000000000
Confining potential (l,width,scale):  2    3.0000000000  100.0000000000
  1          2.7613408675  -14.5815130354   13.8226703094   -2.9941905181
  2        -23.6468980113   -4.9263326541   20.5563421412   -4.3754293297
  3        -24.5333043594   -4.3845963970   21.1176052958   -4.4841731563
  4        -24.3589864791   -4.3106783108   21.1950887716   -4.4997202795
  5        -24.2648391338   -4.2783243831   21.2295118026   -4.5072738146
  6        -24.2274338603   -4.2663478973   21.2423649225   -4.5102591768
  7        -24.2052315491   -4.2595041622   21.2497430410   -4.5120310941
  8        -24.1920610535   -4.2555995140   21.2539669715   -4.5130761189
  9        -24.1842594614   -4.2533726648   21.2563826077   -4.5136908004
 10        -24.1796430262   -4.2521035456   21.2577627107   -4.5140519045
 11        -24.1769128010   -4.2513811698   21.2585501121   -4.5142639028
 12        -24.1752983031   -4.2509707627   21.2589985394   -4.5143883165
 13        -24.1743434247   -4.2507381589   21.2592533437   -4.5144613128
 14        -24.1737784708   -4.2506067164   21.2593977374   -4.5145041342
 15        -24.1734440540   -4.2505326993   21.2594793047   -4.5145292513
 16        -24.1732459871   -4.2504911905   21.2595252124   -4.5145439823
 17        -24.1731286021   -4.2504680245   21.2595509400   -4.5145526212
 18        -24.1730589855   -4.2504551689   21.2595652865   -4.5145576869
 19        -24.1730176682   -4.2504480829   21.2595732399   -4.5145606573
 20        -24.1729931274   -4.2504442088   21.2595776183   -4.5145623987
 21        -24.1729785394   -4.2504421116   21.2595800086   -4.5145634196
 22        -24.1729698603   -4.2504409903   21.2595813001   -4.5145640181
 23        -24.1729646922   -4.2504404002   21.2595819890   -4.5145643688
 24        -24.1729616119   -4.2504400960   21.2595823505   -4.5145645744
 25        -24.1729597743   -4.2504399438   21.2595825360   -4.5145646948
 26        -24.1729586769   -4.2504398706   21.2595826284   -4.5145647654
 27        -24.1729580209   -4.2504398378   21.2595826723   -4.5145648067
 28        -24.1729576283   -4.2504398249   21.2595826917   -4.5145648309
 29        -24.1729573931   -4.2504398211   21.2595826991   -4.5145648451
 30        -24.1729572521   -4.2504398214   21.2595827010   -4.5145648534
 31        -24.1729571674   -4.2504398230   21.2595827006   -4.5145648582
Atom SCF converged after  31 iterations to a total energy of    -24.17295717
 
WARNING in ngwfs_initialise: Setting radial NGWF functions for species  6 (F):
Last NGWF on atom has m = -2 and does not complete set of m-values for l = 2.
This breaks symmetry and may cause unstable NGWF optimisation and poor 
convergence. Suggest increasing number of NGWFs per atom from   9 to  13.
NB: All NGWF radial function angular momenta:     0    1    0    1    2
 

========================== Calculation in vacuum ==============================
= Adjusting the following parameters: 
= is_implicit_solvent: F
= is_include_apolar: F
= write_denskern: T
= write_tightbox_ngwfs: T
= restart read filename prefix: ""
= restart write filename prefix: "vacuum_"
===============================================================================

Determining parallel strategy ...
... using space-filling curve
... NGWF load balancing: max    164;  min    163;  average    164
... Projector load balancing: max     36;  min     31;  average     33
... done
Calculating direct Ion-Ion energy ...
Ion-Ion Energy        :    824536.11638590297662
Basis initialisation ...... NGWF spheres initialised
... Projector spheres initialised
... NGWF tight boxes initialised
... Tight-boxes gathered
... NGWF basis size (local,global):    1270856  51067388
... Nonlocal pseudopotential projector initialisation
... done

========================== Sparse matrix information ===========================
                        Overlap matrix filling:   6.69%
                        Density kernel filling: 100.00%
              NGWF-Proj overlap matrix filling:   1.77%
                    Hamiltonian matrix filling:   7.56%
                  NGWF diagonal matrix filling:   0.05%
                             KS matrix filling: 100.00% 
                           KSKS matrix filling: 100.00% 
================================================================================

Sparse matrix initialisation ... done

Generating smeared ion density ... done
Smeared ion self correction:     -14544.936866
Smeared ion non-self correction: -824487.774008
NGWF initialisation ...... done
============ Calculation of NGWF S^-1 using Hotelling algorithm ================ 
         Iteration  |  Frobenius norm and Maximum abs value    (of I-S*S_n^-1)   
               1       0.78770002E+02     0.98300906E+00
               2       0.76935120E+02     0.96647881E+00
               3       0.73956459E+02     0.93467503E+00
               4       0.69709488E+02     0.87542572E+00
               5       0.64405542E+02     0.77152704E+00
               6       0.58431560E+02     0.70719483E+00
               7       0.52407821E+02     0.67356098E+00
               8       0.46840031E+02     0.64523659E+00
               9       0.40792760E+02     0.60560688E+00
              10       0.32579045E+02     0.53895728E+00
              11       0.22044337E+02     0.43055115E+00
              12       0.11407047E+02     0.28766629E+00
              13       0.38713947E+01     0.14296347E+00
              14       0.68199209E+00     0.46496301E-01
              15       0.53825571E-01     0.85576524E-02
              16       0.13990288E-02     0.31171372E-03
              17       0.18592590E-05     0.42447835E-06
              18       0.34575346E-11     0.78870244E-12
================================================================================
Calculating local pseudopotential in open BC on the fine real space grid ...
... done

MG BCs: +ve charge blocks (gridpoints):     20827 (   16224481).
MG BCs: -ve charge blocks (gridpoints):      7960 (    1080248).
MG BCs:     Elided blocks (gridpoints):    189218 (  188915096).
MG BCs: Computational effort saved:  99.9860%.
MG BCs: Charge after coarse-graining:           -9.0002392.
MG DL_MG: Calling solver with defect correction order = 8
MG DL_MG: Solver finished
MG Hartree energy from (\int phi*rho dr):              1471.310675
MG Hartree energy from (\int eps (grad phi)^2 dr):     1470.701047
MG Discrepancy due to finite box and discretization:     -0.609628 (  -0.04143%)
MG Correction to account for finite box:                  0.454528
MG Remaining discrepancy, due to discretization:         -0.155101 (  -0.01054%)
 WARNING: xc_energy_potential using alternative initial XC functional PBE.
Up spin density kernel initialisation ... 
======= Optimisation of K by Palser-Manolopoulos canonical purification ======== 
         Iteration  |  Band structure energy |    c_n   
               1       -2545.35902483399786    0.5305174
               2       -2720.82372137122638    0.5197288
               3       -2905.76180597276743    0.5152937
               4       -3066.59103204341136    0.5250847
               5       -3171.64189561562216    0.5563867
               6       -3218.64661088888352    0.6030191
               7       -3234.65584118256811    0.6230681
               8       -3241.18005717016968    0.6270894
               9       -3244.30403254326120    0.6476863
              10       -3245.60787793813506    0.6712252
              11       -3246.15027561965462    0.6794033
              12       -3246.41145523489922    0.6648760
              13       -3246.55580618913109    0.6213224
              14       -3246.64229842746408    0.5461677
              15       -3246.68973264889428    0.4446690
              16       -3246.70110449612002    0.3938863
              17       -3246.70213551835695    0.4085088
              18       -3246.70254199931333    0.4537099
              19       -3246.70273675053249    0.4890348
              20       -3246.70282251690060    0.4993724
              21       -3246.70288682416412    0.4999979
              22       -3246.70296589531699    0.5000000
              23       -3246.70304897329152    0.5000000
              24       -3246.70310686829453    0.5000000
              25       -3246.70312472882506    0.5000000
              26       -3246.70312595223186    0.5000003
              27       -3246.70312595739142    0.5000003
Termination criterion satisfied: band energy change below threshold.
Final occupancy bounds: [    0.00000000000039:    1.00000000000000]
Closest occupancy to 0.5:     0.99999999999999
================================================================================
... done

Writing density kernel to file "complex_14161.vacuum_dkn" ... done

>>> Optimising kernel for current NGWFs:
   Initial electron number for spin 1:    7234.00000000
     Final electron number for spin 1:    7234.00000000

=================== Penalty functional idempotency correction ==================
 RMS occupancy error at iteration   1:  0.000000 (step -0.5000 Ne1=   7234.0000)
            Final RMS occupancy error   :  0.000000 (Ne1=   7234.0000)
               Final occupancy bounds   : [ -0.0000,  1.0000]
================================================================================

................................................................................
<<<<<<<<<<<<<< LNV (Original version) density kernel optimisation >>>>>>>>>>>>>>
~~~~~~~~~~~~~~~~~~~~~~~~~~~~~~~~~~~~~~~~~~~~~~~~~~~~~~~~~~~~~~~~~~~~~~~~~~~~~~~~
   iter  |      energy (Eh)       | rms gradient |  commutator  |   dE (Eh)
MG BCs: +ve charge blocks (gridpoints):     31467 (   17440148).
MG BCs: -ve charge blocks (gridpoints):      8270 (    1113104).
MG BCs:     Elided blocks (gridpoints):    178572 (  187666573).
MG BCs: Computational effort saved:  99.9807%.
MG BCs: Charge after coarse-graining:           -9.0009756.
MG DL_MG: Calling solver with defect correction order = 8
MG DL_MG: Solver finished
MG Hartree energy from (\int phi*rho dr):              1426.069855
MG Hartree energy from (\int eps (grad phi)^2 dr):     1425.410818
MG Discrepancy due to finite box and discretization:     -0.659036 (  -0.04621%)
MG Correction to account for finite box:                  0.460408
MG Remaining discrepancy, due to discretization:         -0.198629 (  -0.01393%)
      ideal mu1:      -0.732180722714
             Q0:  -11541.184332946897
             G0:    -126.195897388376
   RMS gradient:       0.001715591743
MG BCs: +ve charge blocks (gridpoints):     31447 (   17518279).
MG BCs: -ve charge blocks (gridpoints):      8157 (    1090561).
MG BCs:     Elided blocks (gridpoints):    178590 (  187610985).
MG BCs: Computational effort saved:  99.9808%.
MG BCs: Charge after coarse-graining:           -9.0009995.
MG DL_MG: Calling solver with defect correction order = 8
MG DL_MG: Solver finished
MG Hartree energy from (\int phi*rho dr):              1448.090040
MG Hartree energy from (\int eps (grad phi)^2 dr):     1447.447131
MG Discrepancy due to finite box and discretization:     -0.642909 (  -0.04440%)
MG Correction to account for finite box:                  0.460002
MG Remaining discrepancy, due to discretization:         -0.182908 (  -0.01263%)
     Trial step:       0.500000000000
             Q1:  -11553.610196810099
 Quadratic coef:      50.672084830987
 Linear coef   :     -63.097948694188
           Qmin:  -11560.827057055714
Quadratic minimum step length (  0.311305272443) accepted
    Initial Ne1:    7234.00000000
      Final Ne1:    7234.00000000

=================== Penalty functional idempotency correction ==================
 RMS occupancy error at iteration   1:  0.003214 (step -0.4890 Ne1=   7234.0000)
 RMS occupancy error at iteration   2:  0.000027 (step -0.5003 Ne1=   7234.0000)
            Final RMS occupancy error   :  0.000000 (Ne1=   7234.0000)
               Final occupancy bounds   : [  0.0000,  1.0000]
================================================================================

    1        -1.154118433295E+04     1.7156E-03     1.5529E-03
MG BCs: +ve charge blocks (gridpoints):     31440 (   17489995).
MG BCs: -ve charge blocks (gridpoints):      8200 (    1099268).
MG BCs:     Elided blocks (gridpoints):    178599 (  187630562).
MG BCs: Computational effort saved:  99.9808%.
MG BCs: Charge after coarse-graining:           -9.0009908.
MG DL_MG: Calling solver with defect correction order = 8
MG DL_MG: Solver finished
MG Hartree energy from (\int phi*rho dr):              1433.283187
MG Hartree energy from (\int eps (grad phi)^2 dr):     1432.635040
MG Discrepancy due to finite box and discretization:     -0.648147 (  -0.04522%)
MG Correction to account for finite box:                  0.460047
MG Remaining discrepancy, due to discretization:         -0.188100 (  -0.01312%)
      ideal mu1:      -0.773358142527
             Q0:  -11561.206421278068
             G0:     -11.450088844355
   RMS gradient:       0.000513025175
MG BCs: +ve charge blocks (gridpoints):     31436 (   17507115).
MG BCs: -ve charge blocks (gridpoints):      8172 (    1092539).
MG BCs:     Elided blocks (gridpoints):    178601 (  187620171).
MG BCs: Computational effort saved:  99.9808%.
MG BCs: Charge after coarse-graining:           -9.0009959.
MG DL_MG: Calling solver with defect correction order = 8
MG DL_MG: Solver finished
MG Hartree energy from (\int phi*rho dr):              1438.700956
MG Hartree energy from (\int eps (grad phi)^2 dr):     1438.056456
MG Discrepancy due to finite box and discretization:     -0.644500 (  -0.04480%)
MG Correction to account for finite box:                  0.459502
MG Remaining discrepancy, due to discretization:         -0.184998 (  -0.01286%)
     Trial step:       0.394528371884
             Q1:  -11563.826525886892
 Quadratic coef:       1.897280300864
 Linear coef   :      -4.517384909689
           Qmin:  -11563.895371141327
Quadratic minimum step length (  0.469681921217) accepted
    Initial Ne1:    7233.99977526
      Final Ne1:    7234.00000000

=================== Penalty functional idempotency correction ==================
 RMS occupancy error at iteration   1:  0.001552 (step -0.4939 Ne1=   7234.0000)
 RMS occupancy error at iteration   2:  0.000012 (step -0.5005 Ne1=   7234.0000)
            Final RMS occupancy error   :  0.000000 (Ne1=   7234.0000)
               Final occupancy bounds   : [  0.0000,  1.0000]
================================================================================

    2        -1.156120642128E+04     5.1303E-04     4.6437E-04    -2.0022E+01
MG BCs: +ve charge blocks (gridpoints):     31436 (   17510365).
MG BCs: -ve charge blocks (gridpoints):      8169 (    1091296).
MG BCs:     Elided blocks (gridpoints):    178600 (  187618164).
MG BCs: Computational effort saved:  99.9808%.
MG BCs: Charge after coarse-graining:           -9.0009968.
MG DL_MG: Calling solver with defect correction order = 8
MG DL_MG: Solver finished
MG Hartree energy from (\int phi*rho dr):              1439.762381
MG Hartree energy from (\int eps (grad phi)^2 dr):     1439.118530
MG Discrepancy due to finite box and discretization:     -0.643852 (  -0.04472%)
MG Correction to account for finite box:                  0.459408
MG Remaining discrepancy, due to discretization:         -0.184444 (  -0.01281%)
      ideal mu1:      -0.795003828469
             Q0:  -11563.930922002881
             G0:      -1.917288339105
   RMS gradient:       0.000209951457
MG BCs: +ve charge blocks (gridpoints):     31440 (   17511509).
MG BCs: -ve charge blocks (gridpoints):      8172 (    1091330).
MG BCs:     Elided blocks (gridpoints):    178596 (  187616986).
MG BCs: Computational effort saved:  99.9808%.
MG BCs: Charge after coarse-graining:           -9.0009971.
MG DL_MG: Calling solver with defect correction order = 8
MG DL_MG: Solver finished
MG Hartree energy from (\int phi*rho dr):              1439.057697
MG Hartree energy from (\int eps (grad phi)^2 dr):     1438.414309
MG Discrepancy due to finite box and discretization:     -0.643388 (  -0.04471%)
MG Correction to account for finite box:                  0.459146
MG Remaining discrepancy, due to discretization:         -0.184242 (  -0.01280%)
     Trial step:       0.430468168023
             Q1:  -11564.427954941522
 Quadratic coef:       0.328298660264
 Linear coef   :      -0.825331598906
           Qmin:  -11564.449635852950
Quadratic minimum step length (  0.541091122800) accepted
    Initial Ne1:    7233.99980483
      Final Ne1:    7234.00000000

=================== Penalty functional idempotency correction ==================
 RMS occupancy error at iteration   1:  0.000621 (step -0.4972 Ne1=   7234.0000)
 RMS occupancy error at iteration   2:  0.000003 (step -0.5000 Ne1=   7234.0000)
            Final RMS occupancy error   :  0.000000 (Ne1=   7234.0000)
               Final occupancy bounds   : [  0.0000,  1.0000]
================================================================================

    3        -1.156393092200E+04     2.0995E-04     1.9004E-04    -2.7245E+00
MG BCs: +ve charge blocks (gridpoints):     31440 (   17511803).
MG BCs: -ve charge blocks (gridpoints):      8170 (    1091396).
MG BCs:     Elided blocks (gridpoints):    178596 (  187616626).
MG BCs: Computational effort saved:  99.9808%.
MG BCs: Charge after coarse-graining:           -9.0009971.
MG DL_MG: Calling solver with defect correction order = 8
MG DL_MG: Solver finished
MG Hartree energy from (\int phi*rho dr):              1438.882094
MG Hartree energy from (\int eps (grad phi)^2 dr):     1438.238811
MG Discrepancy due to finite box and discretization:     -0.643283 (  -0.04471%)
MG Correction to account for finite box:                  0.459081
MG Remaining discrepancy, due to discretization:         -0.184202 (  -0.01280%)
      ideal mu1:      -0.798084733239
             Q0:  -11564.454676100635
             G0:      -0.454125338512
   RMS gradient:       0.000102379177
MG BCs: +ve charge blocks (gridpoints):     31441 (   17512520).
MG BCs: -ve charge blocks (gridpoints):      8168 (    1091212).
MG BCs:     Elided blocks (gridpoints):    178595 (  187616093).
MG BCs: Computational effort saved:  99.9808%.
MG BCs: Charge after coarse-graining:           -9.0009971.
MG DL_MG: Calling solver with defect correction order = 8
MG DL_MG: Solver finished
MG Hartree energy from (\int phi*rho dr):              1439.964928
MG Hartree energy from (\int eps (grad phi)^2 dr):     1439.321574
MG Discrepancy due to finite box and discretization:     -0.643354 (  -0.04468%)
MG Correction to account for finite box:                  0.458986
MG Remaining discrepancy, due to discretization:         -0.184369 (  -0.01280%)
     Trial step:       0.482620455809
             Q1:  -11564.574520680006
 Quadratic coef:       0.099325598496
 Linear coef   :      -0.219170177867
           Qmin:  -11564.575580398201
Quadratic minimum step length (  0.532471048469) accepted
    Initial Ne1:    7233.99995417
      Final Ne1:    7234.00000000

=================== Penalty functional idempotency correction ==================
 RMS occupancy error at iteration   1:  0.000259 (step -0.4973 Ne1=   7234.0000)
 RMS occupancy error at iteration   2:  0.000002 (step -0.5000 Ne1=   7234.0000)
            Final RMS occupancy error   :  0.000000 (Ne1=   7234.0000)
               Final occupancy bounds   : [  0.0000,  1.0000]
================================================================================

    4        -1.156445467610E+04     1.0238E-04     9.2671E-05    -5.2375E-01
MG BCs: +ve charge blocks (gridpoints):     31441 (   17512638).
MG BCs: -ve charge blocks (gridpoints):      8168 (    1091198).
MG BCs:     Elided blocks (gridpoints):    178595 (  187615989).
MG BCs: Computational effort saved:  99.9808%.
MG BCs: Charge after coarse-graining:           -9.0009971.
MG DL_MG: Calling solver with defect correction order = 8
MG DL_MG: Solver finished
MG Hartree energy from (\int phi*rho dr):              1440.077215
MG Hartree energy from (\int eps (grad phi)^2 dr):     1439.433852
MG Discrepancy due to finite box and discretization:     -0.643363 (  -0.04468%)
MG Correction to account for finite box:                  0.458976
MG Remaining discrepancy, due to discretization:         -0.184387 (  -0.01280%)
      ideal mu1:      -0.798191613019
             Q0:  -11564.576166563551
             G0:      -0.170890421502
   RMS gradient:       0.000062981841
MG BCs: +ve charge blocks (gridpoints):     31438 (   17512277).
MG BCs: -ve charge blocks (gridpoints):      8165 (    1091352).
MG BCs:     Elided blocks (gridpoints):    178598 (  187616196).
MG BCs: Computational effort saved:  99.9808%.
MG BCs: Charge after coarse-graining:           -9.0009967.
MG DL_MG: Calling solver with defect correction order = 8
MG DL_MG: Solver finished
MG Hartree energy from (\int phi*rho dr):              1439.722833
MG Hartree energy from (\int eps (grad phi)^2 dr):     1439.079299
MG Discrepancy due to finite box and discretization:     -0.643534 (  -0.04470%)
MG Correction to account for finite box:                  0.458996
MG Remaining discrepancy, due to discretization:         -0.184539 (  -0.01282%)
     Trial step:       0.506933348791
             Q1:  -11564.630356606795
 Quadratic coef:       0.032440010405
 Linear coef   :      -0.086630053648
           Qmin:  -11564.634002289413
Quadratic minimum step length (  0.676874986367) accepted
    Initial Ne1:    7233.99997783
      Final Ne1:    7234.00000000

=================== Penalty functional idempotency correction ==================
 RMS occupancy error at iteration   1:  0.000354 (step -0.4822 Ne1=   7234.0000)
 RMS occupancy error at iteration   2:  0.000007 (step -0.5001 Ne1=   7234.0000)
            Final RMS occupancy error   :  0.000000 (Ne1=   7234.0000)
               Final occupancy bounds   : [  0.0000,  1.0000]
================================================================================

    5        -1.156457616656E+04     6.2982E-05     5.7009E-05    -1.2149E-01
MG BCs: +ve charge blocks (gridpoints):     31438 (   17512111).
MG BCs: -ve charge blocks (gridpoints):      8166 (    1091424).
MG BCs:     Elided blocks (gridpoints):    178598 (  187616290).
MG BCs: Computational effort saved:  99.9808%.
MG BCs: Charge after coarse-graining:           -9.0009966.
MG DL_MG: Calling solver with defect correction order = 8
MG DL_MG: Solver finished
MG Hartree energy from (\int phi*rho dr):              1439.602973
MG Hartree energy from (\int eps (grad phi)^2 dr):     1438.959382
MG Discrepancy due to finite box and discretization:     -0.643591 (  -0.04471%)
MG Correction to account for finite box:                  0.459000
MG Remaining discrepancy, due to discretization:         -0.184590 (  -0.01282%)
      ideal mu1:      -0.797563375829
             Q0:  -11564.633619651897
             G0:      -0.162035158645
   RMS gradient:       0.000061779407
MG BCs: +ve charge blocks (gridpoints):     31440 (   17511450).
MG BCs: -ve charge blocks (gridpoints):      8168 (    1091810).
MG BCs:     Elided blocks (gridpoints):    178596 (  187616565).
MG BCs: Computational effort saved:  99.9808%.
MG BCs: Charge after coarse-graining:           -9.0009964.
MG DL_MG: Calling solver with defect correction order = 8
MG DL_MG: Solver finished
MG Hartree energy from (\int phi*rho dr):              1438.523748
MG Hartree energy from (\int eps (grad phi)^2 dr):     1437.880206
MG Discrepancy due to finite box and discretization:     -0.643542 (  -0.04474%)
MG Correction to account for finite box:                  0.458907
MG Remaining discrepancy, due to discretization:         -0.184635 (  -0.01284%)
     Trial step:       0.585773423392
             Q1:  -11564.718079469167
 Quadratic coef:       0.010456072319
 Linear coef   :      -0.094915889589
           Qmin:  -11564.849021425654
Quadratic minimum step length (  2.658704142475) accepted
========================= Kernel Line Step Protection ==========================
|  Iter |  Trial Step |   RMS Occupancy Error |   Occupancy Bounds | Accepted? |
    0        0.000000                0.000000    [ 1.0000:  0.0000]
    1        2.658704                0.015356    [ 1.5482: -0.5510]        No
    2        1.329352                0.004338    [ 1.1985: -0.1998]       Yes
================================================================================
    Initial Ne1:    7233.99991833
      Final Ne1:    7234.00000000

=================== Penalty functional idempotency correction ==================
 RMS occupancy error at iteration   1:  0.004338 (step -0.3049 Ne1=   7234.0000)
 RMS occupancy error at iteration   2:  0.000355 (step -0.4838 Ne1=   7234.0000)
 RMS occupancy error at iteration   3:  0.000008 (step -0.5002 Ne1=   7234.0000)
            Final RMS occupancy error   :  0.000000 (Ne1=   7234.0000)
               Final occupancy bounds   : [  0.0000,  1.0000]
================================================================================

    6        -1.156463361965E+04     6.1779E-05     5.5921E-05    -5.7453E-02
MG BCs: +ve charge blocks (gridpoints):     31440 (   17510763).
MG BCs: -ve charge blocks (gridpoints):      8169 (    1092259).
MG BCs:     Elided blocks (gridpoints):    178596 (  187616803).
MG BCs: Computational effort saved:  99.9808%.
MG BCs: Charge after coarse-graining:           -9.0009961.
MG DL_MG: Calling solver with defect correction order = 8
MG DL_MG: Solver finished
MG Hartree energy from (\int phi*rho dr):              1437.171296
MG Hartree energy from (\int eps (grad phi)^2 dr):     1436.527795
MG Discrepancy due to finite box and discretization:     -0.643501 (  -0.04478%)
MG Correction to account for finite box:                  0.458811
MG Remaining discrepancy, due to discretization:         -0.184690 (  -0.01285%)
      ideal mu1:      -0.798292203763
             Q0:  -11564.732790489448
             G0:      -0.449031023650
   RMS gradient:       0.000108800604
========================= Kernel Line Step Protection ==========================
|  Iter |  Trial Step |   RMS Occupancy Error |   Occupancy Bounds | Accepted? |
    0        0.000000                0.000000    [ 1.0000:  0.0000]
    1        1.247958                0.056406    [ 2.3434: -1.3542]        No
    2        0.623979                0.018134    [ 1.6214: -0.6261]        No
    3        0.311989                0.006559    [ 1.2825: -0.2845]       Yes
================================================================================
MG BCs: +ve charge blocks (gridpoints):     31441 (   17511234).
MG BCs: -ve charge blocks (gridpoints):      8176 (    1092111).
MG BCs:     Elided blocks (gridpoints):    178595 (  187616480).
MG BCs: Computational effort saved:  99.9808%.
MG BCs: Charge after coarse-graining:           -9.0009962.
MG DL_MG: Calling solver with defect correction order = 8
MG DL_MG: Solver finished
MG Hartree energy from (\int phi*rho dr):              1436.978184
MG Hartree energy from (\int eps (grad phi)^2 dr):     1436.335031
MG Discrepancy due to finite box and discretization:     -0.643152 (  -0.04476%)
MG Correction to account for finite box:                  0.458440
MG Remaining discrepancy, due to discretization:         -0.184712 (  -0.01285%)
     Trial step:       0.311989405602
             Q1:  -11564.791823362699
 Quadratic coef:       0.081060048915
 Linear coef   :      -0.140092922165
           Qmin:  -11564.793319773305
Quadratic minimum step length (  0.269599562920) accepted
    Initial Ne1:    7233.99993040
      Final Ne1:    7234.00000000

=================== Penalty functional idempotency correction ==================
 RMS occupancy error at iteration   1:  0.005374 (step -0.2783 Ne1=   7234.0000)
 RMS occupancy error at iteration   2:  0.000455 (step -0.4755 Ne1=   7234.0000)
 RMS occupancy error at iteration   3:  0.000011 (step -0.5002 Ne1=   7234.0000)
            Final RMS occupancy error   :  0.000000 (Ne1=   7234.0000)
               Final occupancy bounds   : [  0.0000,  1.0000]
================================================================================

    7        -1.156473279049E+04     1.0880E-04     9.8483E-05    -9.9171E-02
MG BCs: +ve charge blocks (gridpoints):     31441 (   17511155).
MG BCs: -ve charge blocks (gridpoints):      8176 (    1092134).
MG BCs:     Elided blocks (gridpoints):    178595 (  187616536).
MG BCs: Computational effort saved:  99.9808%.
MG BCs: Charge after coarse-graining:           -9.0009962.
MG DL_MG: Calling solver with defect correction order = 8
MG DL_MG: Solver finished
MG Hartree energy from (\int phi*rho dr):              1437.014819
MG Hartree energy from (\int eps (grad phi)^2 dr):     1436.371542
MG Discrepancy due to finite box and discretization:     -0.643277 (  -0.04476%)
MG Correction to account for finite box:                  0.458569
MG Remaining discrepancy, due to discretization:         -0.184708 (  -0.01285%)
      ideal mu1:      -0.799631135237
             Q0:  -11564.785567588173
             G0:      -0.738420112833
   RMS gradient:       0.000121989282
========================= Kernel Line Step Protection ==========================
|  Iter |  Trial Step |   RMS Occupancy Error |   Occupancy Bounds | Accepted? |
    0        0.000000                0.000000    [ 1.0000:  0.0000]
    1        0.290021                0.010887    [ 1.4234: -0.4288]        No
    2        0.145011                0.004402    [ 1.2018: -0.2040]       Yes
================================================================================
MG BCs: +ve charge blocks (gridpoints):     31440 (   17511819).
MG BCs: -ve charge blocks (gridpoints):      8176 (    1091836).
MG BCs:     Elided blocks (gridpoints):    178596 (  187616170).
MG BCs: Computational effort saved:  99.9808%.
MG BCs: Charge after coarse-graining:           -9.0009965.
MG DL_MG: Calling solver with defect correction order = 8
MG DL_MG: Solver finished
MG Hartree energy from (\int phi*rho dr):              1437.685697
MG Hartree energy from (\int eps (grad phi)^2 dr):     1437.042656
MG Discrepancy due to finite box and discretization:     -0.643041 (  -0.04473%)
MG Correction to account for finite box:                  0.458337
MG Remaining discrepancy, due to discretization:         -0.184704 (  -0.01285%)
     Trial step:       0.145010523227
             Q1:  -11564.850322506391
 Quadratic coef:       0.042323768705
 Linear coef   :      -0.107078686923
           Qmin:  -11564.853294574355
Quadratic minimum step length (  0.183437544580) accepted
    Initial Ne1:    7233.99992057
      Final Ne1:    7234.00000000

=================== Penalty functional idempotency correction ==================
 RMS occupancy error at iteration   1:  0.005917 (step -0.2661 Ne1=   7234.0000)
 RMS occupancy error at iteration   2:  0.000509 (step -0.4721 Ne1=   7234.0000)
 RMS occupancy error at iteration   3:  0.000014 (step -0.5002 Ne1=   7234.0000)
            Final RMS occupancy error   :  0.000000 (Ne1=   7234.0000)
               Final occupancy bounds   : [  0.0000,  1.0000]
================================================================================

    8        -1.156478556759E+04     1.2199E-04     1.1042E-04    -5.2777E-02
MG BCs: +ve charge blocks (gridpoints):     31440 (   17512005).
MG BCs: -ve charge blocks (gridpoints):      8177 (    1091723).
MG BCs:     Elided blocks (gridpoints):    178596 (  187616097).
MG BCs: Computational effort saved:  99.9808%.
MG BCs: Charge after coarse-graining:           -9.0009966.
MG DL_MG: Calling solver with defect correction order = 8
MG DL_MG: Solver finished
MG Hartree energy from (\int phi*rho dr):              1437.866833
MG Hartree energy from (\int eps (grad phi)^2 dr):     1437.223809
MG Discrepancy due to finite box and discretization:     -0.643023 (  -0.04472%)
MG Correction to account for finite box:                  0.458322
MG Remaining discrepancy, due to discretization:         -0.184701 (  -0.01285%)
      ideal mu1:      -0.801023474472
             Q0:  -11564.863888105727
             G0:      -0.878436265412
   RMS gradient:       0.000117936823
MG BCs: +ve charge blocks (gridpoints):     31441 (   17513207).
MG BCs: -ve charge blocks (gridpoints):      8174 (    1091105).
MG BCs:     Elided blocks (gridpoints):    178595 (  187615513).
MG BCs: Computational effort saved:  99.9808%.
MG BCs: Charge after coarse-graining:           -9.0009969.
MG DL_MG: Calling solver with defect correction order = 8
MG DL_MG: Solver finished
MG Hartree energy from (\int phi*rho dr):              1439.057278
MG Hartree energy from (\int eps (grad phi)^2 dr):     1438.414490
MG Discrepancy due to finite box and discretization:     -0.642788 (  -0.04467%)
MG Correction to account for finite box:                  0.458111
MG Remaining discrepancy, due to discretization:         -0.184677 (  -0.01283%)
     Trial step:       0.163096211847
             Q1:  -11564.926597012673
 Quadratic coef:       0.080560720293
 Linear coef   :      -0.143269627238
           Qmin:  -11564.927585978630
Quadratic minimum step length (  0.145025599265) accepted
    Initial Ne1:    7233.99992172
      Final Ne1:    7234.00000000

=================== Penalty functional idempotency correction ==================
 RMS occupancy error at iteration   1:  0.004819 (step -0.2900 Ne1=   7234.0000)
 RMS occupancy error at iteration   2:  0.000374 (step -0.4794 Ne1=   7234.0000)
 RMS occupancy error at iteration   3:  0.000008 (step -0.5001 Ne1=   7234.0000)
            Final RMS occupancy error   :  0.000000 (Ne1=   7234.0000)
               Final occupancy bounds   : [  0.0000,  1.0000]
================================================================================

    9        -1.156486388811E+04     1.1794E-04     1.0675E-04    -7.8321E-02
MG BCs: +ve charge blocks (gridpoints):     31440 (   17513056).
MG BCs: -ve charge blocks (gridpoints):      8175 (    1091162).
MG BCs:     Elided blocks (gridpoints):    178596 (  187615607).
MG BCs: Computational effort saved:  99.9808%.
MG BCs: Charge after coarse-graining:           -9.0009969.
MG DL_MG: Calling solver with defect correction order = 8
MG DL_MG: Solver finished
MG Hartree energy from (\int phi*rho dr):              1438.905007
MG Hartree energy from (\int eps (grad phi)^2 dr):     1438.262232
MG Discrepancy due to finite box and discretization:     -0.642775 (  -0.04467%)
MG Correction to account for finite box:                  0.458099
MG Remaining discrepancy, due to discretization:         -0.184675 (  -0.01283%)
      ideal mu1:      -0.802087995160
   10        -1.156495111152E+04     1.1274E-04     1.0205E-04    -8.7223E-02
Finished density kernel iterations (  10)

Writing density kernel to file "complex_14161.vacuum_dkn" ... done


>>> Density kernel optimised for the current NGWF basis:
     ~~~~~~~~~~~~~~~~~~~~~~~~~~~~~~~~~~~~~~~~~~~~~~~~~~~~~~~~~~~
     Total energy                =  -1.15649511115156E+04  Eh
     Estimated bandgap           =  -2.7976E-01  Eh
     RMS occupancy error         =   3.5232E-09
     [H,K] commutator            =   1.0205E-04
     Occupancy bounds            = [  0.000:  1.000]
     ~~~~~~~~~~~~~~~~~~~~~~~~~~~~~~~~~~~~~~~~~~~~~~~~~~~~~~~~~~~




################################################################################
########################### NGWF CG iteration  001 #############################
################################################################################
****** Reciprocal space K.E. preconditioning with k_zero =  3.5000 a0^-1 *******

>>> Checking for convergence of NGWFs:   NOT CONVERGED
  ========================================================================
         NGWF RMS gradient =  1.6621E-03 >  2.0000E-06  | above tolerance
  ========================================================================

>>> Improving NGWFs using line search:
============ Calculation of NGWF S^-1 using Hotelling algorithm ================ 
         Iteration  |  Frobenius norm and Maximum abs value    (of I-S*S_n^-1)   
               1       0.24317323E+00     0.70164529E-02
               2       0.13713963E-02     0.63668346E-04
               3       0.74050247E-07     0.53354018E-08
               4       0.13267426E-12     0.53290705E-14
================================================================================
MG BCs: +ve charge blocks (gridpoints):     31014 (   17466161).
MG BCs: -ve charge blocks (gridpoints):      8179 (    1088085).
MG BCs:     Elided blocks (gridpoints):    179027 (  187665579).
MG BCs: Computational effort saved:  99.9810%.
MG BCs: Charge after coarse-graining:           -9.0010042.
MG DL_MG: Calling solver with defect correction order = 8
MG DL_MG: Solver finished
MG Hartree energy from (\int phi*rho dr):              1410.362948
MG Hartree energy from (\int eps (grad phi)^2 dr):     1409.721702
MG Discrepancy due to finite box and discretization:     -0.641246 (  -0.04547%)
MG Correction to account for finite box:                  0.458061
MG Remaining discrepancy, due to discretization:         -0.183185 (  -0.01299%)
============ Calculation of NGWF S^-1 using Hotelling algorithm ================ 
         Iteration  |  Frobenius norm and Maximum abs value    (of I-S*S_n^-1)   
               1       0.21680956E+01     0.52531506E-01
               2       0.96761094E-01     0.34816560E-02
               3       0.26921757E-03     0.15988198E-04
               4       0.36796899E-08     0.34288683E-09
               5       0.11930055E-12     0.59952043E-14
================================================================================
------------------------------- NGWF line search -------------------------------
RMS gradient                =       0.00166207304882
Trial step length           =               0.122474
Gradient along search dir.  =       -300.88193439391
Functional at step 0        =  -11564.95111151563469
Functional at step 1        =  -11598.88232943683397
Functional predicted        =  -11681.24801989525622
Selected quadratic step     =               0.773040
--------------------------- NGWF line search finished --------------------------
                                               
Writing NGWFs to file "complex_14161.vacuum_tightbox_ngwfs"....  done

>>> Optimising kernel for current NGWFs:
   Initial electron number for spin 1:    7280.18705846
     Final electron number for spin 1:    7234.00000000

=================== Penalty functional idempotency correction ==================
 RMS occupancy error at iteration   1:  0.005275 (step -0.4822 Ne1=   7234.0000)
 RMS occupancy error at iteration   2:  0.000101 (step -0.5004 Ne1=   7234.0000)
            Final RMS occupancy error   :  0.000000 (Ne1=   7234.0000)
               Final occupancy bounds   : [  0.0000,  1.0000]
================================================================================

................................................................................
<<<<<<<<<<<<<< LNV (Original version) density kernel optimisation >>>>>>>>>>>>>>
~~~~~~~~~~~~~~~~~~~~~~~~~~~~~~~~~~~~~~~~~~~~~~~~~~~~~~~~~~~~~~~~~~~~~~~~~~~~~~~~
   iter  |      energy (Eh)       | rms gradient |  commutator  |   dE (Eh)
MG BCs: +ve charge blocks (gridpoints):     25575 (   17197240).
MG BCs: -ve charge blocks (gridpoints):      8286 (    1058162).
MG BCs:     Elided blocks (gridpoints):    184470 (  187964423).
MG BCs: Computational effort saved:  99.9836%.
MG BCs: Charge after coarse-graining:           -9.0007727.
MG DL_MG: Calling solver with defect correction order = 8
MG DL_MG: Solver finished
MG Hartree energy from (\int phi*rho dr):              1280.590676
MG Hartree energy from (\int eps (grad phi)^2 dr):     1279.952432
MG Discrepancy due to finite box and discretization:     -0.638244 (  -0.04984%)
MG Correction to account for finite box:                  0.457912
MG Remaining discrepancy, due to discretization:         -0.180332 (  -0.01408%)
      ideal mu1:      -0.744952228072
             Q0:  -11680.628292203764
             G0:     -10.211223476826
   RMS gradient:       0.000488011684
MG BCs: +ve charge blocks (gridpoints):     25595 (   17200094).
MG BCs: -ve charge blocks (gridpoints):      8285 (    1057432).
MG BCs:     Elided blocks (gridpoints):    184450 (  187962299).
MG BCs: Computational effort saved:  99.9836%.
MG BCs: Charge after coarse-graining:           -9.0007717.
MG DL_MG: Calling solver with defect correction order = 8
MG DL_MG: Solver finished
MG Hartree energy from (\int phi*rho dr):              1282.564460
MG Hartree energy from (\int eps (grad phi)^2 dr):     1281.925485
MG Discrepancy due to finite box and discretization:     -0.638975 (  -0.04982%)
MG Correction to account for finite box:                  0.457649
MG Remaining discrepancy, due to discretization:         -0.181326 (  -0.01414%)
     Trial step:       0.153795727707
             Q1:  -11681.846491245087
 Quadratic coef:       0.352243504076
 Linear coef   :      -1.570442545398
           Qmin:  -11682.378707583934
Quadratic minimum step length (  0.342841459526) accepted
    Initial Ne1:    7233.99883034
      Final Ne1:    7234.00000000

=================== Penalty functional idempotency correction ==================
 RMS occupancy error at iteration   1:  0.000461 (step -0.4929 Ne1=   7234.0000)
 RMS occupancy error at iteration   2:  0.000008 (step -0.5004 Ne1=   7234.0000)
            Final RMS occupancy error   :  0.000000 (Ne1=   7234.0000)
               Final occupancy bounds   : [  0.0000,  1.0000]
================================================================================

    1        -1.168062829220E+04     4.8801E-04     4.4173E-04
MG BCs: +ve charge blocks (gridpoints):     25611 (   17203380).
MG BCs: -ve charge blocks (gridpoints):      8286 (    1056645).
MG BCs:     Elided blocks (gridpoints):    184434 (  187959800).
MG BCs: Computational effort saved:  99.9836%.
MG BCs: Charge after coarse-graining:           -9.0007706.
MG DL_MG: Calling solver with defect correction order = 8
MG DL_MG: Solver finished
MG Hartree energy from (\int phi*rho dr):              1285.525636
MG Hartree energy from (\int eps (grad phi)^2 dr):     1284.885701
MG Discrepancy due to finite box and discretization:     -0.639936 (  -0.04978%)
MG Correction to account for finite box:                  0.457341
MG Remaining discrepancy, due to discretization:         -0.182595 (  -0.01420%)
      ideal mu1:      -0.751811857166
             Q0:  -11682.386471106205
             G0:      -1.430651490787
   RMS gradient:       0.000181787694
MG BCs: +ve charge blocks (gridpoints):     25613 (   17203389).
MG BCs: -ve charge blocks (gridpoints):      8285 (    1057000).
MG BCs:     Elided blocks (gridpoints):    184432 (  187959436).
MG BCs: Computational effort saved:  99.9836%.
MG BCs: Charge after coarse-graining:           -9.0007704.
MG DL_MG: Calling solver with defect correction order = 8
MG DL_MG: Solver finished
MG Hartree energy from (\int phi*rho dr):              1285.872679
MG Hartree energy from (\int eps (grad phi)^2 dr):     1285.232880
MG Discrepancy due to finite box and discretization:     -0.639799 (  -0.04976%)
MG Correction to account for finite box:                  0.457091
MG Remaining discrepancy, due to discretization:         -0.182708 (  -0.01421%)
     Trial step:       0.229624806491
             Q1:  -11682.655496211839
 Quadratic coef:       0.059487966095
 Linear coef   :      -0.328513071728
           Qmin:  -11682.840011735430
Quadratic minimum step length (  0.634033700236) accepted
    Initial Ne1:    7233.99962115
      Final Ne1:    7234.00000000

=================== Penalty functional idempotency correction ==================
 RMS occupancy error at iteration   1:  0.001250 (step -0.4209 Ne1=   7234.0000)
 RMS occupancy error at iteration   2:  0.000055 (step -0.4998 Ne1=   7234.0000)
            Final RMS occupancy error   :  0.000000 (Ne1=   7234.0000)
               Final occupancy bounds   : [ -0.0000,  1.0000]
================================================================================

    2        -1.168238647111E+04     1.8179E-04     1.6455E-04    -1.7582E+00
MG BCs: +ve charge blocks (gridpoints):     25618 (   17203331).
MG BCs: -ve charge blocks (gridpoints):      8289 (    1057634).
MG BCs:     Elided blocks (gridpoints):    184427 (  187958860).
MG BCs: Computational effort saved:  99.9836%.
MG BCs: Charge after coarse-graining:           -9.0007701.
MG DL_MG: Calling solver with defect correction order = 8
MG DL_MG: Solver finished
MG Hartree energy from (\int phi*rho dr):              1286.478780
MG Hartree energy from (\int eps (grad phi)^2 dr):     1285.839143
MG Discrepancy due to finite box and discretization:     -0.639638 (  -0.04972%)
MG Correction to account for finite box:                  0.456718
MG Remaining discrepancy, due to discretization:         -0.182920 (  -0.01422%)
      ideal mu1:      -0.754880166912
             Q0:  -11682.830789006897
             G0:      -0.717722211136
   RMS gradient:       0.000130430205
MG BCs: +ve charge blocks (gridpoints):     25619 (   17202446).
MG BCs: -ve charge blocks (gridpoints):      8292 (    1058096).
MG BCs:     Elided blocks (gridpoints):    184426 (  187959283).
MG BCs: Computational effort saved:  99.9836%.
MG BCs: Charge after coarse-graining:           -9.0007701.
MG DL_MG: Calling solver with defect correction order = 8
MG DL_MG: Solver finished
MG Hartree energy from (\int phi*rho dr):              1285.719078
MG Hartree energy from (\int eps (grad phi)^2 dr):     1285.079962
MG Discrepancy due to finite box and discretization:     -0.639116 (  -0.04971%)
MG Correction to account for finite box:                  0.456385
MG Remaining discrepancy, due to discretization:         -0.182732 (  -0.01421%)
     Trial step:       0.381562400828
             Q1:  -11683.025648974115
 Quadratic coef:       0.078995842790
 Linear coef   :      -0.273855810008
           Qmin:  -11683.068133789946
Quadratic minimum step length (  0.661383413711) accepted
    Initial Ne1:    7233.99983745
      Final Ne1:    7234.00000000

=================== Penalty functional idempotency correction ==================
 RMS occupancy error at iteration   1:  0.002877 (step -0.3425 Ne1=   7234.0000)
 RMS occupancy error at iteration   2:  0.000127 (step -0.4982 Ne1=   7234.0000)
 RMS occupancy error at iteration   3:  0.000001 (step -0.5000 Ne1=   7234.0000)
            Final RMS occupancy error   :  0.000000 (Ne1=   7234.0000)
               Final occupancy bounds   : [  0.0000,  1.0000]
================================================================================

    3        -1.168283078901E+04     1.3043E-04     1.1806E-04    -4.4432E-01
MG BCs: +ve charge blocks (gridpoints):     25614 (   17201815).
MG BCs: -ve charge blocks (gridpoints):      8295 (    1058385).
MG BCs:     Elided blocks (gridpoints):    184431 (  187959625).
MG BCs: Computational effort saved:  99.9836%.
MG BCs: Charge after coarse-graining:           -9.0007702.
MG DL_MG: Calling solver with defect correction order = 8
MG DL_MG: Solver finished
MG Hartree energy from (\int phi*rho dr):              1285.160812
MG Hartree energy from (\int eps (grad phi)^2 dr):     1284.521996
MG Discrepancy due to finite box and discretization:     -0.638816 (  -0.04971%)
MG Correction to account for finite box:                  0.456221
MG Remaining discrepancy, due to discretization:         -0.182595 (  -0.01421%)
      ideal mu1:      -0.754757370718
             Q0:  -11683.081228048773
             G0:      -0.262952005812
   RMS gradient:       0.000074315109
MG BCs: +ve charge blocks (gridpoints):     25613 (   17201229).
MG BCs: -ve charge blocks (gridpoints):      8295 (    1058329).
MG BCs:     Elided blocks (gridpoints):    184432 (  187960267).
MG BCs: Computational effort saved:  99.9836%.
MG BCs: Charge after coarse-graining:           -9.0007704.
MG DL_MG: Calling solver with defect correction order = 8
MG DL_MG: Solver finished
MG Hartree energy from (\int phi*rho dr):              1284.997787
MG Hartree energy from (\int eps (grad phi)^2 dr):     1284.359288
MG Discrepancy due to finite box and discretization:     -0.638499 (  -0.04969%)
MG Correction to account for finite box:                  0.456095
MG Remaining discrepancy, due to discretization:         -0.182404 (  -0.01419%)
     Trial step:       0.502353504221
             Q1:  -11683.155554086319
 Quadratic coef:       0.057768824016
 Linear coef   :      -0.132094861562
           Qmin:  -11683.156740458573
Quadratic minimum step length (  0.574343668284) accepted
    Initial Ne1:    7233.99995414
      Final Ne1:    7234.00000000

=================== Penalty functional idempotency correction ==================
 RMS occupancy error at iteration   1:  0.001665 (step -0.3928 Ne1=   7234.0000)
 RMS occupancy error at iteration   2:  0.000040 (step -0.4989 Ne1=   7234.0000)
            Final RMS occupancy error   :  0.000000 (Ne1=   7234.0000)
               Final occupancy bounds   : [ -0.0000,  1.0000]
================================================================================

    4        -1.168308122805E+04     7.4315E-05     6.7268E-05    -2.5044E-01
MG BCs: +ve charge blocks (gridpoints):     25612 (   17201144).
MG BCs: -ve charge blocks (gridpoints):      8295 (    1058324).
MG BCs:     Elided blocks (gridpoints):    184433 (  187960357).
MG BCs: Computational effort saved:  99.9836%.
MG BCs: Charge after coarse-graining:           -9.0007704.
MG DL_MG: Calling solver with defect correction order = 8
MG DL_MG: Solver finished
MG Hartree energy from (\int phi*rho dr):              1284.974239
MG Hartree energy from (\int eps (grad phi)^2 dr):     1284.335804
MG Discrepancy due to finite box and discretization:     -0.638435 (  -0.04968%)
MG Correction to account for finite box:                  0.456058
MG Remaining discrepancy, due to discretization:         -0.182377 (  -0.01419%)
      ideal mu1:      -0.755111909661
             Q0:  -11683.166072562570
             G0:      -0.128533853296
   RMS gradient:       0.000049938895
MG BCs: +ve charge blocks (gridpoints):     25614 (   17201695).
MG BCs: -ve charge blocks (gridpoints):      8289 (    1058015).
MG BCs:     Elided blocks (gridpoints):    184431 (  187960115).
MG BCs: Computational effort saved:  99.9836%.
MG BCs: Charge after coarse-graining:           -9.0007704.
MG DL_MG: Calling solver with defect correction order = 8
MG DL_MG: Solver finished
MG Hartree energy from (\int phi*rho dr):              1285.610571
MG Hartree energy from (\int eps (grad phi)^2 dr):     1284.972224
MG Discrepancy due to finite box and discretization:     -0.638347 (  -0.04965%)
MG Correction to account for finite box:                  0.455985
MG Remaining discrepancy, due to discretization:         -0.182362 (  -0.01418%)
     Trial step:       0.537143886114
             Q1:  -11683.202275178744
 Quadratic coef:       0.032838557281
 Linear coef   :      -0.069041173456
           Qmin:  -11683.202361334268
Quadratic minimum step length (  0.564657026415) accepted
    Initial Ne1:    7234.00108934
      Final Ne1:    7234.00000000

=================== Penalty functional idempotency correction ==================
 RMS occupancy error at iteration   1:  0.001284 (step -0.4122 Ne1=   7234.0000)
 RMS occupancy error at iteration   2:  0.000020 (step -0.4992 Ne1=   7234.0000)
            Final RMS occupancy error   :  0.000000 (Ne1=   7234.0000)
               Final occupancy bounds   : [ -0.0000,  1.0000]
================================================================================

    5        -1.168316607256E+04     4.9939E-05     4.5203E-05    -8.4845E-02
MG BCs: +ve charge blocks (gridpoints):     25614 (   17201727).
MG BCs: -ve charge blocks (gridpoints):      8289 (    1057992).
MG BCs:     Elided blocks (gridpoints):    184431 (  187960106).
MG BCs: Computational effort saved:  99.9836%.
MG BCs: Charge after coarse-graining:           -9.0007704.
MG DL_MG: Calling solver with defect correction order = 8
MG DL_MG: Solver finished
MG Hartree energy from (\int phi*rho dr):              1285.643176
MG Hartree energy from (\int eps (grad phi)^2 dr):     1285.004853
MG Discrepancy due to finite box and discretization:     -0.638322 (  -0.04965%)
MG Correction to account for finite box:                  0.455961
MG Remaining discrepancy, due to discretization:         -0.182361 (  -0.01418%)
      ideal mu1:      -0.756030587921
             Q0:  -11683.208600628423
             G0:      -0.055381546554
   RMS gradient:       0.000031845908
MG BCs: +ve charge blocks (gridpoints):     25616 (   17201884).
MG BCs: -ve charge blocks (gridpoints):      8289 (    1057974).
MG BCs:     Elided blocks (gridpoints):    184429 (  187959967).
[...]
 RMS occupancy error at iteration   1:  0.000000 (step -0.5000 Ne1=   7234.0000)
            Final RMS occupancy error   :  0.000000 (Ne1=   7234.0000)
               Final occupancy bounds   : [ -0.0000,  1.0000]
================================================================================

    7        -1.171950078078E+04     5.0731E-09     4.5920E-09     2.3283E-10

Reusing previously generated solute cavity.
MG BCs: +ve charge blocks (gridpoints):     30220 (   19485697).
MG BCs: -ve charge blocks (gridpoints):      8319 (    1035456).
MG BCs:     Elided blocks (gridpoints):    179825 (  185698672).
MG BCs: Computational effort saved:  99.9813%.
MG BCs: Charge after coarse-graining:           -9.0010094.
MG DL_MG: Calling solver with defect correction order = 8
MG DL_MG: Solver finished
MG Hartree energy from (\int phi*rho dr):              1236.420781
MG Hartree energy from (\int eps (grad phi)^2 dr):     1236.233022
MG Discrepancy due to finite box and discretization:     -0.187759 (  -0.01519%)
MG Correction to account for finite box:                  0.006272
MG Remaining discrepancy, due to discretization:         -0.181487 (  -0.01468%)
      ideal mu1:      -0.514837202755
             Q0:  -11719.500780775445
             G0:      -0.000000001347
   RMS gradient:       0.000000004162

Reusing previously generated solute cavity.
MG BCs: +ve charge blocks (gridpoints):     30220 (   19485697).
MG BCs: -ve charge blocks (gridpoints):      8319 (    1035456).
MG BCs:     Elided blocks (gridpoints):    179825 (  185698672).
MG BCs: Computational effort saved:  99.9813%.
MG BCs: Charge after coarse-graining:           -9.0010094.
MG DL_MG: Calling solver with defect correction order = 8
MG DL_MG: Solver finished
MG Hartree energy from (\int phi*rho dr):              1236.420801
MG Hartree energy from (\int eps (grad phi)^2 dr):     1236.233042
MG Discrepancy due to finite box and discretization:     -0.187759 (  -0.01519%)
MG Correction to account for finite box:                  0.006272
MG Remaining discrepancy, due to discretization:         -0.181487 (  -0.01468%)
     Trial step:       0.183597319918
             Q1:  -11719.500780775095
 Quadratic coef:       0.000000000597
 Linear coef   :      -0.000000000247
           Qmin:  -11719.500780775470
Quadratic minimum step length (  0.038055768107) accepted
    Initial Ne1:    7234.00000000
      Final Ne1:    7234.00000000

=================== Penalty functional idempotency correction ==================
 RMS occupancy error at iteration   1:  0.000000 (step -0.5000 Ne1=   7234.0000)
            Final RMS occupancy error   :  0.000000 (Ne1=   7234.0000)
               Final occupancy bounds   : [  0.0000,  1.0000]
================================================================================

    8        -1.171950078078E+04     4.1618E-09     3.7672E-09     0.0000E+00

Reusing previously generated solute cavity.
MG BCs: +ve charge blocks (gridpoints):     30220 (   19485697).
MG BCs: -ve charge blocks (gridpoints):      8319 (    1035456).
MG BCs:     Elided blocks (gridpoints):    179825 (  185698672).
MG BCs: Computational effort saved:  99.9813%.
MG BCs: Charge after coarse-graining:           -9.0010094.
MG DL_MG: Calling solver with defect correction order = 8
MG DL_MG: Solver finished
MG Hartree energy from (\int phi*rho dr):              1236.420785
MG Hartree energy from (\int eps (grad phi)^2 dr):     1236.233026
MG Discrepancy due to finite box and discretization:     -0.187759 (  -0.01519%)
MG Correction to account for finite box:                  0.006272
MG Remaining discrepancy, due to discretization:         -0.181487 (  -0.01468%)
      ideal mu1:      -0.514837204157
             Q0:  -11719.500780775328
             G0:      -0.000000001528
   RMS gradient:       0.000000003701

Reusing previously generated solute cavity.
MG BCs: +ve charge blocks (gridpoints):     30220 (   19485697).
MG BCs: -ve charge blocks (gridpoints):      8319 (    1035456).
MG BCs:     Elided blocks (gridpoints):    179825 (  185698672).
MG BCs: Computational effort saved:  99.9813%.
MG BCs: Charge after coarse-graining:           -9.0010094.
MG DL_MG: Calling solver with defect correction order = 8
MG DL_MG: Solver finished
MG Hartree energy from (\int phi*rho dr):              1236.420797
MG Hartree energy from (\int eps (grad phi)^2 dr):     1236.233037
MG Discrepancy due to finite box and discretization:     -0.187759 (  -0.01519%)
MG Correction to account for finite box:                  0.006272
MG Remaining discrepancy, due to discretization:         -0.181487 (  -0.01468%)
     Trial step:       0.083587900033
             Q1:  -11719.500780775212
 Quadratic coef:       0.000000000244
 Linear coef   :      -0.000000000128
           Qmin:  -11719.500780775345
Quadratic minimum step length (  0.021893528848) accepted
    Initial Ne1:    7234.00000000
      Final Ne1:    7234.00000000

=================== Penalty functional idempotency correction ==================
 RMS occupancy error at iteration   1:  0.000000 (step -0.5000 Ne1=   7234.0000)
            Final RMS occupancy error   :  0.000000 (Ne1=   7234.0000)
               Final occupancy bounds   : [  0.0000,  1.0000]
================================================================================

    9        -1.171950078078E+04     3.7013E-09     3.3503E-09     1.1642E-10

Reusing previously generated solute cavity.
MG BCs: +ve charge blocks (gridpoints):     30220 (   19485697).
MG BCs: -ve charge blocks (gridpoints):      8319 (    1035456).
MG BCs:     Elided blocks (gridpoints):    179825 (  185698672).
MG BCs: Computational effort saved:  99.9813%.
MG BCs: Charge after coarse-graining:           -9.0010094.
MG DL_MG: Calling solver with defect correction order = 8
MG DL_MG: Solver finished
MG Hartree energy from (\int phi*rho dr):              1236.420788
MG Hartree energy from (\int eps (grad phi)^2 dr):     1236.233029
MG Discrepancy due to finite box and discretization:     -0.187759 (  -0.01519%)
MG Correction to account for finite box:                  0.006272
MG Remaining discrepancy, due to discretization:         -0.181487 (  -0.01468%)
      ideal mu1:      -0.514837205274
   10        -1.171950078078E+04     3.3869E-09     3.0658E-09    -1.1642E-10
Finished density kernel iterations (  10)

Writing density kernel to file "complex_14161.dkn" ... done


>>> Density kernel optimised for the current NGWF basis:
     ~~~~~~~~~~~~~~~~~~~~~~~~~~~~~~~~~~~~~~~~~~~~~~~~~~~~~~~~~~~
     Total energy                =  -1.17195007807754E+04  Eh
     Estimated bandgap           =   1.2037E-01  Eh
     RMS occupancy error         =   2.6814E-16
     [H,K] commutator            =   3.0658E-09
     Occupancy bounds            = [  0.000:  1.000]
     ~~~~~~~~~~~~~~~~~~~~~~~~~~~~~~~~~~~~~~~~~~~~~~~~~~~~~~~~~~~




################################################################################
########################### NGWF CG iteration  005 #############################
################################################################################
****** Reciprocal space K.E. preconditioning with k_zero =  3.5000 a0^-1 *******

>>> Checking for convergence of NGWFs: 
           ........................................................
           |         *** NGWF optimisation converged ***          |
           | RMS NGWF gradient =    0.00000106516714              |
           | Criteria satisfied:                                  |
           | -> RMS NGWF gradient lower than set threshold.       |
           ========================================================

Reusing previously generated solute cavity.
MG BCs: +ve charge blocks (gridpoints):     30220 (   19485697).
MG BCs: -ve charge blocks (gridpoints):      8319 (    1035456).
MG BCs:     Elided blocks (gridpoints):    179825 (  185698672).
MG BCs: Computational effort saved:  99.9813%.
MG BCs: Charge after coarse-graining:           -9.0010094.
MG DL_MG: Calling solver with defect correction order = 8
MG DL_MG: Solver finished
MG Hartree energy from (\int phi*rho dr):              1236.420788
MG Hartree energy from (\int eps (grad phi)^2 dr):     1236.233029
MG Discrepancy due to finite box and discretization:     -0.187759 (  -0.01519%)
MG Correction to account for finite box:                  0.006272
MG Remaining discrepancy, due to discretization:         -0.181487 (  -0.01468%)

================================================================================
           ---------------- ENERGY COMPONENTS (Eh) ----------------
           | Kinetic                    :     8459.86613067647886 |
           | Pseudo. (local,OBC,corr'd) :    -5021.57370879200425 |
           | Pseudopotential (non-local):     1455.93586441484149 |
           | Hartree (molecular)        :     1236.42078828680860 |
           | Exchange-correlation       :    -3354.20445310766627 |
           | Ion-ion (open BC)          :   824536.11638590297662 |
           | Smeared ion non-self corr. :  -824487.77400807500817 |
           | Smeared ion self corr.     :   -14544.93686558573609 |
           | Solvent cavitation energy  :        2.30929646520205 |
           | Solute-solvent dis-rep en. :       -1.66021096124538 |
           | Total                      :   -11719.50078077537364 |
           --------------------------------------------------------
           ------ LOCAL ENERGY COMPONENTS FROM MATRIX TRACES ------
           | Pseudopotential (local)    :    -5021.57370879202972 |
           | Hartree                    :    -1999.25323149332962 |
           --------------------------------------------------------
           Integrated density           :     7233.99999999812462
           Integrated density tr(KS)    :     7234.00000000000091
================================================================================


                        <<<<< CALCULATION SUMMARY >>>>>                         
|ITER|    RMS GRADIENT   |     TOTAL ENERGY    |   step   |     Epredicted              
   0     0.00003982207499 -11719.44678399397526   0.540195 -11719.49343537394270        
   1     0.00001247844550 -11719.49967351474334   0.109736 -11719.50060405986551        
   2     0.00000543930828 -11719.50074389541987   0.019336 -11719.50077505033369        
   3     0.00000239962515 -11719.50077936844900   0.003826 -11719.50078056827806        
   4     0.00000106516714 -11719.50078077544458  <-- CG                                 

=================== Finished the calculation in solvent ========================
= Adjusting the following parameters: 
= read_denskern: F
= read_tightbox_ngwfs: F
= maxit_pen: 0 (restored to user-specified value)
= restart read filename prefix: ""
= restart write filename prefix: ""
================================================================================

================================================================================
IS: Calculation in solvent completed (NGWFs converged).      

Individual components of total energy in solvent:     hartree           kcal/mol
- Usual non-electrostatic DFT terms:    -12956.57065456621058    -8130370.660719
- Electrostatic fixed charge energy:      1236.42078828680860      775865.741746
- Apolar cavitation energy:                  2.30929646520205        1449.105379
- Apolar dispersion-repulsion energy:       -1.66021096124538       -1041.798085
 -------------------------------------------------------------------------------
- Total energy in solvent:              -11719.50078077544458    -7354097.611679

Components of total energy in solvent:                hartree           kcal/mol
- Usual non-electrostatic DFT terms:    -12956.57065456621058    -8130370.660719
- Electrostatic energy:                   1236.42078828680860      775865.741746
- Apolar energy terms:                       0.64908550395667         407.307294
 -------------------------------------------------------------------------------
- Total energy in solvent:              -11719.50078077544458    -7354097.611679

Calculation of free energy of solvation:              hartree           kcal/mol
- Total energy in solvent:         (+)  -11719.50078077544458    -7354097.611679
- Total energy in vacuum:          (-)  -11715.42218191921711    -7351538.252311
 -------------------------------------------------------------------------------
- Total free energy of solvation:           -4.07859885622747       -2559.359368

Components of polar term in f.e. of solvation:        hartree           kcal/mol
- Electrostatic:                            -4.94339631946673       -3102.027957
- Change in nonelectrostatic DFT terms:      0.21571195928118         135.361295
 -------------------------------------------------------------------------------
- Polar term in f.e. of solvation:          -4.72768436018555       -2966.666662

Components of free energy of solvation:               hartree           kcal/mol
- Polar term in f.e. of solvation: (+)      -4.72768436018555       -2966.666662
- Apolar (cavitation, dis., rep.): (+)       0.64908550395667         407.307294
 -------------------------------------------------------------------------------
- Total free energy of solvation:           -4.07859885622888       -2559.359368
================================================================================


------------------------------ TIMING INFORMATION ------------------------------
AVERAGE TIME:   76273.607s on     40 node(s)                                    
TOTAL TIME:     76273.608s on     40 node(s)                                    
================= AVERAGE TIMINGS FROM ALL NODES (CUMULATIVE) ==================
|| TAG                                    #calls    cpu time   %total  Gflops ||
|| work_imbalance                       :     1        0.00s   0.000%  ------ ||
|| parallel_prepare_fd_halos_request    :  2187        0.02s   0.000%  ------ ||
|| sparse_set_to_garbage                :   232        0.05s   0.000%  ------ ||
|| parallel_prepare_fd_halos_alloc      :  2187        0.06s   0.000%  ------ ||
|| parallel_prepare_fd_halos_satisfy    :  2187        0.07s   0.000%  ------ ||
|| ngwfs_initialise_from_radial         :     1        0.17s   0.000%  ------ ||
|| basis_extract_function_from_box      :  6056        0.24s   0.000%  ------ ||
|| restart_ngwfs_tightbox_input         :     1        0.84s   0.001%  ------ ||
|| pseudopotentials_nonlocal_mat        :    34        1.60s   0.002%  ------ ||
|| parallel_prepare_fd_halos_comms_imbal:  2187        3.83s   0.005%  ------ ||
|| restart_kernel_read                  :     1        4.52s   0.006%  ------ ||
|| openbc_locps_radial                  :     1        5.45s   0.007%  ------ ||
|| density_init_guess_real              :     1        6.65s   0.009%  ------ ||
|| restart_kernel_write                 :    19       13.59s   0.018%  ------ ||
|| parallel_prepare_fd_halos_clear      :  2187       15.76s   0.021%  ------ ||
|| sparse_init                          :     2       23.14s   0.030%  ------ ||
|| projectors_func_ovlp_box             :    34       26.88s   0.035%  ------ ||
|| parallel_prepare_fd_halos_comms_wait :  2187       28.29s   0.037%  ------ ||
|| projectors_init_fftbox_recip         :   232       30.79s   0.040%  ------ ||
|| function_ops_brappd_ketppd           :    34       33.85s   0.044%  ------ ||
|| palser_mano_kernel_optimise          :     1       47.07s   0.062%  ------ ||
|| parallel_prepare_fd_halos            :  2187       48.04s   0.063%  ------ ||
|| pseudo_make_structure_factor         :     2       62.26s   0.082%  ------ ||
|| ngwf_gradient_coeffs                 :    18       72.38s   0.095%  ------ ||
|| restart_ngwfs_tightbox_output        :    16       78.21s   0.103%  ------ ||
|| sparse_embed_hotelling_invert_embed  :    34      108.34s   0.142%  ------ ||
|| basis_copy_function_to_box           : 187.4k     123.12s   0.161%  ------ ||
|| finite_difference_derivative         :  2187      126.26s   0.166%  ------ ||
|| openbc_locps_on_grid                 :     2      201.14s   0.264%  ------ ||
|| integrals_kinetic                    :    34      206.67s   0.271%  ------ ||
|| projectors_gradient_batch            :   198      236.92s   0.311%  ------ ||
|| sparse_trace                         :  5811      314.67s   0.413%  ------ ||
|| fourier_apply_box_pair               : 52907      349.94s   0.459% 583.519 ||
|| kernel_purify                        :   557      395.04s   0.518%  ------ ||
|| basis_dot_function_with_box          : 21.39M     421.49s   0.553%  ------ ||
|| lnv_gradient_norm                    :   180      658.16s   0.863%  ------ ||
|| kernel_fix                           :   180      695.26s   0.912%  ------ ||
|| hamiltonian_energy_components        :     4      750.44s   0.984%  ------ ||
|| integrals_locpot_mat_els_batch       :  2079     1058.67s   1.388%  ------ ||
|| basis_add_function_to_box            : 57.25M    1073.39s   1.407%  ------ ||
|| ke_density_batch_grad_apply          :  3993     1148.58s   1.506%  ------ ||
|| ke_density_batch_row_sums            :  3993     1493.46s   1.958%  ------ ||
|| density_batch_row_sums               :  3993     1495.17s   1.960%  ------ ||
|| fourier_apply_cell_backward          :  9808     1840.51s   2.413%  78.082 ||
|| density_fftbox_deposit_to_cell       : 59532     2011.37s   2.637%  ------ ||
|| ke_density_fftbox_deposit_to_cell    : 59532     2131.50s   2.795%  ------ ||
|| fourier_apply_cell_forward           :  9806     2164.27s   2.838%  66.388 ||
|| cell_grid_deposit_box_real           : 121.3k    2385.03s   3.127%  ------ ||
|| sparse_product                       :  7401     2427.64s   3.183%  ------ ||
|| ngwf_gradient_build_batch            :   198     2673.87s   3.506%  ------ ||
|| cell_grid_extract_box_real           : 149.8k    2700.57s   3.541%  ------ ||
|| multigrid_prepare_bound_cond         :   364     2943.44s   3.859%  ------ ||
|| ngwf_gradient_batch                  :   198     3018.61s   3.958%  ------ ||
|| ngwf_gradient_lnv                    :    18     3224.26s   4.227%  ------ ||
|| potential_apply_to_ngwf_batch        :  2079     3942.97s   5.170%  ------ ||
|| density_fftbox_interpolate_multiply  : 59532     4036.22s   5.292%  ------ ||
|| integrals_locpot_dbl_grid            :   189     5026.77s   6.590%  ------ ||
|| xc_energy_potential                  :   364     5302.26s   6.952%  ------ ||
|| density_batch_interp_deposit         :  3993     6915.84s   9.067%  ------ ||
|| dl_mg_solver_calls                   :   364     8144.16s  10.678%  ------ ||
|| nlxc_vdw_energy                      :   726     8873.35s  11.634%  ------ ||
|| density_on_dbl_grid                  :   363     8913.11s  11.686%  ------ ||
|| potential_apply_to_fftbox_batch      :  5940    10344.99s  13.563%  ------ ||
|| multigrid_calculate_hartree          :   364    11265.99s  14.770%  ------ ||
|| integrals_div_locpot_grad_functions  :   180    15443.67s  20.248%  ------ ||
|| ke_density_fftbox_interpolate_multipl: 59532    16248.85s  21.303%  ------ ||
|| ke_density_batch_interp_deposit      :  3993    19254.14s  25.244%  ------ ||
|| fourier_apply_box                    : 1.352M   21260.28s  27.874% 812.829 ||
|| ke_density_on_dbl_grid               :   363    22442.12s  29.423%  ------ ||
|| hamiltonian_lhxc_calculate           :   359    47946.85s  62.862%  ------ ||
|| lnv_denskernel_optimise_cg           :    18    68686.79s  90.053%  ------ ||
|| ngwf_cg_optimise                     :     2    75416.10s  98.876%  ------ ||
|| total_time                           :     1    76273.61s 100.000%  ------ ||
================================================================================
Overhead of generating timer report: 
- 0 ms averaging over threads,
- 7 ms ensuring consistency across MPI ranks,
- 2 ms printing in order.

Job completed: 12-02-2020 01:30 (-0000)

