 +---------------------------------------------------------------+
 |                                                               |
 |        ####### #     # ####### ####### ####### ######         |
 |        #     # ##    # #          #    #       #     #        |
 |        #     # # #   # #          #    #       #     #        |
 |        #     # #  #  # #####      #    #####   ######         |
 |        #     # #   # # #          #    #       #              |
 |        #     # #    ## #          #    #       #              |
 |        ####### #     # #######    #    ####### #              |
 |                                                               |
 |        Linear-Scaling Ab Initio Total Energy Program          |
 |                                                               |
 |          Release for academic collaborators of ODG            |
 |                                             Version 5.3.2.6.  |
 |                                                               |
 +---------------------------------------------------------------+
 |                                                               |
 |  Authors:                                                     |
 |  Jacek Dziedzic, Peter D. Haynes, Nicholas D. M. Hine,        |
 |  Arash. A. Mostofi, Mike C. Payne and Chris-Kriton Skylaris   |
 |                                                               |
 |  Contributors:                                                |
 |  J. Aarons, L. Andrinopoulos, P. W. Avraam, R. A. Bell,       |
 |  A. Bhandari, G. A. Bramley, R. J. Charlton, S. J. Clark,     |
 |  R. J. Clements, G. C. Constantinescu, F. Corsetti,           |
 |  N. Corsini, O. Dieguez, S. M. M. Dubois, K. K. B. Duff,      |
 |  J. M. Escartin, A. Greco, H. Helal, Q. O. Hill, L. P. Lee,   |
 |  J.-H. Li, E. B. Linscott, G. Moynihan, D. D. O`Regan,        |
 |  O. K. Okan, M. J. S. Phipps, C. J. Pickard,                  |
 |  J. C. A. Prentice, M. I. J. Probert, L. E. Ratcliff,         |
 |  M. Robinson, A. Ruiz Serrano, J. S. Spencer, E. W. Tait,     |
 |  G. Teobaldi, D. Turban, V. Vitale, K. A. Wilkinson,          |
 |  C. Weber, J. C. Womack, N. Yeung and T. J. Zuehlsdorff       |
 |                                                               |
 |                                   Copyright (c) 2004-2019     |
 |                                                               |
 |  Please cite:                                                 |
 |  "Introducing ONETEP: Linear-scaling density functional       |
 |   simulations on parallel computers".                         |
 |   C.-K. Skylaris, P. D. Haynes, A. A. Mostofi, M. C. Payne.   |
 |   J. Chem. Phys. 122 084119 (2005).                           |
 |                                                               |
 |          in all publications arising from your use of ONETEP. |
 |                                                               |
 +---------------------------------------------------------------+
 |                                                               |
 |   ONETEP is based on developments described in the following  |
 |   publications:                                               |
 |                                                               |
 |  "Nonorthogonal generalized Wannier function pseudopotential  |
 |   plane-wave method".                                         |
 |   C.-K. Skylaris, A. A. Mostofi, P. D. Haynes, O. Dieguez,    |
 |   M. C. Payne.                                                |
 |   Phys. Rev. B 66 035119 (2002).                              |
 |                                                               |
 |  "Preconditioned iterative minimization for linear-scaling    |
 |   electronic structure calculations".                         |
 |   A. A. Mostofi, P. D. Haynes, C.-K. Skylaris, M. C. Payne.   |
 |   J. Chem. Phys. 119(17), pp.8842-8848 (2003).                |
 |                                                               |
 |  "Total-energy calculations on a real space grid with         |
 |   localized functions and a plane-wave basis".                |
 |   A. A. Mostofi, C.-K. Skylaris, P. D. Haynes, M. C. Payne.   |
 |   Comput. Phys. Commun. 147, pp.788-802 (2002).               |
 |                                                               |
 |  "Accurate kinetic energy evaluation in electronic structure  |
 |   calculations with localized functions on real space grids"  |
 |   C.-K. Skylaris, A. A. Mostofi, P. D. Haynes, C. J. Pickard, |
 |   M. C. Payne.                                                |
 |   Comput. Phys. Commun. 140, pp.315-322 (2001).               |
 |                                                               |
 |  "Accurate ionic forces and geometry optimization in linear-  |
 |   scaling density-functional theory with local orbitals"      |
 |   N. D. M. Hine, M. Robinson, P. D. Haynes, C.-K. Skylaris,   |
 |   M. C. Payne, and A. A. Mostofi.                             |
 |   Phys. Rev. B 83 195102 (2011).                              |
 |                                                               |
 +---------------------------------------------------------------+

Job started: 23-02-2020 10:10 (-0000)
 
Reading parameters from file "complex_27841.dat" ...... done

If your calculation crashes here, before "Checking processes and threads..."
is displayed, then your stack size is insufficient.
If so, use "ulimit -s unlimited" at runtime.
You can disable this check with "check_stack_size F".

Checking processes and threads...
   Determining the default number of threads...
      No default threads set at compilation time: defaulting to 1.
      OpenMP library call suggests 4 threads.
      Hybrid MPI-OpenMP compilation detected.
      Number of MPI processes > 1.
      OMP_NUM_THREADS environment variable present and
      its value matches the one obtained from the OpenMP library call.
      Using this value as default.
      Default threads: 4
      Default applies to threads_max and threads_num_fftboxes.
      Settings in the input file override this default.
   ... done

   Running with 40 MPI processes.
   There are 10 MPI processes running on the same node as the root process.
   Each MPI process is using: 
               1 threads for simulation cell FFTs.
               1 threads for parallel FFT box operations.
               4 threads for loops over batched FFT box operations.
               4 threads in other parallel regions.
... done

Basic input checks...... done

Reading geometry and species blocks from file "complex_27841.dat" ...
  <species_atomic_set> block not found: NGWF initialisation set to SOLVE
IS: Dielectric excluded regions:
    - NONE.
    
  Number of PPD points along a3 set to 1.  This is 
  the default value, it may have been provided also in the input file.
... done
 Writing xyz coordinates to file "complex_27841.xyz" ... done


--------------------------------------------------------------------------------
---------------------------------- INPUT FILE ----------------------------------
--------------------------------------------------------------------------------

cutoff_energy       : 800 eV                                                    
xc_functional B97M-V                                                            
task SINGLEPOINT                                                                
write_xyz true                                                                  
output_detail VERBOSE                                                           
ngwf_threshold_orig : 0.000002                                                  
kernel_cutoff       : 1000                                                      
k_zero              : 3.5                                                       
elec_cg_max 0                                                                   
occ_mix 1.0                                                                     
dispersion 0                                                                    
maxit_ngwf_cg 40                                                                
minit_lnv 10                                                                    
maxit_lnv 10                                                                    
write_denskern T                                                                
write_tightbox_ngwfs T                                                          
charge 9                                                                        
is_implicit_solvent T                                                           
is_auto_solvation T                                                             
is_include_apolar T                                                             
is_smeared_ion_rep T                                                            
is_solvent_surf_tension 4.7624E-5 Ha/bohr**2                                    
is_apolar_scaling_factor 0.281075                                               
is_solvation_beta 1.3                                                           
is_density_threshold 0.00035                                                    
is_bulk_permittivity 78.54                                                      
is_dielectric_model fix_initial                                                 
is_smeared_ion_width 0.8                                                        
mg_defco_fd_order 8                                                             
is_bc_coarseness 10                                                             
is_bc_surface_coarseness 1                                                      
fine_grid_scale 2.0                                                             
%block species                                                                  
N   N   7 4 8.0                                                                 
H   H   1 1 8.0                                                                 
C   C   6 4 8.0                                                                 
S   S  16 9 8.0                                                                 
O   O   8 4 8.0                                                                 
F   F   9 9 8.0                                                                 
%endblock species                                                               
%block species_pot                                                              
N   N_00.recpot                                                                 
H   H_04.recpot                                                                 
C   C_01.recpot                                                                 
S   S_00.recpot                                                                 
O   O_02.recpot                                                                 
F   F_00.recpot                                                                 
%endblock species_pot                                                           
%block lattice_cart                                                             
139.898   0.000   0.000                                                         
0.000 144.87   0.000                                                            
0.000   0.000   168.12                                                          
%endblock lattice_cart                                                          
%block positions_abs                                                            
     Hash =  -000003013306991468993536
%endblock positions_abs                                                         

--------------------------------------------------------------------------------
-------------------------------- END INPUT FILE --------------------------------
--------------------------------------------------------------------------------


 
 ESDF WARNING(1): "kernelcutoff" (esdf_physical) has no units. Assume "bohr".
 ESDF WARNING(2): "kzero" (esdf_physical) has no units. Assume "1/bohr".
 ESDF WARNING(3
 ): "issmearedionwidth" (esdf_physical) has no units. Assume "bohr".
<<<<<<<<<<<<<<<<<<<<<<<<<<<<<<<<< Full system >>>>>>>>>>>>>>>>>>>>>>>>>>>>>>>>>>
<<<<<<<<<<<<<<<<<<<<<<<<< Pseudopotential information >>>>>>>>>>>>>>>>>>>>>>>>>>
File: N_00.recpot [ 2001 points up to Gmax=  52.9 (1/bohr)]
  Atomic number:  7;  ionic charge:  5.000000
    Shell 1: l = 0; rc = 1.48 bohr
File: H_04.recpot [ 2001 points up to Gmax=  52.9 (1/bohr)]
  Atomic number:  1;  ionic charge:  1.000000
    Local potential
File: C_01.recpot [ 2001 points up to Gmax=  52.9 (1/bohr)]
  Atomic number:  6;  ionic charge:  4.000000
    Shell 1: l = 0; rc = 1.48 bohr
File: S_00.recpot [ 2001 points up to Gmax=  52.9 (1/bohr)]
  Atomic number: 16;  ionic charge:  6.000000
    Shell 1: l = 0; rc = 1.90 bohr
    Shell 2: l = 2; rc = 1.84 bohr
File: O_02.recpot [ 2001 points up to Gmax=  52.9 (1/bohr)]
  Atomic number:  8;  ionic charge:  6.000000
    Shell 1: l = 0; rc = 1.31 bohr
File: F_00.recpot [ 2001 points up to Gmax=  52.9 (1/bohr)]
  Atomic number:  9;  ionic charge:  7.000000
    Shell 1: l = 0; rc = 1.60 bohr
<<<<<<<<<<<<<<<<<<<<<<<<<<<<<<<<<<<<<<<<>>>>>>>>>>>>>>>>>>>>>>>>>>>>>>>>>>>>>>>>

-------------------------- Atom counting information ---------------------------
Symbol    Natoms    Nngwfs    Nprojs
  N        237       948       237
  H       1317      1317         0
  C        816      3264       816
  S          6        54        36
  O        239       956       239
  F          1         9         1
.......   ......    ......    ......
Totals:   2616      6548      1329
--------------------------------------------------------------------------------

=============================== PSINC grid sizes ===============================
                      Simulation cell:  275 x 286 x 336
                              FFT-box:   99 x  99 x  99
                                  PPD:    5 x  11 x   1
Grid space d1=  0.508720000000a0 (KE cutoff=  29.35259Eh = 798.72452eV)
Grid space d2=  0.506538461538a0 (KE cutoff=  29.60596Eh = 805.61916eV)
Grid space d3=  0.500357142857a0 (KE cutoff=  30.34197Eh = 825.64705eV)
================================================================================

********************* Fourier parallelisation information **********************
       Coarse grid (whole simulation cell) dimensions:    275   286   336
          Real-space ('12') slabs/node (min max mean):      8     9     8
         Recip-space ('23') slabs/node (min max mean):      3     4     3
********************************************************************************

********************* Fourier parallelisation information **********************
       Double grid (whole simulation cell) dimensions:    550   572   672
          Real-space ('12') slabs/node (min max mean):     16    17    16
         Recip-space ('23') slabs/node (min max mean):      6     7     6
********************************************************************************
ONETEP fine grid is 550 x 572 x 672 gridpoints, 139.8980 x 144.8700 x 168.1200 bohr.
FD multigrid is     545 x 569 x 665 gridpoints, 138.6262 x 144.1102 x 166.3688 bohr.


Calculating local pseudopotential in open BC on a radial grid ...
Discrepancy between calculated realspace psloc and -Z/x on [5a0,262.342a0]:
max |rel. diff| # avg |rel. diff| #  avg rel. diff #  f # pseudopotential file
 0.000258413739    0.000003708905   0.000000070960   56  'N_00.recpot'
 0.000398954828    0.000016185045  -0.000000074508   56  'H_04.recpot'
 0.000375346405    0.000017198923   0.000000144535   56  'C_01.recpot'
 0.000466850533    0.000020125278   0.000000461745   56  'S_00.recpot'
 0.000671508953    0.000026045986   0.000000155458   56  'O_02.recpot'
 0.002873965647    0.000134299806   0.000000884984   56  'F_00.recpot'
... done
 WARNING: meta-GGA functionality under development.
          Using this functional is experimental.
          Minimum tau threshold, xc_min_tau =   1.00000000E-12
 WARNING: Using alternative XC functional PBE for 
          radial densities (xc_radial).

Atom SCF Calculation for N  : Z (AE atom) =   7 : Z (PS atom) =   5
Config String:
Orbitals (num,occ):  2     2.00 3.00
Orbitals   (num,l):  2        0    1
Real-space Grid (nr,dr,rmax): 1203    0.0066555740    8.0000000000
Spherical Bessel Basis (nsws,lmax,cutoff):   47    1  176.3951722778
Confining potential (l,width,scale):  0    3.0000000000  100.0000000000
Confining potential (l,width,scale):  1    3.0000000000  100.0000000000
  1         -4.7312375307   -3.4155304497    7.0523828109   -1.9351020946
  2         -9.7309464766   -2.0532547791    8.2966052865   -2.2494486027
  3         -9.6627394379   -2.1124926340    8.2327997121   -2.2369778124
  4         -9.6814993499   -2.1215521045    8.2229805960   -2.2365178421
  5         -9.6843326483   -2.1250939529    8.2191374534   -2.2362718126
  6         -9.6859628709   -2.1267894855    8.2172963573   -2.2362066344
  7         -9.6867347035   -2.1276425665    8.2163697352   -2.2361903369
  8         -9.6870802100   -2.1280764625    8.2158983890   -2.2361891460
  9         -9.6872290423   -2.1282977424    8.2156580222   -2.2361920435
 10         -9.6872901988   -2.1284107021    8.2155353368   -2.2361953393
 11         -9.6873135296   -2.1284684031    8.2154726809   -2.2361979819
 12         -9.6873212476   -2.1284978948    8.2154406648   -2.2361998431
 13         -9.6873229586   -2.1285129774    8.2154242957   -2.2362010676
 14         -9.6873226456   -2.1285206957    8.2154159216   -2.2362018403
 15         -9.6873218534   -2.1285246479    8.2154116349   -2.2362023142
 16         -9.6873212599   -2.1285262679    8.2154098784   -2.2362025420
 17         -9.6873207834   -2.1285272564    8.2154088068   -2.2362026955
 18         -9.6873204210   -2.1285278597    8.2154081529   -2.2362027982
 19         -9.6873201550   -2.1285282280    8.2154077538   -2.2362028667
 20         -9.6873199645   -2.1285284529    8.2154075102   -2.2362029121
 21         -9.6873198305   -2.1285285903    8.2154073614   -2.2362029421
 22         -9.6873197377   -2.1285286742    8.2154072705   -2.2362029618
Atom SCF converged after  22 iterations to a total energy of     -9.68731974

Atom SCF Calculation for H  : Z (AE atom) =   1 : Z (PS atom) =   1
Config String:
Orbitals (num,occ):  1     1.00
Orbitals   (num,l):  1        0
Real-space Grid (nr,dr,rmax): 1203    0.0066555740    8.0000000000
Spherical Bessel Basis (nsws,lmax,cutoff):   47    0  176.3951722778
Confining potential (l,width,scale):  0    3.0000000000  100.0000000000
  1         -0.3194257691   -0.2393854593    0.2820953124   -0.2424203209
  2         -0.3951823392   -0.2377116493    0.2886404059   -0.2475147891
  3         -0.4317044583   -0.2352244387    0.2921333887   -0.2514046172
  4         -0.4470703708   -0.2341892222    0.2934391879   -0.2531009782
  5         -0.4532132900   -0.2338556667    0.2938388426   -0.2537313520
  6         -0.4556579251   -0.2337612552    0.2939448584   -0.2539550462
  7         -0.4566418315   -0.2337377355    0.2939680120   -0.2540342273
  8         -0.4570437922   -0.2337331116    0.2939708287   -0.2540627372
  9         -0.4572102946   -0.2337328328    0.2939698291   -0.2540732650
 10         -0.4572800424   -0.2337332404    0.2939687193   -0.2540772588
 11         -0.4573095100   -0.2337335791    0.2939680317   -0.2540788122
 12         -0.4573220379   -0.2337337762    0.2939676699   -0.2540794294
 13         -0.4573273880   -0.2337338775    0.2939674931   -0.2540796787
 14         -0.4573296803   -0.2337339266    0.2939674099   -0.2540797808
 15         -0.4573306647   -0.2337339495    0.2939673718   -0.2540798230
 16         -0.4573310882   -0.2337339601    0.2939673545   -0.2540798406
 17         -0.4573312706   -0.2337339649    0.2939673467   -0.2540798479
 18         -0.4573313493   -0.2337339670    0.2939673433   -0.2540798510
Atom SCF converged after  18 iterations to a total energy of     -0.45733135

Atom SCF Calculation for C  : Z (AE atom) =   6 : Z (PS atom) =   4
Config String:
Orbitals (num,occ):  2     2.00 2.00
Orbitals   (num,l):  2        0    1
Real-space Grid (nr,dr,rmax): 1203    0.0066555740    8.0000000000
Spherical Bessel Basis (nsws,lmax,cutoff):   47    1  176.3951722778
Confining potential (l,width,scale):  0    3.0000000000  100.0000000000
Confining potential (l,width,scale):  1    3.0000000000  100.0000000000
  1         -5.2976922011   -1.3069684169    4.5135249990   -1.4493313817
  2         -5.3721716256   -1.3429755895    4.4750154450   -1.4361613026
  3         -5.3809959565   -1.3617365618    4.4541655428   -1.4305930207
  4         -5.3918938866   -1.3667928461    4.4484735100   -1.4294652294
  5         -5.3956096428   -1.3688539142    4.4461376126   -1.4290734646
  6         -5.3968271862   -1.3696852393    4.4451910874   -1.4289366866
  7         -5.3972028401   -1.3700178062    4.4448112275   -1.4288900460
  8         -5.3973067903   -1.3701500158    4.4446598370   -1.4288749220
  9         -5.3973286940   -1.3702023868    4.4445997329   -1.4288704293
 10         -5.3973289850   -1.3702230869    4.4445759233   -1.4288693188
 11         -5.3973254264   -1.3702312560    4.4445665049   -1.4288691775
 12         -5.3973224003   -1.3702344755    4.4445627836   -1.4288692549
 13         -5.3973208708   -1.3702354890    4.4445616088   -1.4288693270
 14         -5.3973198783   -1.3702360102    4.4445610034   -1.4288693814
 15         -5.3973192535   -1.3702362780    4.4445606917   -1.4288694190
 16         -5.3973188684   -1.3702364155    4.4445605313   -1.4288694437
 17         -5.3973186349   -1.3702364860    4.4445604489   -1.4288694595
 18         -5.3973184951   -1.3702365221    4.4445604065   -1.4288694693
 19         -5.3973184122   -1.3702365405    4.4445603848   -1.4288694753
Atom SCF converged after  19 iterations to a total energy of     -5.39731841

Atom SCF Calculation for S  : Z (AE atom) =  16 : Z (PS atom) =   6
Config String:
Orbitals (num,occ):  3     2.00 4.00 0.00
Orbitals   (num,l):  3        0    1    2
Real-space Grid (nr,dr,rmax): 1203    0.0066555740    8.0000000000
Spherical Bessel Basis (nsws,lmax,cutoff):   47    2  176.3951722778
Confining potential (l,width,scale):  0    3.0000000000  100.0000000000
Confining potential (l,width,scale):  1    3.0000000000  100.0000000000
Confining potential (l,width,scale):  2    3.0000000000  100.0000000000
  1        -12.4735062396   -1.0328741412   10.1554312477   -2.4512393157
  2         -9.9458301913   -2.4607392455    8.3041325857   -2.0306994528
  3        -10.1450417646   -2.2931184565    8.4831893826   -2.0812538287
  4        -10.1528335592   -2.2733105793    8.5050388867   -2.0896035179
  5        -10.1571940363   -2.2633716629    8.5160794258   -2.0939370707
  6        -10.1594380571   -2.2584938667    8.5215163935   -2.0961289008
  7        -10.1605856507   -2.2561081821    8.5241804044   -2.0972291378
  8        -10.1611799191   -2.2549395235    8.5254868240   -2.0977806248
  9        -10.1614918752   -2.2543658586    8.5261285885   -2.0980571586
 10        -10.1616572884   -2.2540839121    8.5264441898   -2.0981959233
 11        -10.1617455602   -2.2539453058    8.5265994231   -2.0982656006
 12        -10.1617928447   -2.2538772062    8.5266757320   -2.0983006047
 13        -10.1618182292   -2.2538437891    8.5267131983   -2.0983181961
 14        -10.1618318741   -2.2538274201    8.5267315620   -2.0983270391
 15        -10.1618392144   -2.2538194197    8.5267405433   -2.0983314852
 16        -10.1618431651   -2.2538155200    8.5267449245   -2.0983337210
 17        -10.1618452923   -2.2538136252    8.5267470551   -2.0983348455
 18        -10.1618464380   -2.2538127080    8.5267480875   -2.0983354110
 19        -10.1618470552   -2.2538122659    8.5267485856   -2.0983356955
 20        -10.1618473878   -2.2538120540    8.5267488248   -2.0983358386
 21        -10.1618475670   -2.2538119530    8.5267489389   -2.0983359106
 22        -10.1618476637   -2.2538119053    8.5267489929   -2.0983359468
Atom SCF converged after  22 iterations to a total energy of    -10.16184766

Atom SCF Calculation for O  : Z (AE atom) =   8 : Z (PS atom) =   6
Config String:
Orbitals (num,occ):  2     2.00 4.00
Orbitals   (num,l):  2        0    1
Real-space Grid (nr,dr,rmax): 1203    0.0066555740    8.0000000000
Spherical Bessel Basis (nsws,lmax,cutoff):   47    1  176.3951722778
Confining potential (l,width,scale):  0    3.0000000000  100.0000000000
Confining potential (l,width,scale):  1    3.0000000000  100.0000000000
  1         -1.8735052164   -7.5539365035   10.1554312477   -2.4512393157
  2        -16.0318313751   -3.1285771268   13.6395848164   -3.2358799643
  3        -15.9524020423   -3.0762819706   13.6967272503   -3.2536856837
  4        -15.8521515939   -3.0781493909   13.6951909330   -3.2561700440
  5        -15.8357139793   -3.0748501933   13.6988803334   -3.2580493133
  6        -15.8246052853   -3.0740779781   13.6997881576   -3.2588327446
  7        -15.8189019501   -3.0737449687   13.7001869911   -3.2592378801
  8        -15.8159785510   -3.0736026016   13.7003615168   -3.2594475790
  9        -15.8144776168   -3.0735437994   13.7004360379   -3.2595560735
 10        -15.8137058024   -3.0735207882   13.7004667348   -3.2596122456
 11        -15.8133083127   -3.0735125946   13.7004786868   -3.2596413656
 12        -15.8131032938   -3.0735102195   13.7004828997   -3.2596564858
 13        -15.8129973902   -3.0735099286   13.7004840891   -3.2596643505
 14        -15.8129426040   -3.0735102506   13.7004842061   -3.2596684489
 15        -15.8129142203   -3.0735106556   13.7004840157   -3.2596705887
 16        -15.8128994940   -3.0735109855   13.7004837906   -3.2596717080
 17        -15.8128918425   -3.0735112169   13.7004836103   -3.2596722946
 18        -15.8128878614   -3.0735113674   13.7004834848   -3.2596726026
 19        -15.8128857871   -3.0735114608   13.7004834035   -3.2596727646
 20        -15.8128847048   -3.0735115170   13.7004833533   -3.2596728500
 21        -15.8128841394   -3.0735115501   13.7004833231   -3.2596728951
 22        -15.8128838436   -3.0735115693   13.7004833054   -3.2596729190
 23        -15.8128836887   -3.0735115802   13.7004832951   -3.2596729316
 24        -15.8128836074   -3.0735115864   13.7004832893   -3.2596729383
Atom SCF converged after  24 iterations to a total energy of    -15.81288361

Atom SCF Calculation for F  : Z (AE atom) =   9 : Z (PS atom) =   7
Config String:
Orbitals (num,occ):  5     2.00 5.00 0.00 0.00 0.00
Orbitals   (num,l):  5        0    1    0    1    2
Real-space Grid (nr,dr,rmax): 1203    0.0066555740    8.0000000000
Spherical Bessel Basis (nsws,lmax,cutoff):   47    2  176.3951722778
Confining potential (l,width,scale):  0    3.0000000000  100.0000000000
Confining potential (l,width,scale):  1    3.0000000000  100.0000000000
Confining potential (l,width,scale):  2    3.0000000000  100.0000000000
  1          2.7613408675  -14.5815130354   13.8226703094   -2.9941905181
  2        -23.6468980113   -4.9263326541   20.5563421412   -4.3754293297
  3        -24.5333043594   -4.3845963970   21.1176052958   -4.4841731563
  4        -24.3589864791   -4.3106783108   21.1950887716   -4.4997202795
  5        -24.2648391338   -4.2783243831   21.2295118026   -4.5072738146
  6        -24.2274338603   -4.2663478973   21.2423649225   -4.5102591768
  7        -24.2052315491   -4.2595041622   21.2497430410   -4.5120310941
  8        -24.1920610535   -4.2555995140   21.2539669715   -4.5130761189
  9        -24.1842594614   -4.2533726648   21.2563826077   -4.5136908004
 10        -24.1796430262   -4.2521035456   21.2577627107   -4.5140519045
 11        -24.1769128010   -4.2513811698   21.2585501121   -4.5142639028
 12        -24.1752983031   -4.2509707627   21.2589985394   -4.5143883165
 13        -24.1743434247   -4.2507381589   21.2592533437   -4.5144613128
 14        -24.1737784708   -4.2506067164   21.2593977374   -4.5145041342
 15        -24.1734440540   -4.2505326993   21.2594793047   -4.5145292513
 16        -24.1732459871   -4.2504911905   21.2595252124   -4.5145439823
 17        -24.1731286021   -4.2504680245   21.2595509400   -4.5145526212
 18        -24.1730589855   -4.2504551689   21.2595652865   -4.5145576869
 19        -24.1730176682   -4.2504480829   21.2595732399   -4.5145606573
 20        -24.1729931274   -4.2504442088   21.2595776183   -4.5145623987
 21        -24.1729785394   -4.2504421116   21.2595800086   -4.5145634196
 22        -24.1729698603   -4.2504409903   21.2595813001   -4.5145640181
 23        -24.1729646922   -4.2504404002   21.2595819890   -4.5145643688
 24        -24.1729616119   -4.2504400960   21.2595823505   -4.5145645744
 25        -24.1729597743   -4.2504399438   21.2595825360   -4.5145646948
 26        -24.1729586769   -4.2504398706   21.2595826284   -4.5145647654
 27        -24.1729580209   -4.2504398378   21.2595826723   -4.5145648067
 28        -24.1729576283   -4.2504398249   21.2595826917   -4.5145648309
 29        -24.1729573931   -4.2504398211   21.2595826991   -4.5145648451
 30        -24.1729572521   -4.2504398214   21.2595827010   -4.5145648534
 31        -24.1729571674   -4.2504398230   21.2595827006   -4.5145648582
Atom SCF converged after  31 iterations to a total energy of    -24.17295717
 
WARNING in ngwfs_initialise: Setting radial NGWF functions for species  6 (F):
Last NGWF on atom has m = -2 and does not complete set of m-values for l = 2.
This breaks symmetry and may cause unstable NGWF optimisation and poor 
convergence. Suggest increasing number of NGWFs per atom from   9 to  13.
NB: All NGWF radial function angular momenta:     0    1    0    1    2
 

========================== Calculation in vacuum ==============================
= Adjusting the following parameters: 
= is_implicit_solvent: F
= is_include_apolar: F
= write_denskern: T
= write_tightbox_ngwfs: T
= restart read filename prefix: ""
= restart write filename prefix: "vacuum_"
===============================================================================

Determining parallel strategy ...
... using space-filling curve
... NGWF load balancing: max    164;  min    163;  average    164
... Projector load balancing: max     36;  min     31;  average     33
... done
Calculating direct Ion-Ion energy ...
Ion-Ion Energy        :    828179.32638820121065
Basis initialisation ...... NGWF spheres initialised
... Projector spheres initialised
... NGWF tight boxes initialised
... Tight-boxes gathered
... NGWF basis size (local,global):    1276288  51025748
... Nonlocal pseudopotential projector initialisation
... done

========================== Sparse matrix information ===========================
                        Overlap matrix filling:   6.68%
                        Density kernel filling: 100.00%
              NGWF-Proj overlap matrix filling:   1.76%
                    Hamiltonian matrix filling:   7.55%
                  NGWF diagonal matrix filling:   0.05%
                             KS matrix filling: 100.00% 
                           KSKS matrix filling: 100.00% 
================================================================================

Sparse matrix initialisation ... done

Generating smeared ion density ... done
Smeared ion self correction:     -14544.936866
Smeared ion non-self correction: -828131.359347
NGWF initialisation ...... done
============ Calculation of NGWF S^-1 using Hotelling algorithm ================ 
         Iteration  |  Frobenius norm and Maximum abs value    (of I-S*S_n^-1)   
               1       0.78775751E+02     0.98308948E+00
               2       0.76944679E+02     0.96660223E+00
               3       0.73970024E+02     0.93480711E+00
               4       0.69724661E+02     0.87542687E+00
               5       0.64418327E+02     0.77253588E+00
               6       0.58437739E+02     0.70730255E+00
               7       0.52403030E+02     0.67069670E+00
               8       0.46824497E+02     0.64377507E+00
               9       0.40772405E+02     0.60311264E+00
              10       0.32550500E+02     0.53413418E+00
              11       0.21995842E+02     0.43319660E+00
              12       0.11337820E+02     0.29496897E+00
              13       0.37961645E+01     0.14268195E+00
              14       0.62003904E+00     0.44763211E-01
              15       0.33171895E-01     0.54858430E-02
              16       0.30371491E-03     0.85562381E-04
              17       0.62049875E-07     0.21011357E-07
              18       0.99436173E-13     0.62172489E-14
================================================================================
Calculating local pseudopotential in open BC on the fine real space grid ...
... done

MG BCs: +ve charge blocks (gridpoints):     20578 (   16122736).
MG BCs: -ve charge blocks (gridpoints):      8009 (    1079916).
MG BCs:     Elided blocks (gridpoints):    189467 (  189017173).
MG BCs: Computational effort saved:  99.9861%.
MG BCs: Charge after coarse-graining:           -9.0002316.
MG DL_MG: Calling solver with defect correction order = 8
MG DL_MG: Solver finished
MG Hartree energy from (\int phi*rho dr):              1471.226297
MG Hartree energy from (\int eps (grad phi)^2 dr):     1470.616812
MG Discrepancy due to finite box and discretization:     -0.609485 (  -0.04143%)
MG Correction to account for finite box:                  0.454432
MG Remaining discrepancy, due to discretization:         -0.155053 (  -0.01054%)
 WARNING: xc_energy_potential using alternative initial XC functional PBE.
Up spin density kernel initialisation ... 
======= Optimisation of K by Palser-Manolopoulos canonical purification ======== 
         Iteration  |  Band structure energy |    c_n   
               1       -2557.24245302935196    0.5295832
               2       -2732.98321651477227    0.5188668
               3       -2917.01710021141071    0.5150838
               4       -3075.54106813676026    0.5260360
               5       -3177.43205236115682    0.5587240
               6       -3222.16410755691140    0.6047379
               7       -3237.38750966494626    0.6211141
               8       -3243.72868909576619    0.6199922
               9       -3246.80600708028487    0.6330919
              10       -3248.09155328822544    0.6511377
              11       -3248.60439961474094    0.6548759
              12       -3248.83401524162218    0.6314346
              13       -3248.95163417018466    0.5727518
              14       -3249.01501696512014    0.4866851
              15       -3249.03902793451607    0.3957415
              16       -3249.04091633837925    0.3685584
              17       -3249.04160201539707    0.3938026
              18       -3249.04199775872075    0.4418879
              19       -3249.04231848193831    0.4817379
              20       -3249.04256739141510    0.4981514
              21       -3249.04276110360888    0.4999810
              22       -3249.04287055346867    0.5000000
              23       -3249.04289440283628    0.5000000
              24       -3249.04289527209494    0.5000029
              25       -3249.04289527318315    0.5000029
Termination criterion satisfied: band energy change below threshold.
Final occupancy bounds: [    0.00000000000000:    1.00000000000000]
Closest occupancy to 0.5:     1.00000000000000
================================================================================
... done

Writing density kernel to file "complex_27841.vacuum_dkn" ... done

>>> Optimising kernel for current NGWFs:
   Initial electron number for spin 1:    7234.00000000
     Final electron number for spin 1:    7234.00000000

=================== Penalty functional idempotency correction ==================
 RMS occupancy error at iteration   1:  0.000000 (step -0.5000 Ne1=   7234.0000)
            Final RMS occupancy error   :  0.000000 (Ne1=   7234.0000)
               Final occupancy bounds   : [ -0.0000,  1.0000]
================================================================================

................................................................................
<<<<<<<<<<<<<< LNV (Original version) density kernel optimisation >>>>>>>>>>>>>>
~~~~~~~~~~~~~~~~~~~~~~~~~~~~~~~~~~~~~~~~~~~~~~~~~~~~~~~~~~~~~~~~~~~~~~~~~~~~~~~~
   iter  |      energy (Eh)       | rms gradient |  commutator  |   dE (Eh)
MG BCs: +ve charge blocks (gridpoints):     31409 (   17325700).
MG BCs: -ve charge blocks (gridpoints):      8360 (    1113252).
MG BCs:     Elided blocks (gridpoints):    178626 (  187780873).
MG BCs: Computational effort saved:  99.9807%.
MG BCs: Charge after coarse-graining:           -9.0009851.
MG DL_MG: Calling solver with defect correction order = 8
MG DL_MG: Solver finished
MG Hartree energy from (\int phi*rho dr):              1425.630406
MG Hartree energy from (\int eps (grad phi)^2 dr):     1424.973524
MG Discrepancy due to finite box and discretization:     -0.656882 (  -0.04608%)
MG Correction to account for finite box:                  0.458750
MG Remaining discrepancy, due to discretization:         -0.198131 (  -0.01390%)
      ideal mu1:      -0.747003049711
             Q0:  -11542.894918990321
             G0:    -125.111028398342
   RMS gradient:       0.001708201608
MG BCs: +ve charge blocks (gridpoints):     31378 (   17405311).
MG BCs: -ve charge blocks (gridpoints):      8255 (    1090504).
MG BCs:     Elided blocks (gridpoints):    178654 (  187724010).
MG BCs: Computational effort saved:  99.9808%.
MG BCs: Charge after coarse-graining:           -9.0010076.
MG DL_MG: Calling solver with defect correction order = 8
MG DL_MG: Solver finished
MG Hartree energy from (\int phi*rho dr):              1448.061593
MG Hartree energy from (\int eps (grad phi)^2 dr):     1447.420539
MG Discrepancy due to finite box and discretization:     -0.641053 (  -0.04427%)
MG Correction to account for finite box:                  0.458450
MG Remaining discrepancy, due to discretization:         -0.182604 (  -0.01261%)
     Trial step:       0.500000000000
             Q1:  -11554.964381144266
 Quadratic coef:      50.486052045228
 Linear coef   :     -62.555514199171
           Qmin:  -11562.272510415063
Quadratic minimum step length (  0.309766319929) accepted
    Initial Ne1:    7234.00000000
      Final Ne1:    7234.00000000

=================== Penalty functional idempotency correction ==================
 RMS occupancy error at iteration   1:  0.003166 (step -0.4892 Ne1=   7234.0000)
 RMS occupancy error at iteration   2:  0.000023 (step -0.5000 Ne1=   7234.0000)
            Final RMS occupancy error   :  0.000000 (Ne1=   7234.0000)
               Final occupancy bounds   : [  0.0000,  1.0000]
================================================================================

    1        -1.154289491899E+04     1.7082E-03     1.5462E-03
MG BCs: +ve charge blocks (gridpoints):     31382 (   17376599).
MG BCs: -ve charge blocks (gridpoints):      8309 (    1099458).
MG BCs:     Elided blocks (gridpoints):    178652 (  187743768).
MG BCs: Computational effort saved:  99.9808%.
MG BCs: Charge after coarse-graining:           -9.0009991.
MG DL_MG: Calling solver with defect correction order = 8
MG DL_MG: Solver finished
MG Hartree energy from (\int phi*rho dr):              1432.979503
MG Hartree energy from (\int eps (grad phi)^2 dr):     1432.333319
MG Discrepancy due to finite box and discretization:     -0.646184 (  -0.04509%)
MG Correction to account for finite box:                  0.458410
MG Remaining discrepancy, due to discretization:         -0.187773 (  -0.01310%)
      ideal mu1:      -0.787480000190
             Q0:  -11562.647761221859
             G0:     -10.964104552804
   RMS gradient:       0.000502061573
MG BCs: +ve charge blocks (gridpoints):     31380 (   17393568).
MG BCs: -ve charge blocks (gridpoints):      8283 (    1092630).
MG BCs:     Elided blocks (gridpoints):    178654 (  187733627).
MG BCs: Computational effort saved:  99.9808%.
MG BCs: Charge after coarse-graining:           -9.0010044.
MG DL_MG: Calling solver with defect correction order = 8
MG DL_MG: Solver finished
MG Hartree energy from (\int phi*rho dr):              1438.590062
MG Hartree energy from (\int eps (grad phi)^2 dr):     1437.947331
MG Discrepancy due to finite box and discretization:     -0.642731 (  -0.04468%)
MG Correction to account for finite box:                  0.458091
MG Remaining discrepancy, due to discretization:         -0.184640 (  -0.01283%)
     Trial step:       0.393551978733
             Q1:  -11565.168069985695
 Quadratic coef:       1.794636277953
 Linear coef   :      -4.314945041789
           Qmin:  -11565.241427546114
Quadratic minimum step length (  0.473119589797) accepted
    Initial Ne1:    7233.99992131
      Final Ne1:    7234.00000000

=================== Penalty functional idempotency correction ==================
 RMS occupancy error at iteration   1:  0.001490 (step -0.4946 Ne1=   7234.0000)
 RMS occupancy error at iteration   2:  0.000007 (step -0.5000 Ne1=   7234.0000)
            Final RMS occupancy error   :  0.000000 (Ne1=   7234.0000)
               Final occupancy bounds   : [  0.0000,  1.0000]
================================================================================

    2        -1.156264776122E+04     5.0206E-04     4.5445E-04    -1.9753E+01
MG BCs: +ve charge blocks (gridpoints):     31385 (   17396976).
MG BCs: -ve charge blocks (gridpoints):      8277 (    1091307).
MG BCs:     Elided blocks (gridpoints):    178649 (  187731542).
MG BCs: Computational effort saved:  99.9808%.
MG BCs: Charge after coarse-graining:           -9.0010054.
MG DL_MG: Calling solver with defect correction order = 8
MG DL_MG: Solver finished
MG Hartree energy from (\int phi*rho dr):              1439.749186
MG Hartree energy from (\int eps (grad phi)^2 dr):     1439.107101
MG Discrepancy due to finite box and discretization:     -0.642085 (  -0.04460%)
MG Correction to account for finite box:                  0.458040
MG Remaining discrepancy, due to discretization:         -0.184045 (  -0.01278%)
      ideal mu1:      -0.808169449844
             Q0:  -11565.274256479810
             G0:      -1.830370755266
   RMS gradient:       0.000205226976
MG BCs: +ve charge blocks (gridpoints):     31384 (   17398137).
MG BCs: -ve charge blocks (gridpoints):      8276 (    1091226).
MG BCs:     Elided blocks (gridpoints):    178650 (  187730462).
MG BCs: Computational effort saved:  99.9808%.
MG BCs: Charge after coarse-graining:           -9.0010055.
MG DL_MG: Calling solver with defect correction order = 8
MG DL_MG: Solver finished
MG Hartree energy from (\int phi*rho dr):              1439.121538
MG Hartree energy from (\int eps (grad phi)^2 dr):     1438.479814
MG Discrepancy due to finite box and discretization:     -0.641724 (  -0.04459%)
MG Correction to account for finite box:                  0.457899
MG Remaining discrepancy, due to discretization:         -0.183826 (  -0.01277%)
     Trial step:       0.431505678690
             Q1:  -11565.743191144196
 Quadratic coef:       0.320880710618
 Linear coef   :      -0.789815375005
           Qmin:  -11565.760269120919
Quadratic minimum step length (  0.531053765704) accepted
    Initial Ne1:    7233.99997464
      Final Ne1:    7234.00000000

=================== Penalty functional idempotency correction ==================
 RMS occupancy error at iteration   1:  0.000570 (step -0.4978 Ne1=   7234.0000)
 RMS occupancy error at iteration   2:  0.000001 (step -0.5000 Ne1=   7234.0000)
            Final RMS occupancy error   :  0.000000 (Ne1=   7234.0000)
               Final occupancy bounds   : [  0.0000,  1.0000]
================================================================================

    3        -1.156527425648E+04     2.0523E-04     1.8577E-04    -2.6265E+00
MG BCs: +ve charge blocks (gridpoints):     31385 (   17398342).
MG BCs: -ve charge blocks (gridpoints):      8275 (    1091253).
MG BCs:     Elided blocks (gridpoints):    178649 (  187730230).
MG BCs: Computational effort saved:  99.9808%.
MG BCs: Charge after coarse-graining:           -9.0010056.
MG DL_MG: Calling solver with defect correction order = 8
MG DL_MG: Solver finished
MG Hartree energy from (\int phi*rho dr):              1438.981948
MG Hartree energy from (\int eps (grad phi)^2 dr):     1438.340295
MG Discrepancy due to finite box and discretization:     -0.641653 (  -0.04459%)
MG Correction to account for finite box:                  0.457868
MG Remaining discrepancy, due to discretization:         -0.183785 (  -0.01277%)
      ideal mu1:      -0.811110572243
             Q0:  -11565.764824242913
             G0:      -0.401736695989
   RMS gradient:       0.000096308263
MG BCs: +ve charge blocks (gridpoints):     31383 (   17398796).
MG BCs: -ve charge blocks (gridpoints):      8272 (    1091193).
MG BCs:     Elided blocks (gridpoints):    178651 (  187729836).
MG BCs: Computational effort saved:  99.9808%.
MG BCs: Charge after coarse-graining:           -9.0010055.
MG DL_MG: Calling solver with defect correction order = 8
MG DL_MG: Solver finished
MG Hartree energy from (\int phi*rho dr):              1439.980430
MG Hartree energy from (\int eps (grad phi)^2 dr):     1439.338686
MG Discrepancy due to finite box and discretization:     -0.641745 (  -0.04457%)
MG Correction to account for finite box:                  0.457800
MG Remaining discrepancy, due to discretization:         -0.183944 (  -0.01277%)
     Trial step:       0.478698982233
             Q1:  -11565.863942873781
 Quadratic coef:       0.093192316628
 Linear coef   :      -0.192310947496
           Qmin:  -11565.864037090776
Quadratic minimum step length (  0.493919768117) accepted
    Initial Ne1:    7233.99999467
      Final Ne1:    7234.00000000

=================== Penalty functional idempotency correction ==================
 RMS occupancy error at iteration   1:  0.000186 (step -0.4992 Ne1=   7234.0000)
            Final RMS occupancy error   :  0.000000 (Ne1=   7234.0000)
               Final occupancy bounds   : [ -0.0000,  1.0000]
================================================================================

    4        -1.156576482424E+04     9.6308E-05     8.7175E-05    -4.9057E-01
MG BCs: +ve charge blocks (gridpoints):     31383 (   17398815).
MG BCs: -ve charge blocks (gridpoints):      8271 (    1091177).
MG BCs:     Elided blocks (gridpoints):    178651 (  187729833).
MG BCs: Computational effort saved:  99.9808%.
MG BCs: Charge after coarse-graining:           -9.0010055.
MG DL_MG: Calling solver with defect correction order = 8
MG DL_MG: Solver finished
MG Hartree energy from (\int phi*rho dr):              1440.012428
MG Hartree energy from (\int eps (grad phi)^2 dr):     1439.370680
MG Discrepancy due to finite box and discretization:     -0.641748 (  -0.04457%)
MG Correction to account for finite box:                  0.457798
MG Remaining discrepancy, due to discretization:         -0.183950 (  -0.01277%)
      ideal mu1:      -0.810901593277
             Q0:  -11565.864474412636
             G0:      -0.104173940995
   RMS gradient:       0.000049186011
MG BCs: +ve charge blocks (gridpoints):     31379 (   17398540).
MG BCs: -ve charge blocks (gridpoints):      8272 (    1091282).
MG BCs:     Elided blocks (gridpoints):    178655 (  187730003).
MG BCs: Computational effort saved:  99.9808%.
MG BCs: Charge after coarse-graining:           -9.0010052.
MG DL_MG: Calling solver with defect correction order = 8
MG DL_MG: Solver finished
MG Hartree energy from (\int phi*rho dr):              1439.757701
MG Hartree energy from (\int eps (grad phi)^2 dr):     1439.115807
MG Discrepancy due to finite box and discretization:     -0.641894 (  -0.04458%)
MG Correction to account for finite box:                  0.457809
MG Remaining discrepancy, due to discretization:         -0.184085 (  -0.01279%)
     Trial step:       0.486249822933
             Q1:  -11565.889008025755
 Quadratic coef:       0.026120947245
 Linear coef   :      -0.050654560363
           Qmin:  -11565.889032140783
Quadratic minimum step length (  0.471475455630) accepted
    Initial Ne1:    7234.00183252
      Final Ne1:    7234.00000000

=================== Penalty functional idempotency correction ==================
 RMS occupancy error at iteration   1:  0.000063 (step -0.4997 Ne1=   7234.0000)
            Final RMS occupancy error   :  0.000000 (Ne1=   7234.0000)
               Final occupancy bounds   : [ -0.0000,  1.0000]
================================================================================

    5        -1.156586447441E+04     4.9186E-05     4.4522E-05    -9.9650E-02
MG BCs: +ve charge blocks (gridpoints):     31379 (   17398534).
MG BCs: -ve charge blocks (gridpoints):      8272 (    1091288).
MG BCs:     Elided blocks (gridpoints):    178655 (  187730003).
MG BCs: Computational effort saved:  99.9808%.
MG BCs: Charge after coarse-graining:           -9.0010052.
MG DL_MG: Calling solver with defect correction order = 8
MG DL_MG: Solver finished
MG Hartree energy from (\int phi*rho dr):              1439.765436
MG Hartree energy from (\int eps (grad phi)^2 dr):     1439.123546
MG Discrepancy due to finite box and discretization:     -0.641890 (  -0.04458%)
MG Correction to account for finite box:                  0.457809
MG Remaining discrepancy, due to discretization:         -0.184081 (  -0.01279%)
      ideal mu1:      -0.810408888776
             Q0:  -11565.889079199638
             G0:      -0.025601484680
   RMS gradient:       0.000024407622
MG BCs: +ve charge blocks (gridpoints):     31380 (   17398291).
MG BCs: -ve charge blocks (gridpoints):      8274 (    1091471).
MG BCs:     Elided blocks (gridpoints):    178654 (  187730063).
MG BCs: Computational effort saved:  99.9808%.
MG BCs: Charge after coarse-graining:           -9.0010050.
MG DL_MG: Calling solver with defect correction order = 8
MG DL_MG: Solver finished
MG Hartree energy from (\int phi*rho dr):              1439.279961
MG Hartree energy from (\int eps (grad phi)^2 dr):     1438.638048
MG Discrepancy due to finite box and discretization:     -0.641913 (  -0.04460%)
MG Correction to account for finite box:                  0.457824
MG Remaining discrepancy, due to discretization:         -0.184089 (  -0.01279%)
     Trial step:       0.478805656626
             Q1:  -11565.896640651743
 Quadratic coef:       0.004696683578
 Linear coef   :      -0.012258135683
           Qmin:  -11565.897077497157
Quadratic minimum step length (  0.624830756331) accepted
    Initial Ne1:    7234.00089048
      Final Ne1:    7234.00000000

=================== Penalty functional idempotency correction ==================
 RMS occupancy error at iteration   1:  0.000027 (step -0.4999 Ne1=   7234.0000)
            Final RMS occupancy error   :  0.000000 (Ne1=   7234.0000)
               Final occupancy bounds   : [ -0.0000,  1.0000]
================================================================================

    6        -1.156588907920E+04     2.4408E-05     2.2093E-05    -2.4605E-02
MG BCs: +ve charge blocks (gridpoints):     31380 (   17398273).
MG BCs: -ve charge blocks (gridpoints):      8275 (    1091495).
MG BCs:     Elided blocks (gridpoints):    178654 (  187730057).
MG BCs: Computational effort saved:  99.9808%.
MG BCs: Charge after coarse-graining:           -9.0010050.
MG DL_MG: Calling solver with defect correction order = 8
MG DL_MG: Solver finished
MG Hartree energy from (\int phi*rho dr):              1439.131693
MG Hartree energy from (\int eps (grad phi)^2 dr):     1438.489773
MG Discrepancy due to finite box and discretization:     -0.641920 (  -0.04460%)
MG Correction to account for finite box:                  0.457829
MG Remaining discrepancy, due to discretization:         -0.184091 (  -0.01279%)
      ideal mu1:      -0.810301760515
             Q0:  -11565.897083985968
             G0:      -0.010324110291
   RMS gradient:       0.000015517353
MG BCs: +ve charge blocks (gridpoints):     31382 (   17398640).
MG BCs: -ve charge blocks (gridpoints):      8273 (    1091248).
MG BCs:     Elided blocks (gridpoints):    178652 (  187729937).
MG BCs: Computational effort saved:  99.9808%.
MG BCs: Charge after coarse-graining:           -9.0010052.
MG DL_MG: Calling solver with defect correction order = 8
MG DL_MG: Solver finished
MG Hartree energy from (\int phi*rho dr):              1439.663513
MG Hartree energy from (\int eps (grad phi)^2 dr):     1439.021601
MG Discrepancy due to finite box and discretization:     -0.641912 (  -0.04459%)
MG Correction to account for finite box:                  0.457814
MG Remaining discrepancy, due to discretization:         -0.184098 (  -0.01279%)
     Trial step:       0.546966635697
             Q1:  -11565.899774027988
 Quadratic coef:       0.002956901852
 Linear coef   :      -0.005646943872
           Qmin:  -11565.899780049001
Quadratic minimum step length (  0.522284818169) accepted
    Initial Ne1:    7234.00007114
      Final Ne1:    7234.00000000

=================== Penalty functional idempotency correction ==================
 RMS occupancy error at iteration   1:  0.000002 (step -0.5000 Ne1=   7234.0000)
            Final RMS occupancy error   :  0.000000 (Ne1=   7234.0000)
               Final occupancy bounds   : [  0.0000,  1.0000]
================================================================================

    7        -1.156589708399E+04     1.5517E-05     1.4046E-05    -8.0048E-03
MG BCs: +ve charge blocks (gridpoints):     31381 (   17398617).
MG BCs: -ve charge blocks (gridpoints):      8273 (    1091259).
MG BCs:     Elided blocks (gridpoints):    178653 (  187729949).
MG BCs: Computational effort saved:  99.9808%.
MG BCs: Charge after coarse-graining:           -9.0010052.
MG DL_MG: Calling solver with defect correction order = 8
MG DL_MG: Solver finished
MG Hartree energy from (\int phi*rho dr):              1439.639495
MG Hartree energy from (\int eps (grad phi)^2 dr):     1438.997582
MG Discrepancy due to finite box and discretization:     -0.641912 (  -0.04459%)
MG Correction to account for finite box:                  0.457814
MG Remaining discrepancy, due to discretization:         -0.184098 (  -0.01279%)
      ideal mu1:      -0.810607956518
             Q0:  -11565.899780088570
             G0:      -0.005810831300
   RMS gradient:       0.000011642018
MG BCs: +ve charge blocks (gridpoints):     31383 (   17398639).
MG BCs: -ve charge blocks (gridpoints):      8271 (    1091233).
MG BCs:     Elided blocks (gridpoints):    178651 (  187729953).
MG BCs: Computational effort saved:  99.9808%.
MG BCs: Charge after coarse-graining:           -9.0010052.
MG DL_MG: Calling solver with defect correction order = 8
MG DL_MG: Solver finished
MG Hartree energy from (\int phi*rho dr):              1439.682464
MG Hartree energy from (\int eps (grad phi)^2 dr):     1439.040565
MG Discrepancy due to finite box and discretization:     -0.641900 (  -0.04459%)
MG Correction to account for finite box:                  0.457811
MG Remaining discrepancy, due to discretization:         -0.184088 (  -0.01279%)
     Trial step:       0.534483273704
             Q1:  -11565.902077405713
 Quadratic coef:       0.000808474992
 Linear coef   :      -0.003105792136
           Qmin:  -11565.902762847743
Quadratic minimum step length (  1.026620467914) accepted
    Initial Ne1:    7234.00007802
      Final Ne1:    7234.00000000

=================== Penalty functional idempotency correction ==================
 RMS occupancy error at iteration   1:  0.000017 (step -0.4995 Ne1=   7234.0000)
            Final RMS occupancy error   :  0.000000 (Ne1=   7234.0000)
               Final occupancy bounds   : [ -0.0000,  1.0000]
================================================================================

    8        -1.156589978009E+04     1.1642E-05     1.0538E-05    -2.6961E-03
MG BCs: +ve charge blocks (gridpoints):     31384 (   17398713).
MG BCs: -ve charge blocks (gridpoints):      8271 (    1091172).
MG BCs:     Elided blocks (gridpoints):    178650 (  187729940).
MG BCs: Computational effort saved:  99.9808%.
MG BCs: Charge after coarse-graining:           -9.0010053.
MG DL_MG: Calling solver with defect correction order = 8
MG DL_MG: Solver finished
MG Hartree energy from (\int phi*rho dr):              1439.720968
MG Hartree energy from (\int eps (grad phi)^2 dr):     1439.079080
MG Discrepancy due to finite box and discretization:     -0.641887 (  -0.04458%)
MG Correction to account for finite box:                  0.457808
MG Remaining discrepancy, due to discretization:         -0.184080 (  -0.01279%)
      ideal mu1:      -0.810648251074
             Q0:  -11565.902757545002
             G0:      -0.007933020702
   RMS gradient:       0.000013625804
MG BCs: +ve charge blocks (gridpoints):     31385 (   17398572).
MG BCs: -ve charge blocks (gridpoints):      8272 (    1091295).
MG BCs:     Elided blocks (gridpoints):    178649 (  187729958).
MG BCs: Computational effort saved:  99.9808%.
MG BCs: Charge after coarse-graining:           -9.0010052.
MG DL_MG: Calling solver with defect correction order = 8
MG DL_MG: Solver finished
MG Hartree energy from (\int phi*rho dr):              1439.399722
MG Hartree energy from (\int eps (grad phi)^2 dr):     1438.757863
MG Discrepancy due to finite box and discretization:     -0.641859 (  -0.04459%)
MG Correction to account for finite box:                  0.457797
MG Remaining discrepancy, due to discretization:         -0.184062 (  -0.01279%)
     Trial step:       0.740750611571
             Q1:  -11565.906199589255
 Quadratic coef:       0.002434345683
 Linear coef   :      -0.005876389937
           Qmin:  -11565.906303873584
Quadratic minimum step length (  0.894067648342) accepted
    Initial Ne1:    7234.00019423
      Final Ne1:    7234.00000000

=================== Penalty functional idempotency correction ==================
 RMS occupancy error at iteration   1:  0.000075 (step -0.4976 Ne1=   7234.0000)
            Final RMS occupancy error   :  0.000000 (Ne1=   7234.0000)
               Final occupancy bounds   : [ -0.0000,  1.0000]
================================================================================

    9        -1.156590275755E+04     1.3626E-05     1.2334E-05    -2.9775E-03
MG BCs: +ve charge blocks (gridpoints):     31386 (   17398536).
MG BCs: -ve charge blocks (gridpoints):      8272 (    1091310).
MG BCs:     Elided blocks (gridpoints):    178648 (  187729979).
MG BCs: Computational effort saved:  99.9808%.
MG BCs: Charge after coarse-graining:           -9.0010052.
MG DL_MG: Calling solver with defect correction order = 8
MG DL_MG: Solver finished
MG Hartree energy from (\int phi*rho dr):              1439.332206
MG Hartree energy from (\int eps (grad phi)^2 dr):     1438.690354
MG Discrepancy due to finite box and discretization:     -0.641853 (  -0.04459%)
MG Correction to account for finite box:                  0.457794
MG Remaining discrepancy, due to discretization:         -0.184058 (  -0.01279%)
      ideal mu1:      -0.810389900702
   10        -1.156590629542E+04     1.3602E-05     1.2312E-05    -3.5379E-03
Finished density kernel iterations (  10)

Writing density kernel to file "complex_27841.vacuum_dkn" ... done


>>> Density kernel optimised for the current NGWF basis:
     ~~~~~~~~~~~~~~~~~~~~~~~~~~~~~~~~~~~~~~~~~~~~~~~~~~~~~~~~~~~
     Total energy                =  -1.15659062954189E+04  Eh
     Estimated bandgap           =  -2.2164E-01  Eh
     RMS occupancy error         =   1.4262E-07
     [H,K] commutator            =   1.2312E-05
     Occupancy bounds            = [ -0.000:  1.000]
     ~~~~~~~~~~~~~~~~~~~~~~~~~~~~~~~~~~~~~~~~~~~~~~~~~~~~~~~~~~~




################################################################################
########################### NGWF CG iteration  001 #############################
################################################################################
****** Reciprocal space K.E. preconditioning with k_zero =  3.5000 a0^-1 *******

>>> Checking for convergence of NGWFs:   NOT CONVERGED
  ========================================================================
         NGWF RMS gradient =  1.6587E-03 >  2.0000E-06  | above tolerance
  ========================================================================

>>> Improving NGWFs using line search:
============ Calculation of NGWF S^-1 using Hotelling algorithm ================ 
         Iteration  |  Frobenius norm and Maximum abs value    (of I-S*S_n^-1)   
               1       0.24058204E+00     0.66437929E-02
               2       0.13322833E-02     0.58240541E-04
               3       0.69746482E-07     0.51262223E-08
               4       0.13163048E-12     0.57731597E-14
================================================================================
MG BCs: +ve charge blocks (gridpoints):     30952 (   17338398).
MG BCs: -ve charge blocks (gridpoints):      8274 (    1087757).
MG BCs:     Elided blocks (gridpoints):    179085 (  187793670).
MG BCs: Computational effort saved:  99.9810%.
MG BCs: Charge after coarse-graining:           -9.0010139.
MG DL_MG: Calling solver with defect correction order = 8
MG DL_MG: Solver finished
MG Hartree energy from (\int phi*rho dr):              1410.974927
MG Hartree energy from (\int eps (grad phi)^2 dr):     1410.334486
MG Discrepancy due to finite box and discretization:     -0.640441 (  -0.04539%)
MG Correction to account for finite box:                  0.457773
MG Remaining discrepancy, due to discretization:         -0.182668 (  -0.01295%)
============ Calculation of NGWF S^-1 using Hotelling algorithm ================ 
         Iteration  |  Frobenius norm and Maximum abs value    (of I-S*S_n^-1)   
               1       0.21584819E+01     0.50679840E-01
               2       0.95540374E-01     0.32072569E-02
               3       0.26092937E-03     0.15655692E-04
               4       0.35308748E-08     0.41389581E-09
               5       0.11692324E-12     0.48849813E-14
================================================================================
------------------------------- NGWF line search -------------------------------
RMS gradient                =       0.00165871625088
Trial step length           =               0.122474
Gradient along search dir.  =       -299.66781214086
Functional at step 0        =  -11565.90629541885573
Functional at step 1        =  -11599.70426087302621
Functional predicted        =  -11681.88020375532142
Selected quadratic step     =               0.774016
--------------------------- NGWF line search finished --------------------------
                                               
Writing NGWFs to file "complex_27841.vacuum_tightbox_ngwfs"....  done

>>> Optimising kernel for current NGWFs:
   Initial electron number for spin 1:    7280.02163854
     Final electron number for spin 1:    7234.00000000

=================== Penalty functional idempotency correction ==================
 RMS occupancy error at iteration   1:  0.005241 (step -0.4825 Ne1=   7234.0000)
 RMS occupancy error at iteration   2:  0.000097 (step -0.5003 Ne1=   7234.0000)
            Final RMS occupancy error   :  0.000000 (Ne1=   7234.0000)
               Final occupancy bounds   : [  0.0000,  1.0000]
================================================================================

................................................................................
<<<<<<<<<<<<<< LNV (Original version) density kernel optimisation >>>>>>>>>>>>>>
~~~~~~~~~~~~~~~~~~~~~~~~~~~~~~~~~~~~~~~~~~~~~~~~~~~~~~~~~~~~~~~~~~~~~~~~~~~~~~~~
   iter  |      energy (Eh)       | rms gradient |  commutator  |   dE (Eh)
MG BCs: +ve charge blocks (gridpoints):     25187 (   17066114).
MG BCs: -ve charge blocks (gridpoints):      8357 (    1058248).
MG BCs:     Elided blocks (gridpoints):    184858 (  188095463).
MG BCs: Computational effort saved:  99.9837%.
MG BCs: Charge after coarse-graining:           -9.0007596.
MG DL_MG: Calling solver with defect correction order = 8
MG DL_MG: Solver finished
MG Hartree energy from (\int phi*rho dr):              1281.901857
MG Hartree energy from (\int eps (grad phi)^2 dr):     1281.263987
MG Discrepancy due to finite box and discretization:     -0.637870 (  -0.04976%)
MG Correction to account for finite box:                  0.457699
MG Remaining discrepancy, due to discretization:         -0.180171 (  -0.01405%)
      ideal mu1:      -0.753277290554
             Q0:  -11681.256220808136
             G0:      -9.555248196478
   RMS gradient:       0.000472076428
MG BCs: +ve charge blocks (gridpoints):     25252 (   17080219).
MG BCs: -ve charge blocks (gridpoints):      8350 (    1054695).
MG BCs:     Elided blocks (gridpoints):    184793 (  188084911).
MG BCs: Computational effort saved:  99.9837%.
MG BCs: Charge after coarse-graining:           -9.0007553.
MG DL_MG: Calling solver with defect correction order = 8
MG DL_MG: Solver finished
MG Hartree energy from (\int phi*rho dr):              1297.153819
MG Hartree energy from (\int eps (grad phi)^2 dr):     1296.510690
MG Discrepancy due to finite box and discretization:     -0.643129 (  -0.04958%)
MG Correction to account for finite box:                  0.457135
MG Remaining discrepancy, due to discretization:         -0.185994 (  -0.01434%)
     Trial step:       0.813806584696
             Q1:  -11679.551014104276
 Quadratic coef:       9.481330604560
 Linear coef   :      -7.776123900700
           Qmin:  -11682.850619986928
Quadratic minimum step length (  0.333722190362) accepted
    Initial Ne1:    7233.99902321
      Final Ne1:    7234.00000000

=================== Penalty functional idempotency correction ==================
 RMS occupancy error at iteration   1:  0.000355 (step -0.4986 Ne1=   7234.0000)
 RMS occupancy error at iteration   2:  0.000000 (step -0.5000 Ne1=   7234.0000)
            Final RMS occupancy error   :  0.000000 (Ne1=   7234.0000)
               Final occupancy bounds   : [  0.0000,  1.0000]
================================================================================

    1        -1.168125622081E+04     4.7208E-04     4.2731E-04
MG BCs: +ve charge blocks (gridpoints):     25211 (   17072021).
MG BCs: -ve charge blocks (gridpoints):      8357 (    1056770).
MG BCs:     Elided blocks (gridpoints):    184834 (  188091034).
MG BCs: Computational effort saved:  99.9837%.
MG BCs: Charge after coarse-graining:           -9.0007578.
MG DL_MG: Calling solver with defect correction order = 8
MG DL_MG: Solver finished
MG Hartree energy from (\int phi*rho dr):              1286.975556
MG Hartree energy from (\int eps (grad phi)^2 dr):     1286.335657
MG Discrepancy due to finite box and discretization:     -0.639899 (  -0.04972%)
MG Correction to account for finite box:                  0.457436
MG Remaining discrepancy, due to discretization:         -0.182463 (  -0.01418%)
      ideal mu1:      -0.758849686948
             Q0:  -11682.826140723191
             G0:      -0.868921013244
   RMS gradient:       0.000143045030
MG BCs: +ve charge blocks (gridpoints):     25214 (   17071607).
MG BCs: -ve charge blocks (gridpoints):      8359 (    1057571).
MG BCs:     Elided blocks (gridpoints):    184831 (  188090647).
MG BCs: Computational effort saved:  99.9837%.
MG BCs: Charge after coarse-graining:           -9.0007576.
MG DL_MG: Calling solver with defect correction order = 8
MG DL_MG: Solver finished
MG Hartree energy from (\int phi*rho dr):              1287.508082
MG Hartree energy from (\int eps (grad phi)^2 dr):     1286.867915
MG Discrepancy due to finite box and discretization:     -0.640167 (  -0.04972%)
MG Correction to account for finite box:                  0.457413
MG Remaining discrepancy, due to discretization:         -0.182754 (  -0.01419%)
     Trial step:       0.521138480613
             Q1:  -11683.021755114663
 Quadratic coef:       0.257213785142
 Linear coef   :      -0.452828176615
           Qmin:  -11683.025443180311
Quadratic minimum step length (  0.458735498585) accepted
    Initial Ne1:    7233.99987671
      Final Ne1:    7234.00000000

=================== Penalty functional idempotency correction ==================
 RMS occupancy error at iteration   1:  0.000135 (step -0.4995 Ne1=   7234.0000)
            Final RMS occupancy error   :  0.000000 (Ne1=   7234.0000)
               Final occupancy bounds   : [ -0.0000,  1.0000]
================================================================================

    2        -1.168282614072E+04     1.4305E-04     1.2948E-04    -1.5699E+00
MG BCs: +ve charge blocks (gridpoints):     25214 (   17071656).
MG BCs: -ve charge blocks (gridpoints):      8359 (    1057478).
MG BCs:     Elided blocks (gridpoints):    184831 (  188090691).
MG BCs: Computational effort saved:  99.9837%.
MG BCs: Charge after coarse-graining:           -9.0007576.
MG DL_MG: Calling solver with defect correction order = 8
MG DL_MG: Solver finished
MG Hartree energy from (\int phi*rho dr):              1287.444933
MG Hartree energy from (\int eps (grad phi)^2 dr):     1286.804799
MG Discrepancy due to finite box and discretization:     -0.640134 (  -0.04972%)
MG Correction to account for finite box:                  0.457415
MG Remaining discrepancy, due to discretization:         -0.182718 (  -0.01419%)
      ideal mu1:      -0.759599768013
             Q0:  -11683.025835096370
             G0:      -0.169873494376
   RMS gradient:       0.000062880646
MG BCs: +ve charge blocks (gridpoints):     25212 (   17071004).
MG BCs: -ve charge blocks (gridpoints):      8359 (    1057811).
MG BCs:     Elided blocks (gridpoints):    184833 (  188091010).
MG BCs: Computational effort saved:  99.9837%.
MG BCs: Charge after coarse-graining:           -9.0007576.
MG DL_MG: Calling solver with defect correction order = 8
MG DL_MG: Solver finished
MG Hartree energy from (\int phi*rho dr):              1286.839784
MG Hartree energy from (\int eps (grad phi)^2 dr):     1286.199763
MG Discrepancy due to finite box and discretization:     -0.640021 (  -0.04974%)
MG Correction to account for finite box:                  0.457394
MG Remaining discrepancy, due to discretization:         -0.182627 (  -0.01419%)
     Trial step:       0.488942451354
             Q1:  -11683.075820110971
 Quadratic coef:       0.033073348161
 Linear coef   :      -0.083058362760
           Qmin:  -11683.077982006254
Quadratic minimum step length (  0.613949928752) accepted
    Initial Ne1:    7234.00052741
      Final Ne1:    7234.00000000

=================== Penalty functional idempotency correction ==================
 RMS occupancy error at iteration   1:  0.000068 (step -0.4998 Ne1=   7234.0000)
            Final RMS occupancy error   :  0.000000 (Ne1=   7234.0000)
               Final occupancy bounds   : [ -0.0000,  1.0000]
================================================================================

    3        -1.168302583510E+04     6.2881E-05     5.6918E-05    -1.9969E-01
MG BCs: +ve charge blocks (gridpoints):     25212 (   17070807).
MG BCs: -ve charge blocks (gridpoints):      8358 (    1057910).
MG BCs:     Elided blocks (gridpoints):    184833 (  188091108).
MG BCs: Computational effort saved:  99.9837%.
MG BCs: Charge after coarse-graining:           -9.0007576.
MG DL_MG: Calling solver with defect correction order = 8
MG DL_MG: Solver finished
MG Hartree energy from (\int phi*rho dr):              1286.684757
MG Hartree energy from (\int eps (grad phi)^2 dr):     1286.044764
MG Discrepancy due to finite box and discretization:     -0.639993 (  -0.04974%)
MG Correction to account for finite box:                  0.457389
MG Remaining discrepancy, due to discretization:         -0.182604 (  -0.01419%)
      ideal mu1:      -0.758623805862
             Q0:  -11683.078078971244
             G0:      -0.033614335886
   RMS gradient:       0.000027957354
MG BCs: +ve charge blocks (gridpoints):     25211 (   17070614).
MG BCs: -ve charge blocks (gridpoints):      8358 (    1057964).
MG BCs:     Elided blocks (gridpoints):    184834 (  188091247).
MG BCs: Computational effort saved:  99.9837%.
MG BCs: Charge after coarse-graining:           -9.0007577.
MG DL_MG: Calling solver with defect correction order = 8
MG DL_MG: Solver finished
MG Hartree energy from (\int phi*rho dr):              1286.727312
MG Hartree energy from (\int eps (grad phi)^2 dr):     1286.087407
MG Discrepancy due to finite box and discretization:     -0.639905 (  -0.04973%)
MG Correction to account for finite box:                  0.457388
MG Remaining discrepancy, due to discretization:         -0.182517 (  -0.01418%)
     Trial step:       0.547892492349
             Q1:  -11683.087075731833
 Quadratic coef:       0.009420281678
 Linear coef   :      -0.018417042267
           Qmin:  -11683.087080492045
Quadratic minimum step length (  0.535576298799) accepted
    Initial Ne1:    7234.00023698
      Final Ne1:    7234.00000000

=================== Penalty functional idempotency correction ==================
 RMS occupancy error at iteration   1:  0.000018 (step -0.4999 Ne1=   7234.0000)
            Final RMS occupancy error   :  0.000000 (Ne1=   7234.0000)
               Final occupancy bounds   : [ -0.0000,  1.0000]
================================================================================

    4        -1.168307807897E+04     2.7957E-05     2.5306E-05    -5.2244E-02
MG BCs: +ve charge blocks (gridpoints):     25211 (   17070622).
MG BCs: -ve charge blocks (gridpoints):      8358 (    1057967).
MG BCs:     Elided blocks (gridpoints):    184834 (  188091236).
MG BCs: Computational effort saved:  99.9837%.
MG BCs: Charge after coarse-graining:           -9.0007577.
MG DL_MG: Calling solver with defect correction order = 8
MG DL_MG: Solver finished
MG Hartree energy from (\int phi*rho dr):              1286.726340
MG Hartree energy from (\int eps (grad phi)^2 dr):     1286.086433
MG Discrepancy due to finite box and discretization:     -0.639907 (  -0.04973%)
MG Correction to account for finite box:                  0.457388
MG Remaining discrepancy, due to discretization:         -0.182519 (  -0.01418%)
      ideal mu1:      -0.758703999075
             Q0:  -11683.087085491279
             G0:      -0.010151811263
   RMS gradient:       0.000015383997
MG BCs: +ve charge blocks (gridpoints):     25212 (   17071029).
MG BCs: -ve charge blocks (gridpoints):      8358 (    1057810).
MG BCs:     Elided blocks (gridpoints):    184833 (  188090986).
MG BCs: Computational effort saved:  99.9837%.
MG BCs: Charge after coarse-graining:           -9.0007576.
MG DL_MG: Calling solver with defect correction order = 8
MG DL_MG: Solver finished
MG Hartree energy from (\int phi*rho dr):              1287.061001
MG Hartree energy from (\int eps (grad phi)^2 dr):     1286.421125
MG Discrepancy due to finite box and discretization:     -0.639875 (  -0.04972%)
MG Correction to account for finite box:                  0.457374
MG Remaining discrepancy, due to discretization:         -0.182501 (  -0.01418%)
     Trial step:       0.541699393753
             Q1:  -11683.089668962872
 Quadratic coef:       0.002915758414
 Linear coef   :      -0.005499230007
           Qmin:  -11683.089678429922
Quadratic minimum step length (  0.510832712763) accepted
    Initial Ne1:    7234.00008140
      Final Ne1:    7234.00000000

=================== Penalty functional idempotency correction ==================
 RMS occupancy error at iteration   1:  0.000007 (step -0.5000 Ne1=   7234.0000)
            Final RMS occupancy error   :  0.000000 (Ne1=   7234.0000)
               Final occupancy bounds   : [ -0.0000,  1.0000]
================================================================================

    5        -1.168308708549E+04     1.5384E-05     1.3925E-05    -9.0065E-03
MG BCs: +ve charge blocks (gridpoints):     25212 (   17070989).
MG BCs: -ve charge blocks (gridpoints):      8358 (    1057828).
MG BCs:     Elided blocks (gridpoints):    184833 (  188091008).
MG BCs: Computational effort saved:  99.9837%.
MG BCs: Charge after coarse-graining:           -9.0007576.
MG DL_MG: Calling solver with defect correction order = 8
MG DL_MG: Solver finished
MG Hartree energy from (\int phi*rho dr):              1287.041904
MG Hartree energy from (\int eps (grad phi)^2 dr):     1286.402027
MG Discrepancy due to finite box and discretization:     -0.639877 (  -0.04972%)
MG Correction to account for finite box:                  0.457375
MG Remaining discrepancy, due to discretization:         -0.182502 (  -0.01418%)
      ideal mu1:      -0.758926227859
             Q0:  -11683.089679076569
             G0:      -0.002349320789
   RMS gradient:       0.000007400698
MG BCs: +ve charge blocks (gridpoints):     25212 (   17071003).
MG BCs: -ve charge blocks (gridpoints):      8358 (    1057834).
MG BCs:     Elided blocks (gridpoints):    184833 (  188090988).
MG BCs: Computational effort saved:  99.9837%.
MG BCs: Charge after coarse-graining:           -9.0007576.
MG DL_MG: Calling solver with defect correction order = 8
MG DL_MG: Solver finished
MG Hartree energy from (\int phi*rho dr):              1286.997623
MG Hartree energy from (\int eps (grad phi)^2 dr):     1286.357752
MG Discrepancy due to finite box and discretization:     -0.639871 (  -0.04972%)
MG Correction to account for finite box:                  0.457371
MG Remaining discrepancy, due to discretization:         -0.182499 (  -0.01418%)
     Trial step:       0.526039704597
             Q1:  -11683.090373584535
 Quadratic coef:       0.000541328049
 Linear coef   :      -0.001235836014
           Qmin:  -11683.090384420886
Quadratic minimum step length (  0.600466586883) accepted
    Initial Ne1:    7234.00002519
      Final Ne1:    7234.00000000

=================== Penalty functional idempotency correction ==================
 RMS occupancy error at iteration   1:  0.000003 (step -0.5000 Ne1=   7234.0000)
            Final RMS occupancy error   :  0.000000 (Ne1=   7234.0000)
               Final occupancy bounds   : [  0.0000,  1.0000]
================================================================================

    6        -1.168308967908E+04     7.4007E-06     6.6989E-06    -2.5936E-03
MG BCs: +ve charge blocks (gridpoints):     25212 (   17070998).
MG BCs: -ve charge blocks (gridpoints):      8358 (    1057842).
MG BCs:     Elided blocks (gridpoints):    184833 (  188090985).
MG BCs: Computational effort saved:  99.9837%.
MG BCs: Charge after coarse-graining:           -9.0007576.
MG DL_MG: Calling solver with defect correction order = 8
MG DL_MG: Solver finished
MG Hartree energy from (\int phi*rho dr):              1286.991362
MG Hartree energy from (\int eps (grad phi)^2 dr):     1286.351492
MG Discrepancy due to finite box and discretization:     -0.639870 (  -0.04972%)
MG Correction to account for finite box:                  0.457371
MG Remaining discrepancy, due to discretization:         -0.182499 (  -0.01418%)
      ideal mu1:      -0.758898204385
             Q0:  -11683.090384497191
             G0:      -0.000766355669
   RMS gradient:       0.000004227723
MG BCs: +ve charge blocks (gridpoints):     25212 (   17070844).
MG BCs: -ve charge blocks (gridpoints):      8357 (    1057899).
MG BCs:     Elided blocks (gridpoints):    184833 (  188091082).
MG BCs: Computational effort saved:  99.9837%.
MG BCs: Charge after coarse-graining:           -9.0007576.
MG DL_MG: Calling solver with defect correction order = 8
MG DL_MG: Solver finished
MG Hartree energy from (\int phi*rho dr):              1286.936677
MG Hartree energy from (\int eps (grad phi)^2 dr):     1286.296803
[...]
 RMS occupancy error at iteration   1:  0.000000 (step -0.5000 Ne1=   7234.0000)
            Final RMS occupancy error   :  0.000000 (Ne1=   7234.0000)
               Final occupancy bounds   : [ -0.0000,  1.0000]
================================================================================

    7        -1.171922298421E+04     5.8686E-09     5.3121E-09     3.4925E-10

Reusing previously generated solute cavity.
MG BCs: +ve charge blocks (gridpoints):     29764 (   19271005).
MG BCs: -ve charge blocks (gridpoints):      8373 (    1035738).
MG BCs:     Elided blocks (gridpoints):    180281 (  185913082).
MG BCs: Computational effort saved:  99.9815%.
MG BCs: Charge after coarse-graining:           -9.0009983.
MG DL_MG: Calling solver with defect correction order = 8
MG DL_MG: Solver finished
MG Hartree energy from (\int phi*rho dr):              1237.634148
MG Hartree energy from (\int eps (grad phi)^2 dr):     1237.446274
MG Discrepancy due to finite box and discretization:     -0.187875 (  -0.01518%)
MG Correction to account for finite box:                  0.006257
MG Remaining discrepancy, due to discretization:         -0.181618 (  -0.01467%)
      ideal mu1:      -0.514047803124
             Q0:  -11719.222984207212
             G0:      -0.000000001865
   RMS gradient:       0.000000004881

Reusing previously generated solute cavity.
MG BCs: +ve charge blocks (gridpoints):     29764 (   19271005).
MG BCs: -ve charge blocks (gridpoints):      8373 (    1035738).
MG BCs:     Elided blocks (gridpoints):    180281 (  185913082).
MG BCs: Computational effort saved:  99.9815%.
MG BCs: Charge after coarse-graining:           -9.0009983.
MG DL_MG: Calling solver with defect correction order = 8
MG DL_MG: Solver finished
MG Hartree energy from (\int phi*rho dr):              1237.634161
MG Hartree energy from (\int eps (grad phi)^2 dr):     1237.446286
MG Discrepancy due to finite box and discretization:     -0.187875 (  -0.01518%)
MG Correction to account for finite box:                  0.006257
MG Remaining discrepancy, due to discretization:         -0.181618 (  -0.01467%)
     Trial step:       0.177087003307
             Q1:  -11719.222984206863
 Quadratic coef:       0.000000000680
 Linear coef   :      -0.000000000330
           Qmin:  -11719.222984207252
Quadratic minimum step length (  0.042988085970) accepted
    Initial Ne1:    7234.00000000
      Final Ne1:    7234.00000000

=================== Penalty functional idempotency correction ==================
 RMS occupancy error at iteration   1:  0.000000 (step -0.5000 Ne1=   7234.0000)
            Final RMS occupancy error   :  0.000000 (Ne1=   7234.0000)
               Final occupancy bounds   : [ -0.0000,  1.0000]
================================================================================

    8        -1.171922298421E+04     4.8805E-09     4.4177E-09     0.0000E+00

Reusing previously generated solute cavity.
MG BCs: +ve charge blocks (gridpoints):     29764 (   19271005).
MG BCs: -ve charge blocks (gridpoints):      8373 (    1035738).
MG BCs:     Elided blocks (gridpoints):    180281 (  185913082).
MG BCs: Computational effort saved:  99.9815%.
MG BCs: Charge after coarse-graining:           -9.0009983.
MG DL_MG: Calling solver with defect correction order = 8
MG DL_MG: Solver finished
MG Hartree energy from (\int phi*rho dr):              1237.634151
MG Hartree energy from (\int eps (grad phi)^2 dr):     1237.446277
MG Discrepancy due to finite box and discretization:     -0.187875 (  -0.01518%)
MG Correction to account for finite box:                  0.006257
MG Remaining discrepancy, due to discretization:         -0.181618 (  -0.01467%)
      ideal mu1:      -0.514047802937
             Q0:  -11719.222984207096
             G0:      -0.000000002015
   RMS gradient:       0.000000004267

Reusing previously generated solute cavity.
MG BCs: +ve charge blocks (gridpoints):     29764 (   19271005).
MG BCs: -ve charge blocks (gridpoints):      8373 (    1035738).
MG BCs:     Elided blocks (gridpoints):    180281 (  185913082).
MG BCs: Computational effort saved:  99.9815%.
MG BCs: Charge after coarse-graining:           -9.0009983.
MG DL_MG: Calling solver with defect correction order = 8
MG DL_MG: Solver finished
MG Hartree energy from (\int phi*rho dr):              1237.634159
MG Hartree energy from (\int eps (grad phi)^2 dr):     1237.446284
MG Discrepancy due to finite box and discretization:     -0.187875 (  -0.01518%)
MG Correction to account for finite box:                  0.006257
MG Remaining discrepancy, due to discretization:         -0.181618 (  -0.01467%)
     Trial step:       0.087250394396
             Q1:  -11719.222984206863
 Quadratic coef:       0.000000000409
 Linear coef   :      -0.000000000176
           Qmin:  -11719.222984207114
Quadratic minimum step length (  0.018743131959) accepted
    Initial Ne1:    7234.00000000
      Final Ne1:    7234.00000000

=================== Penalty functional idempotency correction ==================
 RMS occupancy error at iteration   1:  0.000000 (step -0.5000 Ne1=   7234.0000)
            Final RMS occupancy error   :  0.000000 (Ne1=   7234.0000)
               Final occupancy bounds   : [  0.0000,  1.0000]
================================================================================

    9        -1.171922298421E+04     4.2667E-09     3.8621E-09     1.1642E-10

Reusing previously generated solute cavity.
MG BCs: +ve charge blocks (gridpoints):     29764 (   19271005).
MG BCs: -ve charge blocks (gridpoints):      8373 (    1035738).
MG BCs:     Elided blocks (gridpoints):    180281 (  185913082).
MG BCs: Computational effort saved:  99.9815%.
MG BCs: Charge after coarse-graining:           -9.0009983.
MG DL_MG: Calling solver with defect correction order = 8
MG DL_MG: Solver finished
MG Hartree energy from (\int phi*rho dr):              1237.634153
MG Hartree energy from (\int eps (grad phi)^2 dr):     1237.446278
MG Discrepancy due to finite box and discretization:     -0.187875 (  -0.01518%)
MG Correction to account for finite box:                  0.006257
MG Remaining discrepancy, due to discretization:         -0.181618 (  -0.01467%)
      ideal mu1:      -0.514047802940
   10        -1.171922298421E+04     3.9599E-09     3.5844E-09     0.0000E+00
Finished density kernel iterations (  10)

Writing density kernel to file "complex_27841.dkn" ... done


>>> Density kernel optimised for the current NGWF basis:
     ~~~~~~~~~~~~~~~~~~~~~~~~~~~~~~~~~~~~~~~~~~~~~~~~~~~~~~~~~~~
     Total energy                =  -1.17192229842071E+04  Eh
     Estimated bandgap           =   1.1296E-01  Eh
     RMS occupancy error         =   7.1882E-16
     [H,K] commutator            =   3.5844E-09
     Occupancy bounds            = [  0.000:  1.000]
     ~~~~~~~~~~~~~~~~~~~~~~~~~~~~~~~~~~~~~~~~~~~~~~~~~~~~~~~~~~~




################################################################################
########################### NGWF CG iteration  005 #############################
################################################################################
****** Reciprocal space K.E. preconditioning with k_zero =  3.5000 a0^-1 *******

>>> Checking for convergence of NGWFs: 
           ........................................................
           |         *** NGWF optimisation converged ***          |
           | RMS NGWF gradient =    0.00000110687660              |
           | Criteria satisfied:                                  |
           | -> RMS NGWF gradient lower than set threshold.       |
           ========================================================

Reusing previously generated solute cavity.
MG BCs: +ve charge blocks (gridpoints):     29764 (   19271005).
MG BCs: -ve charge blocks (gridpoints):      8373 (    1035738).
MG BCs:     Elided blocks (gridpoints):    180281 (  185913082).
MG BCs: Computational effort saved:  99.9815%.
MG BCs: Charge after coarse-graining:           -9.0009983.
MG DL_MG: Calling solver with defect correction order = 8
MG DL_MG: Solver finished
MG Hartree energy from (\int phi*rho dr):              1237.634153
MG Hartree energy from (\int eps (grad phi)^2 dr):     1237.446278
MG Discrepancy due to finite box and discretization:     -0.187875 (  -0.01518%)
MG Correction to account for finite box:                  0.006257
MG Remaining discrepancy, due to discretization:         -0.181618 (  -0.01467%)

================================================================================
           ---------------- ENERGY COMPONENTS (Eh) ----------------
           | Kinetic                    :     8454.29574780601615 |
           | Pseudo. (local,OBC,corr'd) :    -5018.06620559663497 |
           | Pseudopotential (non-local):     1456.11512668944488 |
           | Hartree (molecular)        :     1237.63415291574029 |
           | Exchange-correlation       :    -3352.88328701878254 |
           | Ion-ion (open BC)          :   828179.32638820121065 |
           | Smeared ion non-self corr. :  -828131.35934724844992 |
           | Smeared ion self corr.     :   -14544.93686558573609 |
           | Solvent cavitation energy  :        2.31719516189252 |
           | Solute-solvent dis-rep en. :       -1.66588953176358 |
           | Total                      :   -11719.22298420695370 |
           --------------------------------------------------------
           ------ LOCAL ENERGY COMPONENTS FROM MATRIX TRACES ------
           | Pseudopotential (local)    :    -5018.06620559663043 |
           | Hartree                    :    -1996.38889615374319 |
           --------------------------------------------------------
           Integrated density           :     7233.99999999814645
           Integrated density tr(KS)    :     7234.00000000000091
================================================================================


                        <<<<< CALCULATION SUMMARY >>>>>                         
|ITER|    RMS GRADIENT   |     TOTAL ENERGY    |   step   |     Epredicted              
   0     0.00003913479566 -11719.17085795628373   0.540126 -11719.21590717684194        
   1     0.00001264822900 -11719.22180269460659   0.114163 -11719.22279729963520        
   2     0.00000556945702 -11719.22294324450195   0.020495 -11719.22297786585295        
   3     0.00000248233984 -11719.22298259183299   0.004140 -11719.22298398117528        
   4     0.00000110687660 -11719.22298420709558  <-- CG                                 

=================== Finished the calculation in solvent ========================
= Adjusting the following parameters: 
= read_denskern: F
= read_tightbox_ngwfs: F
= maxit_pen: 0 (restored to user-specified value)
= restart read filename prefix: ""
= restart write filename prefix: ""
================================================================================

================================================================================
IS: Calculation in solvent completed (NGWFs converged).      

Individual components of total energy in solvent:     hartree           kcal/mol
- Usual non-electrostatic DFT terms:    -12957.50844275296549    -8130959.131678
- Electrostatic fixed charge energy:      1237.63415291574029      776627.139530
- Apolar cavitation energy:                  2.31719516189252        1454.061886
- Apolar dispersion-repulsion energy:       -1.66588953176358       -1045.361441
 -------------------------------------------------------------------------------
- Total energy in solvent:              -11719.22298420709558    -7353923.291704

Components of total energy in solvent:                hartree           kcal/mol
- Usual non-electrostatic DFT terms:    -12957.50844275296549    -8130959.131678
- Electrostatic energy:                   1237.63415291574029      776627.139530
- Apolar energy terms:                       0.65130563012894         408.700445
 -------------------------------------------------------------------------------
- Total energy in solvent:              -11719.22298420709558    -7353923.291704

Calculation of free energy of solvation:              hartree           kcal/mol
- Total energy in solvent:         (+)  -11719.22298420709558    -7353923.291704
- Total energy in vacuum:          (-)  -11715.17208746657707    -7351381.315676
 -------------------------------------------------------------------------------
- Total free energy of solvation:           -4.05089674051851       -2541.976028

Components of polar term in f.e. of solvation:        hartree           kcal/mol
- Electrostatic:                            -5.05193909560739       -3170.139576
- Change in nonelectrostatic DFT terms:      0.34973672495835         219.463104
 -------------------------------------------------------------------------------
- Polar term in f.e. of solvation:          -4.70220237064905       -2950.676473

Components of free energy of solvation:               hartree           kcal/mol
- Polar term in f.e. of solvation: (+)      -4.70220237064905       -2950.676473
- Apolar (cavitation, dis., rep.): (+)       0.65130563012894         408.700445
 -------------------------------------------------------------------------------
- Total free energy of solvation:           -4.05089674052011       -2541.976028
================================================================================


------------------------------ TIMING INFORMATION ------------------------------
AVERAGE TIME:   73979.189s on     40 node(s)                                    
TOTAL TIME:     73979.190s on     40 node(s)                                    
================= AVERAGE TIMINGS FROM ALL NODES (CUMULATIVE) ==================
|| TAG                                    #calls    cpu time   %total  Gflops ||
|| work_imbalance                       :     1        0.00s   0.000%  ------ ||
|| parallel_prepare_fd_halos_request    :  2193        0.02s   0.000%  ------ ||
|| sparse_set_to_garbage                :   239        0.06s   0.000%  ------ ||
|| parallel_prepare_fd_halos_alloc      :  2193        0.06s   0.000%  ------ ||
|| parallel_prepare_fd_halos_satisfy    :  2193        0.07s   0.000%  ------ ||
|| ngwfs_initialise_from_radial         :     1        0.17s   0.000%  ------ ||
|| basis_extract_function_from_box      :  6056        0.24s   0.000%  ------ ||
|| restart_ngwfs_tightbox_input         :     1        1.38s   0.002%  ------ ||
|| pseudopotentials_nonlocal_mat        :    35        1.69s   0.002%  ------ ||
|| parallel_prepare_fd_halos_comms_imbal:  2193        3.41s   0.005%  ------ ||
|| openbc_locps_radial                  :     1        5.60s   0.008%  ------ ||
|| density_init_guess_real              :     1        6.25s   0.008%  ------ ||
|| restart_kernel_read                  :     1        7.74s   0.010%  ------ ||
|| parallel_prepare_fd_halos_clear      :  2193       15.82s   0.021%  ------ ||
|| sparse_init                          :     2       22.78s   0.031%  ------ ||
|| restart_kernel_write                 :    19       23.78s   0.032%  ------ ||
|| projectors_func_ovlp_box             :    35       27.16s   0.037%  ------ ||
|| parallel_prepare_fd_halos_comms_wait :  2193       27.90s   0.038%  ------ ||
|| projectors_init_fftbox_recip         :   233       31.13s   0.042%  ------ ||
|| function_ops_brappd_ketppd           :    35       31.38s   0.042%  ------ ||
|| palser_mano_kernel_optimise          :     1       43.48s   0.059%  ------ ||
|| parallel_prepare_fd_halos            :  2193       47.28s   0.064%  ------ ||
|| pseudo_make_structure_factor         :     2       61.53s   0.083%  ------ ||
|| ngwf_gradient_coeffs                 :    18       72.20s   0.098%  ------ ||
|| restart_ngwfs_tightbox_output        :    16       99.47s   0.134%  ------ ||
|| sparse_embed_hotelling_invert_embed  :    35      106.45s   0.144%  ------ ||
|| basis_copy_function_to_box           : 187.9k     124.17s   0.168%  ------ ||
|| finite_difference_derivative         :  2193      125.48s   0.170%  ------ ||
|| integrals_kinetic                    :    35      206.79s   0.280%  ------ ||
|| openbc_locps_on_grid                 :     2      211.99s   0.287%  ------ ||
|| projectors_gradient_batch            :   198      235.08s   0.318%  ------ ||
|| sparse_trace                         :  5546      285.86s   0.386%  ------ ||
|| fourier_apply_box_pair               : 52989      350.48s   0.474% 583.522 ||
|| kernel_purify                        :   558      400.92s   0.542%  ------ ||
|| basis_dot_function_with_box          : 21.39M     422.93s   0.572%  ------ ||
|| kernel_fix                           :   180      637.78s   0.862%  ------ ||
|| lnv_gradient_norm                    :   180      652.78s   0.882%  ------ ||
|| hamiltonian_energy_components        :     4      723.53s   0.978%  ------ ||
|| integrals_locpot_mat_els_batch       :  2079     1029.62s   1.392%  ------ ||
|| basis_add_function_to_box            : 57.30M    1087.56s   1.470%  ------ ||
|| ke_density_batch_grad_apply          :  4004     1153.16s   1.559%  ------ ||
|| ke_density_batch_row_sums            :  4004     1438.21s   1.944%  ------ ||
|| density_batch_row_sums               :  4004     1442.33s   1.950%  ------ ||
|| fourier_apply_cell_backward          :  9835     1704.97s   2.305%  84.521 ||
|| density_fftbox_deposit_to_cell       : 59696     1738.30s   2.350%  ------ ||
|| ke_density_fftbox_deposit_to_cell    : 59696     1919.08s   2.594%  ------ ||
|| fourier_apply_cell_forward           :  9833     1947.94s   2.633%  73.964 ||
|| cell_grid_deposit_box_real           : 121.7k    2144.75s   2.899%  ------ ||
|| sparse_product                       :  7235     2403.66s   3.249%  ------ ||
|| cell_grid_extract_box_real           : 149.9k    2454.71s   3.318%  ------ ||
|| ngwf_gradient_build_batch            :   198     2656.76s   3.591%  ------ ||
|| multigrid_prepare_bound_cond         :   365     2925.62s   3.955%  ------ ||
|| ngwf_gradient_batch                  :   198     3002.68s   4.059%  ------ ||
|| ngwf_gradient_lnv                    :    18     3199.07s   4.324%  ------ ||
|| potential_apply_to_ngwf_batch        :  2079     3677.12s   4.970%  ------ ||
|| density_fftbox_interpolate_multiply  : 59696     4115.34s   5.563%  ------ ||
|| integrals_locpot_dbl_grid            :   189     4732.14s   6.397%  ------ ||
|| xc_energy_potential                  :   365     4945.91s   6.686%  ------ ||
|| density_batch_interp_deposit         :  4004     6562.36s   8.871%  ------ ||
|| dl_mg_solver_calls                   :   365     7892.91s  10.669%  ------ ||
|| nlxc_vdw_energy                      :   728     8233.53s  11.130%  ------ ||
|| density_on_dbl_grid                  :   364     8476.21s  11.458%  ------ ||
|| potential_apply_to_fftbox_batch      :  5940     9894.38s  13.375%  ------ ||
|| multigrid_calculate_hartree          :   365    10996.78s  14.865%  ------ ||
|| integrals_div_locpot_grad_functions  :   180    14899.80s  20.141%  ------ ||
|| ke_density_fftbox_interpolate_multipl: 59696    16353.53s  22.106%  ------ ||
|| ke_density_batch_interp_deposit      :  4004    18992.55s  25.673%  ------ ||
|| fourier_apply_box                    : 1.355M   21464.92s  29.015% 806.478 ||
|| ke_density_on_dbl_grid               :   364    22102.40s  29.877%  ------ ||
|| hamiltonian_lhxc_calculate           :   360    46553.06s  62.927%  ------ ||
|| lnv_denskernel_optimise_cg           :    18    66353.73s  89.692%  ------ ||
|| ngwf_cg_optimise                     :     2    73113.82s  98.830%  ------ ||
|| total_time                           :     1    73979.19s 100.000%  ------ ||
================================================================================
Overhead of generating timer report: 
- 0 ms averaging over threads,
- 7 ms ensuring consistency across MPI ranks,
- 2 ms printing in order.

Job completed: 24-02-2020 06:43 (-0000)

