 +---------------------------------------------------------------+
 |                                                               |
 |        ####### #     # ####### ####### ####### ######         |
 |        #     # ##    # #          #    #       #     #        |
 |        #     # # #   # #          #    #       #     #        |
 |        #     # #  #  # #####      #    #####   ######         |
 |        #     # #   # # #          #    #       #              |
 |        #     # #    ## #          #    #       #              |
 |        ####### #     # #######    #    ####### #              |
 |                                                               |
 |        Linear-Scaling Ab Initio Total Energy Program          |
 |                                                               |
 |          Release for academic collaborators of ODG            |
 |                                             Version 5.3.2.6.  |
 |                                                               |
 +---------------------------------------------------------------+
 |                                                               |
 |  Authors:                                                     |
 |  Jacek Dziedzic, Peter D. Haynes, Nicholas D. M. Hine,        |
 |  Arash. A. Mostofi, Mike C. Payne and Chris-Kriton Skylaris   |
 |                                                               |
 |  Contributors:                                                |
 |  J. Aarons, L. Andrinopoulos, P. W. Avraam, R. A. Bell,       |
 |  A. Bhandari, G. A. Bramley, R. J. Charlton, S. J. Clark,     |
 |  R. J. Clements, G. C. Constantinescu, F. Corsetti,           |
 |  N. Corsini, O. Dieguez, S. M. M. Dubois, K. K. B. Duff,      |
 |  J. M. Escartin, A. Greco, H. Helal, Q. O. Hill, L. P. Lee,   |
 |  J.-H. Li, E. B. Linscott, G. Moynihan, D. D. O`Regan,        |
 |  O. K. Okan, M. J. S. Phipps, C. J. Pickard,                  |
 |  J. C. A. Prentice, M. I. J. Probert, L. E. Ratcliff,         |
 |  M. Robinson, A. Ruiz Serrano, J. S. Spencer, E. W. Tait,     |
 |  G. Teobaldi, D. Turban, V. Vitale, K. A. Wilkinson,          |
 |  C. Weber, J. C. Womack, N. Yeung and T. J. Zuehlsdorff       |
 |                                                               |
 |                                   Copyright (c) 2004-2019     |
 |                                                               |
 |  Please cite:                                                 |
 |  "Introducing ONETEP: Linear-scaling density functional       |
 |   simulations on parallel computers".                         |
 |   C.-K. Skylaris, P. D. Haynes, A. A. Mostofi, M. C. Payne.   |
 |   J. Chem. Phys. 122 084119 (2005).                           |
 |                                                               |
 |          in all publications arising from your use of ONETEP. |
 |                                                               |
 +---------------------------------------------------------------+
 |                                                               |
 |   ONETEP is based on developments described in the following  |
 |   publications:                                               |
 |                                                               |
 |  "Nonorthogonal generalized Wannier function pseudopotential  |
 |   plane-wave method".                                         |
 |   C.-K. Skylaris, A. A. Mostofi, P. D. Haynes, O. Dieguez,    |
 |   M. C. Payne.                                                |
 |   Phys. Rev. B 66 035119 (2002).                              |
 |                                                               |
 |  "Preconditioned iterative minimization for linear-scaling    |
 |   electronic structure calculations".                         |
 |   A. A. Mostofi, P. D. Haynes, C.-K. Skylaris, M. C. Payne.   |
 |   J. Chem. Phys. 119(17), pp.8842-8848 (2003).                |
 |                                                               |
 |  "Total-energy calculations on a real space grid with         |
 |   localized functions and a plane-wave basis".                |
 |   A. A. Mostofi, C.-K. Skylaris, P. D. Haynes, M. C. Payne.   |
 |   Comput. Phys. Commun. 147, pp.788-802 (2002).               |
 |                                                               |
 |  "Accurate kinetic energy evaluation in electronic structure  |
 |   calculations with localized functions on real space grids"  |
 |   C.-K. Skylaris, A. A. Mostofi, P. D. Haynes, C. J. Pickard, |
 |   M. C. Payne.                                                |
 |   Comput. Phys. Commun. 140, pp.315-322 (2001).               |
 |                                                               |
 |  "Accurate ionic forces and geometry optimization in linear-  |
 |   scaling density-functional theory with local orbitals"      |
 |   N. D. M. Hine, M. Robinson, P. D. Haynes, C.-K. Skylaris,   |
 |   M. C. Payne, and A. A. Mostofi.                             |
 |   Phys. Rev. B 83 195102 (2011).                              |
 |                                                               |
 +---------------------------------------------------------------+

Job started: 26-01-2020 02:09 (-0000)
 
Reading parameters from file "complex_21001.dat" ...... done

If your calculation crashes here, before "Checking processes and threads..."
is displayed, then your stack size is insufficient.
If so, use "ulimit -s unlimited" at runtime.
You can disable this check with "check_stack_size F".

Checking processes and threads...
   Determining the default number of threads...
      No default threads set at compilation time: defaulting to 1.
      OpenMP library call suggests 4 threads.
      Hybrid MPI-OpenMP compilation detected.
      Number of MPI processes > 1.
      OMP_NUM_THREADS environment variable present and
      its value matches the one obtained from the OpenMP library call.
      Using this value as default.
      Default threads: 4
      Default applies to threads_max and threads_num_fftboxes.
      Settings in the input file override this default.
   ... done

   Running with 40 MPI processes.
   There are 10 MPI processes running on the same node as the root process.
   Each MPI process is using: 
               1 threads for simulation cell FFTs.
               1 threads for parallel FFT box operations.
               4 threads for loops over batched FFT box operations.
               4 threads in other parallel regions.
... done

Basic input checks...... done

Reading geometry and species blocks from file "complex_21001.dat" ...
  <species_atomic_set> block not found: NGWF initialisation set to SOLVE
IS: Dielectric excluded regions:
    - NONE.
    
  Number of PPD points along a3 set to 1.  This is 
  the default value, it may have been provided also in the input file.
... done
 Writing xyz coordinates to file "complex_21001.xyz" ... done


--------------------------------------------------------------------------------
---------------------------------- INPUT FILE ----------------------------------
--------------------------------------------------------------------------------

cutoff_energy       : 800 eV                                                    
xc_functional B97M-V                                                            
task SINGLEPOINT                                                                
write_xyz true                                                                  
output_detail VERBOSE                                                           
ngwf_threshold_orig : 0.000002                                                  
kernel_cutoff       : 1000                                                      
k_zero              : 3.5                                                       
elec_cg_max 0                                                                   
occ_mix 1.0                                                                     
dispersion 0                                                                    
maxit_ngwf_cg 40                                                                
minit_lnv 10                                                                    
maxit_lnv 10                                                                    
write_denskern T                                                                
write_tightbox_ngwfs T                                                          
charge 9                                                                        
is_implicit_solvent T                                                           
is_auto_solvation T                                                             
is_include_apolar T                                                             
is_smeared_ion_rep T                                                            
is_solvent_surf_tension 4.7624E-5 Ha/bohr**2                                    
is_apolar_scaling_factor 0.281075                                               
is_solvation_beta 1.3                                                           
is_density_threshold 0.00035                                                    
is_bulk_permittivity 78.54                                                      
is_dielectric_model fix_initial                                                 
is_smeared_ion_width 0.8                                                        
mg_defco_fd_order 8                                                             
is_bc_coarseness 10                                                             
is_bc_surface_coarseness 1                                                      
fine_grid_scale 2.0                                                             
%block species                                                                  
N   N   7 4 8.0                                                                 
H   H   1 1 8.0                                                                 
C   C   6 4 8.0                                                                 
S   S  16 9 8.0                                                                 
O   O   8 4 8.0                                                                 
F   F   9 9 8.0                                                                 
%endblock species                                                               
%block species_pot                                                              
N   N_00.recpot                                                                 
H   H_04.recpot                                                                 
C   C_01.recpot                                                                 
S   S_00.recpot                                                                 
O   O_02.recpot                                                                 
F   F_00.recpot                                                                 
%endblock species_pot                                                           
%block lattice_cart                                                             
139.898   0.000   0.000                                                         
0.000 144.87   0.000                                                            
0.000   0.000   168.12                                                          
%endblock lattice_cart                                                          
%block positions_abs                                                            
     Hash =  -000004410998618310897015
%endblock positions_abs                                                         

--------------------------------------------------------------------------------
-------------------------------- END INPUT FILE --------------------------------
--------------------------------------------------------------------------------


 
 ESDF WARNING(1): "kernelcutoff" (esdf_physical) has no units. Assume "bohr".
 ESDF WARNING(2): "kzero" (esdf_physical) has no units. Assume "1/bohr".
 ESDF WARNING(3
 ): "issmearedionwidth" (esdf_physical) has no units. Assume "bohr".
<<<<<<<<<<<<<<<<<<<<<<<<<<<<<<<<< Full system >>>>>>>>>>>>>>>>>>>>>>>>>>>>>>>>>>
<<<<<<<<<<<<<<<<<<<<<<<<< Pseudopotential information >>>>>>>>>>>>>>>>>>>>>>>>>>
File: N_00.recpot [ 2001 points up to Gmax=  52.9 (1/bohr)]
  Atomic number:  7;  ionic charge:  5.000000
    Shell 1: l = 0; rc = 1.48 bohr
File: H_04.recpot [ 2001 points up to Gmax=  52.9 (1/bohr)]
  Atomic number:  1;  ionic charge:  1.000000
    Local potential
File: C_01.recpot [ 2001 points up to Gmax=  52.9 (1/bohr)]
  Atomic number:  6;  ionic charge:  4.000000
    Shell 1: l = 0; rc = 1.48 bohr
File: S_00.recpot [ 2001 points up to Gmax=  52.9 (1/bohr)]
  Atomic number: 16;  ionic charge:  6.000000
    Shell 1: l = 0; rc = 1.90 bohr
    Shell 2: l = 2; rc = 1.84 bohr
File: O_02.recpot [ 2001 points up to Gmax=  52.9 (1/bohr)]
  Atomic number:  8;  ionic charge:  6.000000
    Shell 1: l = 0; rc = 1.31 bohr
File: F_00.recpot [ 2001 points up to Gmax=  52.9 (1/bohr)]
  Atomic number:  9;  ionic charge:  7.000000
    Shell 1: l = 0; rc = 1.60 bohr
<<<<<<<<<<<<<<<<<<<<<<<<<<<<<<<<<<<<<<<<>>>>>>>>>>>>>>>>>>>>>>>>>>>>>>>>>>>>>>>>

-------------------------- Atom counting information ---------------------------
Symbol    Natoms    Nngwfs    Nprojs
  N        237       948       237
  H       1317      1317         0
  C        816      3264       816
  S          6        54        36
  O        239       956       239
  F          1         9         1
.......   ......    ......    ......
Totals:   2616      6548      1329
--------------------------------------------------------------------------------

=============================== PSINC grid sizes ===============================
                      Simulation cell:  275 x 286 x 336
                              FFT-box:   99 x  99 x  99
                                  PPD:    5 x  11 x   1
Grid space d1=  0.508720000000a0 (KE cutoff=  29.35259Eh = 798.72452eV)
Grid space d2=  0.506538461538a0 (KE cutoff=  29.60596Eh = 805.61916eV)
Grid space d3=  0.500357142857a0 (KE cutoff=  30.34197Eh = 825.64705eV)
================================================================================

********************* Fourier parallelisation information **********************
       Coarse grid (whole simulation cell) dimensions:    275   286   336
          Real-space ('12') slabs/node (min max mean):      8     9     8
         Recip-space ('23') slabs/node (min max mean):      3     4     3
********************************************************************************

********************* Fourier parallelisation information **********************
       Double grid (whole simulation cell) dimensions:    550   572   672
          Real-space ('12') slabs/node (min max mean):     16    17    16
         Recip-space ('23') slabs/node (min max mean):      6     7     6
********************************************************************************
ONETEP fine grid is 550 x 572 x 672 gridpoints, 139.8980 x 144.8700 x 168.1200 bohr.
FD multigrid is     545 x 569 x 665 gridpoints, 138.6262 x 144.1102 x 166.3688 bohr.


Calculating local pseudopotential in open BC on a radial grid ...
Discrepancy between calculated realspace psloc and -Z/x on [5a0,262.342a0]:
max |rel. diff| # avg |rel. diff| #  avg rel. diff #  f # pseudopotential file
 0.000258413739    0.000003708905   0.000000070960   56  'N_00.recpot'
 0.000398954828    0.000016185045  -0.000000074508   56  'H_04.recpot'
 0.000375346405    0.000017198923   0.000000144535   56  'C_01.recpot'
 0.000466850533    0.000020125278   0.000000461745   56  'S_00.recpot'
 0.000671508953    0.000026045986   0.000000155458   56  'O_02.recpot'
 0.002873965647    0.000134299806   0.000000884984   56  'F_00.recpot'
... done
 WARNING: meta-GGA functionality under development.
          Using this functional is experimental.
          Minimum tau threshold, xc_min_tau =   1.00000000E-12
 WARNING: Using alternative XC functional PBE for 
          radial densities (xc_radial).

Atom SCF Calculation for N  : Z (AE atom) =   7 : Z (PS atom) =   5
Config String:
Orbitals (num,occ):  2     2.00 3.00
Orbitals   (num,l):  2        0    1
Real-space Grid (nr,dr,rmax): 1203    0.0066555740    8.0000000000
Spherical Bessel Basis (nsws,lmax,cutoff):   47    1  176.3951722778
Confining potential (l,width,scale):  0    3.0000000000  100.0000000000
Confining potential (l,width,scale):  1    3.0000000000  100.0000000000
  1         -4.7312375307   -3.4155304497    7.0523828109   -1.9351020946
  2         -9.7309464766   -2.0532547791    8.2966052865   -2.2494486027
  3         -9.6627394379   -2.1124926340    8.2327997121   -2.2369778124
  4         -9.6814993499   -2.1215521045    8.2229805960   -2.2365178421
  5         -9.6843326483   -2.1250939529    8.2191374534   -2.2362718126
  6         -9.6859628709   -2.1267894855    8.2172963573   -2.2362066344
  7         -9.6867347035   -2.1276425665    8.2163697352   -2.2361903369
  8         -9.6870802100   -2.1280764625    8.2158983890   -2.2361891460
  9         -9.6872290423   -2.1282977424    8.2156580222   -2.2361920435
 10         -9.6872901988   -2.1284107021    8.2155353368   -2.2361953393
 11         -9.6873135296   -2.1284684031    8.2154726809   -2.2361979819
 12         -9.6873212476   -2.1284978948    8.2154406648   -2.2361998431
 13         -9.6873229586   -2.1285129774    8.2154242957   -2.2362010676
 14         -9.6873226456   -2.1285206957    8.2154159216   -2.2362018403
 15         -9.6873218534   -2.1285246479    8.2154116349   -2.2362023142
 16         -9.6873212599   -2.1285262679    8.2154098784   -2.2362025420
 17         -9.6873207834   -2.1285272564    8.2154088068   -2.2362026955
 18         -9.6873204210   -2.1285278597    8.2154081529   -2.2362027982
 19         -9.6873201550   -2.1285282280    8.2154077538   -2.2362028667
 20         -9.6873199645   -2.1285284529    8.2154075102   -2.2362029121
 21         -9.6873198305   -2.1285285903    8.2154073614   -2.2362029421
 22         -9.6873197377   -2.1285286742    8.2154072705   -2.2362029618
Atom SCF converged after  22 iterations to a total energy of     -9.68731974

Atom SCF Calculation for H  : Z (AE atom) =   1 : Z (PS atom) =   1
Config String:
Orbitals (num,occ):  1     1.00
Orbitals   (num,l):  1        0
Real-space Grid (nr,dr,rmax): 1203    0.0066555740    8.0000000000
Spherical Bessel Basis (nsws,lmax,cutoff):   47    0  176.3951722778
Confining potential (l,width,scale):  0    3.0000000000  100.0000000000
  1         -0.3194257691   -0.2393854593    0.2820953124   -0.2424203209
  2         -0.3951823392   -0.2377116493    0.2886404059   -0.2475147891
  3         -0.4317044583   -0.2352244387    0.2921333887   -0.2514046172
  4         -0.4470703708   -0.2341892222    0.2934391879   -0.2531009782
  5         -0.4532132900   -0.2338556667    0.2938388426   -0.2537313520
  6         -0.4556579251   -0.2337612552    0.2939448584   -0.2539550462
  7         -0.4566418315   -0.2337377355    0.2939680120   -0.2540342273
  8         -0.4570437922   -0.2337331116    0.2939708287   -0.2540627372
  9         -0.4572102946   -0.2337328328    0.2939698291   -0.2540732650
 10         -0.4572800424   -0.2337332404    0.2939687193   -0.2540772588
 11         -0.4573095100   -0.2337335791    0.2939680317   -0.2540788122
 12         -0.4573220379   -0.2337337762    0.2939676699   -0.2540794294
 13         -0.4573273880   -0.2337338775    0.2939674931   -0.2540796787
 14         -0.4573296803   -0.2337339266    0.2939674099   -0.2540797808
 15         -0.4573306647   -0.2337339495    0.2939673718   -0.2540798230
 16         -0.4573310882   -0.2337339601    0.2939673545   -0.2540798406
 17         -0.4573312706   -0.2337339649    0.2939673467   -0.2540798479
 18         -0.4573313493   -0.2337339670    0.2939673433   -0.2540798510
Atom SCF converged after  18 iterations to a total energy of     -0.45733135

Atom SCF Calculation for C  : Z (AE atom) =   6 : Z (PS atom) =   4
Config String:
Orbitals (num,occ):  2     2.00 2.00
Orbitals   (num,l):  2        0    1
Real-space Grid (nr,dr,rmax): 1203    0.0066555740    8.0000000000
Spherical Bessel Basis (nsws,lmax,cutoff):   47    1  176.3951722778
Confining potential (l,width,scale):  0    3.0000000000  100.0000000000
Confining potential (l,width,scale):  1    3.0000000000  100.0000000000
  1         -5.2976922011   -1.3069684169    4.5135249990   -1.4493313817
  2         -5.3721716256   -1.3429755895    4.4750154450   -1.4361613026
  3         -5.3809959565   -1.3617365618    4.4541655428   -1.4305930207
  4         -5.3918938866   -1.3667928461    4.4484735100   -1.4294652294
  5         -5.3956096428   -1.3688539142    4.4461376126   -1.4290734646
  6         -5.3968271862   -1.3696852393    4.4451910874   -1.4289366866
  7         -5.3972028401   -1.3700178062    4.4448112275   -1.4288900460
  8         -5.3973067903   -1.3701500158    4.4446598370   -1.4288749220
  9         -5.3973286940   -1.3702023868    4.4445997329   -1.4288704293
 10         -5.3973289850   -1.3702230869    4.4445759233   -1.4288693188
 11         -5.3973254264   -1.3702312560    4.4445665049   -1.4288691775
 12         -5.3973224003   -1.3702344755    4.4445627836   -1.4288692549
 13         -5.3973208708   -1.3702354890    4.4445616088   -1.4288693270
 14         -5.3973198783   -1.3702360102    4.4445610034   -1.4288693814
 15         -5.3973192535   -1.3702362780    4.4445606917   -1.4288694190
 16         -5.3973188684   -1.3702364155    4.4445605313   -1.4288694437
 17         -5.3973186349   -1.3702364860    4.4445604489   -1.4288694595
 18         -5.3973184951   -1.3702365221    4.4445604065   -1.4288694693
 19         -5.3973184122   -1.3702365405    4.4445603848   -1.4288694753
Atom SCF converged after  19 iterations to a total energy of     -5.39731841

Atom SCF Calculation for S  : Z (AE atom) =  16 : Z (PS atom) =   6
Config String:
Orbitals (num,occ):  3     2.00 4.00 0.00
Orbitals   (num,l):  3        0    1    2
Real-space Grid (nr,dr,rmax): 1203    0.0066555740    8.0000000000
Spherical Bessel Basis (nsws,lmax,cutoff):   47    2  176.3951722778
Confining potential (l,width,scale):  0    3.0000000000  100.0000000000
Confining potential (l,width,scale):  1    3.0000000000  100.0000000000
Confining potential (l,width,scale):  2    3.0000000000  100.0000000000
  1        -12.4735062396   -1.0328741412   10.1554312477   -2.4512393157
  2         -9.9458301913   -2.4607392455    8.3041325857   -2.0306994528
  3        -10.1450417646   -2.2931184565    8.4831893826   -2.0812538287
  4        -10.1528335592   -2.2733105793    8.5050388867   -2.0896035179
  5        -10.1571940363   -2.2633716629    8.5160794258   -2.0939370707
  6        -10.1594380571   -2.2584938667    8.5215163935   -2.0961289008
  7        -10.1605856507   -2.2561081821    8.5241804044   -2.0972291378
  8        -10.1611799191   -2.2549395235    8.5254868240   -2.0977806248
  9        -10.1614918752   -2.2543658586    8.5261285885   -2.0980571586
 10        -10.1616572884   -2.2540839121    8.5264441898   -2.0981959233
 11        -10.1617455602   -2.2539453058    8.5265994231   -2.0982656006
 12        -10.1617928447   -2.2538772062    8.5266757320   -2.0983006047
 13        -10.1618182292   -2.2538437891    8.5267131983   -2.0983181961
 14        -10.1618318741   -2.2538274201    8.5267315620   -2.0983270391
 15        -10.1618392144   -2.2538194197    8.5267405433   -2.0983314852
 16        -10.1618431651   -2.2538155200    8.5267449245   -2.0983337210
 17        -10.1618452923   -2.2538136252    8.5267470551   -2.0983348455
 18        -10.1618464380   -2.2538127080    8.5267480875   -2.0983354110
 19        -10.1618470552   -2.2538122659    8.5267485856   -2.0983356955
 20        -10.1618473878   -2.2538120540    8.5267488248   -2.0983358386
 21        -10.1618475670   -2.2538119530    8.5267489389   -2.0983359106
 22        -10.1618476637   -2.2538119053    8.5267489929   -2.0983359468
Atom SCF converged after  22 iterations to a total energy of    -10.16184766

Atom SCF Calculation for O  : Z (AE atom) =   8 : Z (PS atom) =   6
Config String:
Orbitals (num,occ):  2     2.00 4.00
Orbitals   (num,l):  2        0    1
Real-space Grid (nr,dr,rmax): 1203    0.0066555740    8.0000000000
Spherical Bessel Basis (nsws,lmax,cutoff):   47    1  176.3951722778
Confining potential (l,width,scale):  0    3.0000000000  100.0000000000
Confining potential (l,width,scale):  1    3.0000000000  100.0000000000
  1         -1.8735052164   -7.5539365035   10.1554312477   -2.4512393157
  2        -16.0318313751   -3.1285771268   13.6395848164   -3.2358799643
  3        -15.9524020423   -3.0762819706   13.6967272503   -3.2536856837
  4        -15.8521515939   -3.0781493909   13.6951909330   -3.2561700440
  5        -15.8357139793   -3.0748501933   13.6988803334   -3.2580493133
  6        -15.8246052853   -3.0740779781   13.6997881576   -3.2588327446
  7        -15.8189019501   -3.0737449687   13.7001869911   -3.2592378801
  8        -15.8159785510   -3.0736026016   13.7003615168   -3.2594475790
  9        -15.8144776168   -3.0735437994   13.7004360379   -3.2595560735
 10        -15.8137058024   -3.0735207882   13.7004667348   -3.2596122456
 11        -15.8133083127   -3.0735125946   13.7004786868   -3.2596413656
 12        -15.8131032938   -3.0735102195   13.7004828997   -3.2596564858
 13        -15.8129973902   -3.0735099286   13.7004840891   -3.2596643505
 14        -15.8129426040   -3.0735102506   13.7004842061   -3.2596684489
 15        -15.8129142203   -3.0735106556   13.7004840157   -3.2596705887
 16        -15.8128994940   -3.0735109855   13.7004837906   -3.2596717080
 17        -15.8128918425   -3.0735112169   13.7004836103   -3.2596722946
 18        -15.8128878614   -3.0735113674   13.7004834848   -3.2596726026
 19        -15.8128857871   -3.0735114608   13.7004834035   -3.2596727646
 20        -15.8128847048   -3.0735115170   13.7004833533   -3.2596728500
 21        -15.8128841394   -3.0735115501   13.7004833231   -3.2596728951
 22        -15.8128838436   -3.0735115693   13.7004833054   -3.2596729190
 23        -15.8128836887   -3.0735115802   13.7004832951   -3.2596729316
 24        -15.8128836074   -3.0735115864   13.7004832893   -3.2596729383
Atom SCF converged after  24 iterations to a total energy of    -15.81288361

Atom SCF Calculation for F  : Z (AE atom) =   9 : Z (PS atom) =   7
Config String:
Orbitals (num,occ):  5     2.00 5.00 0.00 0.00 0.00
Orbitals   (num,l):  5        0    1    0    1    2
Real-space Grid (nr,dr,rmax): 1203    0.0066555740    8.0000000000
Spherical Bessel Basis (nsws,lmax,cutoff):   47    2  176.3951722778
Confining potential (l,width,scale):  0    3.0000000000  100.0000000000
Confining potential (l,width,scale):  1    3.0000000000  100.0000000000
Confining potential (l,width,scale):  2    3.0000000000  100.0000000000
  1          2.7613408675  -14.5815130354   13.8226703094   -2.9941905181
  2        -23.6468980113   -4.9263326541   20.5563421412   -4.3754293297
  3        -24.5333043594   -4.3845963970   21.1176052958   -4.4841731563
  4        -24.3589864791   -4.3106783108   21.1950887716   -4.4997202795
  5        -24.2648391338   -4.2783243831   21.2295118026   -4.5072738146
  6        -24.2274338603   -4.2663478973   21.2423649225   -4.5102591768
  7        -24.2052315491   -4.2595041622   21.2497430410   -4.5120310941
  8        -24.1920610535   -4.2555995140   21.2539669715   -4.5130761189
  9        -24.1842594614   -4.2533726648   21.2563826077   -4.5136908004
 10        -24.1796430262   -4.2521035456   21.2577627107   -4.5140519045
 11        -24.1769128010   -4.2513811698   21.2585501121   -4.5142639028
 12        -24.1752983031   -4.2509707627   21.2589985394   -4.5143883165
 13        -24.1743434247   -4.2507381589   21.2592533437   -4.5144613128
 14        -24.1737784708   -4.2506067164   21.2593977374   -4.5145041342
 15        -24.1734440540   -4.2505326993   21.2594793047   -4.5145292513
 16        -24.1732459871   -4.2504911905   21.2595252124   -4.5145439823
 17        -24.1731286021   -4.2504680245   21.2595509400   -4.5145526212
 18        -24.1730589855   -4.2504551689   21.2595652865   -4.5145576869
 19        -24.1730176682   -4.2504480829   21.2595732399   -4.5145606573
 20        -24.1729931274   -4.2504442088   21.2595776183   -4.5145623987
 21        -24.1729785394   -4.2504421116   21.2595800086   -4.5145634196
 22        -24.1729698603   -4.2504409903   21.2595813001   -4.5145640181
 23        -24.1729646922   -4.2504404002   21.2595819890   -4.5145643688
 24        -24.1729616119   -4.2504400960   21.2595823505   -4.5145645744
 25        -24.1729597743   -4.2504399438   21.2595825360   -4.5145646948
 26        -24.1729586769   -4.2504398706   21.2595826284   -4.5145647654
 27        -24.1729580209   -4.2504398378   21.2595826723   -4.5145648067
 28        -24.1729576283   -4.2504398249   21.2595826917   -4.5145648309
 29        -24.1729573931   -4.2504398211   21.2595826991   -4.5145648451
 30        -24.1729572521   -4.2504398214   21.2595827010   -4.5145648534
 31        -24.1729571674   -4.2504398230   21.2595827006   -4.5145648582
Atom SCF converged after  31 iterations to a total energy of    -24.17295717
 
WARNING in ngwfs_initialise: Setting radial NGWF functions for species  6 (F):
Last NGWF on atom has m = -2 and does not complete set of m-values for l = 2.
This breaks symmetry and may cause unstable NGWF optimisation and poor 
convergence. Suggest increasing number of NGWFs per atom from   9 to  13.
NB: All NGWF radial function angular momenta:     0    1    0    1    2
 

========================== Calculation in vacuum ==============================
= Adjusting the following parameters: 
= is_implicit_solvent: F
= is_include_apolar: F
= write_denskern: T
= write_tightbox_ngwfs: T
= restart read filename prefix: ""
= restart write filename prefix: "vacuum_"
===============================================================================

Determining parallel strategy ...
... using space-filling curve
... NGWF load balancing: max    164;  min    163;  average    164
... Projector load balancing: max     36;  min     31;  average     33
... done
Calculating direct Ion-Ion energy ...
Ion-Ion Energy        :    819990.13851184258237
Basis initialisation ...... NGWF spheres initialised
... Projector spheres initialised
... NGWF tight boxes initialised
... Tight-boxes gathered
... NGWF basis size (local,global):    1273440  51061460
... Nonlocal pseudopotential projector initialisation
... done

========================== Sparse matrix information ===========================
                        Overlap matrix filling:   6.63%
                        Density kernel filling: 100.00%
              NGWF-Proj overlap matrix filling:   1.75%
                    Hamiltonian matrix filling:   7.48%
                  NGWF diagonal matrix filling:   0.05%
                             KS matrix filling: 100.00% 
                           KSKS matrix filling: 100.00% 
================================================================================

Sparse matrix initialisation ... done

Generating smeared ion density ... done
Smeared ion self correction:     -14544.936866
Smeared ion non-self correction: -819942.125354
NGWF initialisation ...... done
============ Calculation of NGWF S^-1 using Hotelling algorithm ================ 
         Iteration  |  Frobenius norm and Maximum abs value    (of I-S*S_n^-1)   
               1       0.78642029E+02     0.98195311E+00
               2       0.76715880E+02     0.96438981E+00
               3       0.73621372E+02     0.93062400E+00
               4       0.69264258E+02     0.86799750E+00
               5       0.63878190E+02     0.75979697E+00
               6       0.57862900E+02     0.70234829E+00
               7       0.51863426E+02     0.66672320E+00
               8       0.46311247E+02     0.63929605E+00
               9       0.40120573E+02     0.59520448E+00
              10       0.31650700E+02     0.52009676E+00
              11       0.20946922E+02     0.41438494E+00
              12       0.10438603E+02     0.27097360E+00
              13       0.33056779E+01     0.13214104E+00
              14       0.49856907E+00     0.37378289E-01
              15       0.25831609E-01     0.33973021E-02
              16       0.22599342E-03     0.35802189E-04
              17       0.32892320E-07     0.62494832E-08
              18       0.86916221E-13     0.39968029E-14
================================================================================
Calculating local pseudopotential in open BC on the fine real space grid ...
... done

MG BCs: +ve charge blocks (gridpoints):     20736 (   16158215).
MG BCs: -ve charge blocks (gridpoints):      8076 (    1080276).
MG BCs:     Elided blocks (gridpoints):    189309 (  188981334).
MG BCs: Computational effort saved:  99.9860%.
MG BCs: Charge after coarse-graining:           -9.0002333.
MG DL_MG: Calling solver with defect correction order = 8
MG DL_MG: Solver finished
MG Hartree energy from (\int phi*rho dr):              1471.512686
MG Hartree energy from (\int eps (grad phi)^2 dr):     1470.903138
MG Discrepancy due to finite box and discretization:     -0.609548 (  -0.04142%)
MG Correction to account for finite box:                  0.454512
MG Remaining discrepancy, due to discretization:         -0.155036 (  -0.01054%)
 WARNING: xc_energy_potential using alternative initial XC functional PBE.
Up spin density kernel initialisation ... 
======= Optimisation of K by Palser-Manolopoulos canonical purification ======== 
         Iteration  |  Band structure energy |    c_n   
               1       -2545.57713107536119    0.5297343
               2       -2721.13188647119478    0.5189597
               3       -2905.20442651444500    0.5150013
               4       -3064.10300823737953    0.5256819
               5       -3166.59091131267860    0.5582718
               6       -3211.67870890386166    0.6050449
               7       -3226.94453891024796    0.6222906
               8       -3233.27102855208932    0.6216965
               9       -3236.35598356568062    0.6371397
              10       -3237.64776348287614    0.6591163
              11       -3238.16518595549223    0.6664161
              12       -3238.40186783102536    0.6425197
              13       -3238.53041404833493    0.5753806
              14       -3238.60730108707230    0.4595076
              15       -3238.63705170267713    0.3089719
              16       -3238.63861818455143    0.2834106
              17       -3238.63921206442728    0.3083521
              18       -3238.63971210718228    0.3508850
              19       -3238.64023484133531    0.4011996
              20       -3238.64072997675339    0.4516557
              21       -3238.64109942285177    0.4871305
              22       -3238.64126348471700    0.4990308
              23       -3238.64128918473716    0.4999946
              24       -3238.64128975508402    0.5000150
              25       -3238.64128975537460    0.5000150
Termination criterion satisfied: band energy change below threshold.
Final occupancy bounds: [   -0.00000000000000:    1.00000000000000]
Closest occupancy to 0.5:     1.00000000000000
================================================================================
... done

Writing density kernel to file "complex_21001.vacuum_dkn" ... done

>>> Optimising kernel for current NGWFs:
   Initial electron number for spin 1:    7234.00000000
     Final electron number for spin 1:    7234.00000000

=================== Penalty functional idempotency correction ==================
 RMS occupancy error at iteration   1:  0.000000 (step -0.5000 Ne1=   7234.0000)
            Final RMS occupancy error   :  0.000000 (Ne1=   7234.0000)
               Final occupancy bounds   : [  0.0000,  1.0000]
================================================================================

................................................................................
<<<<<<<<<<<<<< LNV (Original version) density kernel optimisation >>>>>>>>>>>>>>
~~~~~~~~~~~~~~~~~~~~~~~~~~~~~~~~~~~~~~~~~~~~~~~~~~~~~~~~~~~~~~~~~~~~~~~~~~~~~~~~
   iter  |      energy (Eh)       | rms gradient |  commutator  |   dE (Eh)
MG BCs: +ve charge blocks (gridpoints):     31749 (   17397672).
MG BCs: -ve charge blocks (gridpoints):      8394 (    1113097).
MG BCs:     Elided blocks (gridpoints):    178289 (  187709056).
MG BCs: Computational effort saved:  99.9805%.
MG BCs: Charge after coarse-graining:           -9.0009926.
MG DL_MG: Calling solver with defect correction order = 8
MG DL_MG: Solver finished
MG Hartree energy from (\int phi*rho dr):              1427.915210
MG Hartree energy from (\int eps (grad phi)^2 dr):     1427.258059
MG Discrepancy due to finite box and discretization:     -0.657151 (  -0.04602%)
MG Correction to account for finite box:                  0.459364
MG Remaining discrepancy, due to discretization:         -0.197787 (  -0.01385%)
      ideal mu1:      -0.738322266982
             Q0:  -11541.175830153865
             G0:    -127.697798565062
   RMS gradient:       0.001725770474
MG BCs: +ve charge blocks (gridpoints):     31736 (   17474669).
MG BCs: -ve charge blocks (gridpoints):      8304 (    1090995).
MG BCs:     Elided blocks (gridpoints):    178304 (  187654161).
MG BCs: Computational effort saved:  99.9806%.
MG BCs: Charge after coarse-graining:           -9.0010158.
MG DL_MG: Calling solver with defect correction order = 8
MG DL_MG: Solver finished
MG Hartree energy from (\int phi*rho dr):              1449.616793
MG Hartree energy from (\int eps (grad phi)^2 dr):     1448.975354
MG Discrepancy due to finite box and discretization:     -0.641439 (  -0.04425%)
MG Correction to account for finite box:                  0.459275
MG Remaining discrepancy, due to discretization:         -0.182164 (  -0.01257%)
     Trial step:       0.500000000000
             Q1:  -11553.742080842843
 Quadratic coef:      51.282648593553
 Linear coef   :     -63.848899282531
           Qmin:  -11561.049423130220
Quadratic minimum step length (  0.311259758581) accepted
    Initial Ne1:    7234.00000000
      Final Ne1:    7234.00000000

=================== Penalty functional idempotency correction ==================
 RMS occupancy error at iteration   1:  0.003252 (step -0.4889 Ne1=   7234.0000)
 RMS occupancy error at iteration   2:  0.000026 (step -0.5002 Ne1=   7234.0000)
            Final RMS occupancy error   :  0.000000 (Ne1=   7234.0000)
               Final occupancy bounds   : [  0.0000,  1.0000]
================================================================================

    1        -1.154117583015E+04     1.7258E-03     1.5621E-03
MG BCs: +ve charge blocks (gridpoints):     31740 (   17447546).
MG BCs: -ve charge blocks (gridpoints):      8353 (    1099523).
MG BCs:     Elided blocks (gridpoints):    178299 (  187672756).
MG BCs: Computational effort saved:  99.9806%.
MG BCs: Charge after coarse-graining:           -9.0010067.
MG DL_MG: Calling solver with defect correction order = 8
MG DL_MG: Solver finished
MG Hartree energy from (\int phi*rho dr):              1434.820307
MG Hartree energy from (\int eps (grad phi)^2 dr):     1434.173859
MG Discrepancy due to finite box and discretization:     -0.646449 (  -0.04505%)
MG Correction to account for finite box:                  0.459129
MG Remaining discrepancy, due to discretization:         -0.187320 (  -0.01306%)
      ideal mu1:      -0.779060254955
             Q0:  -11561.437635162845
             G0:     -11.446290709674
   RMS gradient:       0.000512920231
MG BCs: +ve charge blocks (gridpoints):     31742 (   17463681).
MG BCs: -ve charge blocks (gridpoints):      8327 (    1092967).
MG BCs:     Elided blocks (gridpoints):    178297 (  187663177).
MG BCs: Computational effort saved:  99.9806%.
MG BCs: Charge after coarse-graining:           -9.0010120.
MG DL_MG: Calling solver with defect correction order = 8
MG DL_MG: Solver finished
MG Hartree energy from (\int phi*rho dr):              1440.141534
MG Hartree energy from (\int eps (grad phi)^2 dr):     1439.498447
MG Discrepancy due to finite box and discretization:     -0.643087 (  -0.04465%)
MG Correction to account for finite box:                  0.458850
MG Remaining discrepancy, due to discretization:         -0.184237 (  -0.01279%)
     Trial step:       0.394499530153
             Q1:  -11564.065295938752
 Quadratic coef:       1.887895531050
 Linear coef   :      -4.515556306956
           Qmin:  -11564.137764543144
Quadratic minimum step length (  0.471791159037) accepted
    Initial Ne1:    7233.99983937
      Final Ne1:    7234.00000000

=================== Penalty functional idempotency correction ==================
 RMS occupancy error at iteration   1:  0.001560 (step -0.4940 Ne1=   7234.0000)
 RMS occupancy error at iteration   2:  0.000011 (step -0.5004 Ne1=   7234.0000)
            Final RMS occupancy error   :  0.000000 (Ne1=   7234.0000)
               Final occupancy bounds   : [  0.0000,  1.0000]
================================================================================

    2        -1.156143763516E+04     5.1292E-04     4.6428E-04    -2.0262E+01
MG BCs: +ve charge blocks (gridpoints):     31742 (   17466763).
MG BCs: -ve charge blocks (gridpoints):      8321 (    1091659).
MG BCs:     Elided blocks (gridpoints):    178297 (  187661403).
MG BCs: Computational effort saved:  99.9806%.
MG BCs: Charge after coarse-graining:           -9.0010132.
MG DL_MG: Calling solver with defect correction order = 8
MG DL_MG: Solver finished
MG Hartree energy from (\int phi*rho dr):              1441.213886
MG Hartree energy from (\int eps (grad phi)^2 dr):     1440.571404
MG Discrepancy due to finite box and discretization:     -0.642481 (  -0.04458%)
MG Correction to account for finite box:                  0.458811
MG Remaining discrepancy, due to discretization:         -0.183671 (  -0.01274%)
      ideal mu1:      -0.799647177877
             Q0:  -11564.173352170386
             G0:      -1.910370364492
   RMS gradient:       0.000209589010
MG BCs: +ve charge blocks (gridpoints):     31739 (   17467989).
MG BCs: -ve charge blocks (gridpoints):      8324 (    1091705).
MG BCs:     Elided blocks (gridpoints):    178299 (  187660131).
MG BCs: Computational effort saved:  99.9806%.
MG BCs: Charge after coarse-graining:           -9.0010134.
MG DL_MG: Calling solver with defect correction order = 8
MG DL_MG: Solver finished
MG Hartree energy from (\int phi*rho dr):              1440.519259
MG Hartree energy from (\int eps (grad phi)^2 dr):     1439.877136
MG Discrepancy due to finite box and discretization:     -0.642122 (  -0.04458%)
MG Correction to account for finite box:                  0.458646
MG Remaining discrepancy, due to discretization:         -0.183476 (  -0.01274%)
     Trial step:       0.431417883925
             Q1:  -11564.670439018053
 Quadratic coef:       0.327081092495
 Linear coef   :      -0.824167940163
           Qmin:  -11564.692529837010
Quadratic minimum step length (  0.543536139664) accepted
    Initial Ne1:    7233.99986657
      Final Ne1:    7234.00000000

=================== Penalty functional idempotency correction ==================
 RMS occupancy error at iteration   1:  0.000623 (step -0.4972 Ne1=   7234.0000)
 RMS occupancy error at iteration   2:  0.000003 (step -0.5000 Ne1=   7234.0000)
            Final RMS occupancy error   :  0.000000 (Ne1=   7234.0000)
               Final occupancy bounds   : [  0.0000,  1.0000]
================================================================================

    3        -1.156417335217E+04     2.0959E-04     1.8971E-04    -2.7357E+00
MG BCs: +ve charge blocks (gridpoints):     31741 (   17468411).
MG BCs: -ve charge blocks (gridpoints):      8322 (    1091711).
MG BCs:     Elided blocks (gridpoints):    178297 (  187659703).
MG BCs: Computational effort saved:  99.9806%.
MG BCs: Charge after coarse-graining:           -9.0010134.
MG DL_MG: Calling solver with defect correction order = 8
MG DL_MG: Solver finished
MG Hartree energy from (\int phi*rho dr):              1440.344162
MG Hartree energy from (\int eps (grad phi)^2 dr):     1439.702119
MG Discrepancy due to finite box and discretization:     -0.642043 (  -0.04458%)
MG Correction to account for finite box:                  0.458605
MG Remaining discrepancy, due to discretization:         -0.183438 (  -0.01274%)
      ideal mu1:      -0.802511953537
             Q0:  -11564.697578833904
             G0:      -0.444912512868
   RMS gradient:       0.000101334763
MG BCs: +ve charge blocks (gridpoints):     31739 (   17469039).
MG BCs: -ve charge blocks (gridpoints):      8323 (    1091615).
MG BCs:     Elided blocks (gridpoints):    178299 (  187659171).
MG BCs: Computational effort saved:  99.9806%.
MG BCs: Charge after coarse-graining:           -9.0010134.
MG DL_MG: Calling solver with defect correction order = 8
MG DL_MG: Solver finished
MG Hartree energy from (\int phi*rho dr):              1441.457364
MG Hartree energy from (\int eps (grad phi)^2 dr):     1440.815228
MG Discrepancy due to finite box and discretization:     -0.642136 (  -0.04455%)
MG Correction to account for finite box:                  0.458545
MG Remaining discrepancy, due to discretization:         -0.183591 (  -0.01274%)
     Trial step:       0.484242925824
             Q1:  -11564.815098090214
 Quadratic coef:       0.097926480657
 Linear coef   :      -0.215445736967
           Qmin:  -11564.816078103115
Quadratic minimum step length (  0.532685711387) accepted
    Initial Ne1:    7233.99996932
      Final Ne1:    7234.00000000

=================== Penalty functional idempotency correction ==================
 RMS occupancy error at iteration   1:  0.000254 (step -0.4971 Ne1=   7234.0000)
 RMS occupancy error at iteration   2:  0.000002 (step -0.5000 Ne1=   7234.0000)
            Final RMS occupancy error   :  0.000000 (Ne1=   7234.0000)
               Final occupancy bounds   : [  0.0000,  1.0000]
================================================================================

    4        -1.156469757883E+04     1.0133E-04     9.1725E-05    -5.2423E-01
MG BCs: +ve charge blocks (gridpoints):     31740 (   17469097).
MG BCs: -ve charge blocks (gridpoints):      8322 (    1091609).
MG BCs:     Elided blocks (gridpoints):    178298 (  187659119).
MG BCs: Computational effort saved:  99.9806%.
MG BCs: Charge after coarse-graining:           -9.0010134.
MG DL_MG: Calling solver with defect correction order = 8
MG DL_MG: Solver finished
MG Hartree energy from (\int phi*rho dr):              1441.569189
MG Hartree energy from (\int eps (grad phi)^2 dr):     1440.927043
MG Discrepancy due to finite box and discretization:     -0.642147 (  -0.04454%)
MG Correction to account for finite box:                  0.458539
MG Remaining discrepancy, due to discretization:         -0.183608 (  -0.01274%)
      ideal mu1:      -0.802626733502
             Q0:  -11564.816640619305
             G0:      -0.159702323794
   RMS gradient:       0.000060892045
MG BCs: +ve charge blocks (gridpoints):     31739 (   17468661).
MG BCs: -ve charge blocks (gridpoints):      8323 (    1091819).
MG BCs:     Elided blocks (gridpoints):    178299 (  187659345).
MG BCs: Computational effort saved:  99.9806%.
MG BCs: Charge after coarse-graining:           -9.0010130.
MG DL_MG: Calling solver with defect correction order = 8
MG DL_MG: Solver finished
MG Hartree energy from (\int phi*rho dr):              1441.204485
MG Hartree energy from (\int eps (grad phi)^2 dr):     1440.562205
MG Discrepancy due to finite box and discretization:     -0.642280 (  -0.04457%)
MG Correction to account for finite box:                  0.458511
MG Remaining discrepancy, due to discretization:         -0.183769 (  -0.01275%)
     Trial step:       0.507887081374
             Q1:  -11564.865161596797
 Quadratic coef:       0.032589769628
 Linear coef   :      -0.081110747120
           Qmin:  -11564.867108552751
Quadratic minimum step length (  0.632025035676) accepted
    Initial Ne1:    7233.99998681
      Final Ne1:    7234.00000000

=================== Penalty functional idempotency correction ==================
 RMS occupancy error at iteration   1:  0.000286 (step -0.4847 Ne1=   7234.0000)
 RMS occupancy error at iteration   2:  0.000005 (step -0.5000 Ne1=   7234.0000)
            Final RMS occupancy error   :  0.000000 (Ne1=   7234.0000)
               Final occupancy bounds   : [  0.0000,  1.0000]
================================================================================

    5        -1.156481664062E+04     6.0892E-05     5.5118E-05    -1.1906E-01
MG BCs: +ve charge blocks (gridpoints):     31736 (   17468616).
MG BCs: -ve charge blocks (gridpoints):      8326 (    1091859).
MG BCs:     Elided blocks (gridpoints):    178302 (  187659350).
MG BCs: Computational effort saved:  99.9806%.
MG BCs: Charge after coarse-graining:           -9.0010129.
MG DL_MG: Calling solver with defect correction order = 8
MG DL_MG: Solver finished
MG Hartree energy from (\int phi*rho dr):              1441.114877
MG Hartree energy from (\int eps (grad phi)^2 dr):     1440.472564
MG Discrepancy due to finite box and discretization:     -0.642313 (  -0.04457%)
MG Correction to account for finite box:                  0.458503
MG Remaining discrepancy, due to discretization:         -0.183809 (  -0.01275%)
      ideal mu1:      -0.802065744009
             Q0:  -11564.867000199039
             G0:      -0.122183869637
   RMS gradient:       0.000053480426
MG BCs: +ve charge blocks (gridpoints):     31737 (   17468069).
MG BCs: -ve charge blocks (gridpoints):      8325 (    1092173).
MG BCs:     Elided blocks (gridpoints):    178302 (  187659583).
MG BCs: Computational effort saved:  99.9806%.
MG BCs: Charge after coarse-graining:           -9.0010128.
MG DL_MG: Calling solver with defect correction order = 8
MG DL_MG: Solver finished
MG Hartree energy from (\int phi*rho dr):              1440.161485
MG Hartree energy from (\int eps (grad phi)^2 dr):     1439.519175
MG Discrepancy due to finite box and discretization:     -0.642310 (  -0.04460%)
MG Correction to account for finite box:                  0.458473
MG Remaining discrepancy, due to discretization:         -0.183837 (  -0.01277%)
     Trial step:       0.566566280964
             Q1:  -11564.924228540855
 Quadratic coef:       0.011996918798
 Linear coef   :      -0.069225260614
           Qmin:  -11564.966862021640
Quadratic minimum step length (  1.634615483972) accepted
    Initial Ne1:    7233.99996828
      Final Ne1:    7234.00000000

=================== Penalty functional idempotency correction ==================
 RMS occupancy error at iteration   1:  0.004062 (step -0.3092 Ne1=   7234.0000)
 RMS occupancy error at iteration   2:  0.000293 (step -0.4872 Ne1=   7234.0000)
 RMS occupancy error at iteration   3:  0.000005 (step -0.5001 Ne1=   7234.0000)
            Final RMS occupancy error   :  0.000000 (Ne1=   7234.0000)
               Final occupancy bounds   : [  0.0000,  1.0000]
================================================================================

    6        -1.156486700020E+04     5.3480E-05     4.8409E-05    -5.0360E-02
MG BCs: +ve charge blocks (gridpoints):     31743 (   17467274).
MG BCs: -ve charge blocks (gridpoints):      8329 (    1092732).
MG BCs:     Elided blocks (gridpoints):    178296 (  187659819).
MG BCs: Computational effort saved:  99.9806%.
MG BCs: Charge after coarse-graining:           -9.0010124.
MG DL_MG: Calling solver with defect correction order = 8
MG DL_MG: Solver finished
MG Hartree energy from (\int phi*rho dr):              1438.371844
MG Hartree energy from (\int eps (grad phi)^2 dr):     1437.729529
MG Discrepancy due to finite box and discretization:     -0.642315 (  -0.04466%)
MG Correction to account for finite box:                  0.458426
MG Remaining discrepancy, due to discretization:         -0.183889 (  -0.01278%)
      ideal mu1:      -0.802060122734
             Q0:  -11564.922178966459
             G0:      -0.429680472204
   RMS gradient:       0.000100106929
MG BCs: +ve charge blocks (gridpoints):     31737 (   17471159).
MG BCs: -ve charge blocks (gridpoints):      8317 (    1090291).
MG BCs:     Elided blocks (gridpoints):    178301 (  187658375).
MG BCs: Computational effort saved:  99.9806%.
MG BCs: Charge after coarse-graining:           -9.0010141.
MG DL_MG: Calling solver with defect correction order = 8
MG DL_MG: Solver finished
MG Hartree energy from (\int phi*rho dr):              1444.430849
MG Hartree energy from (\int eps (grad phi)^2 dr):     1443.788702
MG Discrepancy due to finite box and discretization:     -0.642147 (  -0.04446%)
MG Correction to account for finite box:                  0.458296
MG Remaining discrepancy, due to discretization:         -0.183851 (  -0.01273%)
     Trial step:       0.962350256175
             Q1:  -11564.991679592989
 Quadratic coef:       0.344002485968
 Linear coef   :      -0.413503112499
           Qmin:  -11565.046440295244
Quadratic minimum step length (  0.578389462975) accepted
    Initial Ne1:    7233.99998242
      Final Ne1:    7234.00000000

=================== Penalty functional idempotency correction ==================
 RMS occupancy error at iteration   1:  0.000224 (step -0.4827 Ne1=   7234.0000)
 RMS occupancy error at iteration   2:  0.000002 (step -0.5000 Ne1=   7234.0000)
            Final RMS occupancy error   :  0.000000 (Ne1=   7234.0000)
               Final occupancy bounds   : [  0.0000,  1.0000]
================================================================================

    7        -1.156492217897E+04     1.0011E-04     9.0614E-05    -5.5179E-02
MG BCs: +ve charge blocks (gridpoints):     31738 (   17469606).
MG BCs: -ve charge blocks (gridpoints):      8321 (    1091288).
MG BCs:     Elided blocks (gridpoints):    178301 (  187658931).
MG BCs: Computational effort saved:  99.9806%.
MG BCs: Charge after coarse-graining:           -9.0010134.
MG DL_MG: Calling solver with defect correction order = 8
MG DL_MG: Solver finished
MG Hartree energy from (\int phi*rho dr):              1441.999880
MG Hartree energy from (\int eps (grad phi)^2 dr):     1441.357666
MG Discrepancy due to finite box and discretization:     -0.642214 (  -0.04454%)
MG Correction to account for finite box:                  0.458351
MG Remaining discrepancy, due to discretization:         -0.183863 (  -0.01275%)
      ideal mu1:      -0.803773499215
             Q0:  -11565.047042625607
             G0:      -0.277823051263
   RMS gradient:       0.000080321065
MG BCs: +ve charge blocks (gridpoints):     31739 (   17469671).
MG BCs: -ve charge blocks (gridpoints):      8319 (    1091264).
MG BCs:     Elided blocks (gridpoints):    178299 (  187658890).
MG BCs: Computational effort saved:  99.9806%.
MG BCs: Charge after coarse-graining:           -9.0010136.
MG DL_MG: Calling solver with defect correction order = 8
MG DL_MG: Solver finished
MG Hartree energy from (\int phi*rho dr):              1441.801110
MG Hartree energy from (\int eps (grad phi)^2 dr):     1441.159326
MG Discrepancy due to finite box and discretization:     -0.641785 (  -0.04451%)
MG Correction to account for finite box:                  0.458166
MG Remaining discrepancy, due to discretization:         -0.183619 (  -0.01274%)
     Trial step:       0.746065176685
             Q1:  -11565.181362406467
 Quadratic coef:       0.072954322968
 Linear coef   :      -0.207274103828
           Qmin:  -11565.194266780289
Quadratic minimum step length (  1.059841175979) accepted
    Initial Ne1:    7233.99997880
      Final Ne1:    7234.00000000

=================== Penalty functional idempotency correction ==================
 RMS occupancy error at iteration   1:  0.002874 (step -0.3419 Ne1=   7234.0000)
 RMS occupancy error at iteration   2:  0.000107 (step -0.4947 Ne1=   7234.0000)
 RMS occupancy error at iteration   3:  0.000001 (step -0.5000 Ne1=   7234.0000)
            Final RMS occupancy error   :  0.000000 (Ne1=   7234.0000)
               Final occupancy bounds   : [  0.0000,  1.0000]
================================================================================

    8        -1.156504704263E+04     8.0321E-05     7.2704E-05    -1.2486E-01
MG BCs: +ve charge blocks (gridpoints):     31740 (   17469633).
MG BCs: -ve charge blocks (gridpoints):      8319 (    1091298).
MG BCs:     Elided blocks (gridpoints):    178298 (  187658894).
MG BCs: Computational effort saved:  99.9806%.
MG BCs: Charge after coarse-graining:           -9.0010138.
MG DL_MG: Calling solver with defect correction order = 8
MG DL_MG: Solver finished
MG Hartree energy from (\int phi*rho dr):              1441.731491
MG Hartree energy from (\int eps (grad phi)^2 dr):     1441.089858
MG Discrepancy due to finite box and discretization:     -0.641633 (  -0.04450%)
MG Correction to account for finite box:                  0.458113
MG Remaining discrepancy, due to discretization:         -0.183520 (  -0.01273%)
      ideal mu1:      -0.804044418424
             Q0:  -11565.180050389143
             G0:      -0.443252388670
   RMS gradient:       0.000105948584
========================= Kernel Line Step Protection ==========================
|  Iter |  Trial Step |   RMS Occupancy Error |   Occupancy Bounds | Accepted? |
    0        0.000000                0.000000    [ 1.0000:  0.0000]
    1        0.889219                0.014978    [ 1.5445: -0.5544]        No
    2        0.444610                0.005229    [ 1.2376: -0.2413]       Yes
================================================================================
MG BCs: +ve charge blocks (gridpoints):     31738 (   17468862).
MG BCs: -ve charge blocks (gridpoints):      8324 (    1091751).
MG BCs:     Elided blocks (gridpoints):    178300 (  187659212).
MG BCs: Computational effort saved:  99.9806%.
MG BCs: Charge after coarse-graining:           -9.0010137.
MG DL_MG: Calling solver with defect correction order = 8
MG DL_MG: Solver finished
MG Hartree energy from (\int phi*rho dr):              1440.488405
MG Hartree energy from (\int eps (grad phi)^2 dr):     1439.847239
MG Discrepancy due to finite box and discretization:     -0.641167 (  -0.04451%)
MG Correction to account for finite box:                  0.457797
MG Remaining discrepancy, due to discretization:         -0.183369 (  -0.01273%)
     Trial step:       0.444609546179
             Q1:  -11565.269283507369
 Quadratic coef:       0.107841125144
 Linear coef   :      -0.197074243370
           Qmin:  -11565.270086211163
Quadratic minimum step length (  0.406250814758) accepted
    Initial Ne1:    7233.99998583
      Final Ne1:    7234.00000000

=================== Penalty functional idempotency correction ==================
 RMS occupancy error at iteration   1:  0.004600 (step -0.2895 Ne1=   7234.0000)
 RMS occupancy error at iteration   2:  0.000222 (step -0.4876 Ne1=   7234.0000)
 RMS occupancy error at iteration   3:  0.000002 (step -0.5000 Ne1=   7234.0000)
            Final RMS occupancy error   :  0.000000 (Ne1=   7234.0000)
               Final occupancy bounds   : [  0.0000,  1.0000]
================================================================================

    9        -1.156518005039E+04     1.0595E-04     9.5901E-05    -1.3301E-01
MG BCs: +ve charge blocks (gridpoints):     31738 (   17468958).
MG BCs: -ve charge blocks (gridpoints):      8323 (    1091677).
MG BCs:     Elided blocks (gridpoints):    178300 (  187659190).
MG BCs: Computational effort saved:  99.9806%.
MG BCs: Charge after coarse-graining:           -9.0010137.
MG DL_MG: Calling solver with defect correction order = 8
MG DL_MG: Solver finished
MG Hartree energy from (\int phi*rho dr):              1440.582526
MG Hartree energy from (\int eps (grad phi)^2 dr):     1439.941299
MG Discrepancy due to finite box and discretization:     -0.641227 (  -0.04451%)
MG Correction to account for finite box:                  0.457855
MG Remaining discrepancy, due to discretization:         -0.183371 (  -0.01273%)
      ideal mu1:      -0.804391735814
   10        -1.156528459409E+04     1.0045E-04     9.0922E-05    -1.0454E-01
Finished density kernel iterations (  10)

Writing density kernel to file "complex_21001.vacuum_dkn" ... done


>>> Density kernel optimised for the current NGWF basis:
     ~~~~~~~~~~~~~~~~~~~~~~~~~~~~~~~~~~~~~~~~~~~~~~~~~~~~~~~~~~~
     Total energy                =  -1.15652845940870E+04  Eh
     Estimated bandgap           =  -2.9507E-01  Eh
     RMS occupancy error         =   3.4402E-10
     [H,K] commutator            =   9.0922E-05
     Occupancy bounds            = [  0.000:  1.000]
     ~~~~~~~~~~~~~~~~~~~~~~~~~~~~~~~~~~~~~~~~~~~~~~~~~~~~~~~~~~~




################################################################################
########################### NGWF CG iteration  001 #############################
################################################################################
****** Reciprocal space K.E. preconditioning with k_zero =  3.5000 a0^-1 *******

>>> Checking for convergence of NGWFs:   NOT CONVERGED
  ========================================================================
         NGWF RMS gradient =  1.6598E-03 >  2.0000E-06  | above tolerance
  ========================================================================

>>> Improving NGWFs using line search:
============ Calculation of NGWF S^-1 using Hotelling algorithm ================ 
         Iteration  |  Frobenius norm and Maximum abs value    (of I-S*S_n^-1)   
               1       0.24070817E+00     0.70916806E-02
               2       0.13307158E-02     0.63972738E-04
               3       0.68200719E-07     0.53123721E-08
               4       0.13378876E-12     0.67723605E-14
================================================================================
MG BCs: +ve charge blocks (gridpoints):     31212 (   17410964).
MG BCs: -ve charge blocks (gridpoints):      8335 (    1088336).
MG BCs:     Elided blocks (gridpoints):    178827 (  187720525).
MG BCs: Computational effort saved:  99.9808%.
MG BCs: Charge after coarse-graining:           -9.0010226.
MG DL_MG: Calling solver with defect correction order = 8
MG DL_MG: Solver finished
MG Hartree energy from (\int phi*rho dr):              1412.104813
MG Hartree energy from (\int eps (grad phi)^2 dr):     1411.464949
MG Discrepancy due to finite box and discretization:     -0.639864 (  -0.04531%)
MG Correction to account for finite box:                  0.457835
MG Remaining discrepancy, due to discretization:         -0.182028 (  -0.01289%)
============ Calculation of NGWF S^-1 using Hotelling algorithm ================ 
         Iteration  |  Frobenius norm and Maximum abs value    (of I-S*S_n^-1)   
               1       0.21602774E+01     0.52483396E-01
               2       0.95529051E-01     0.34251804E-02
               3       0.25685600E-03     0.15143624E-04
               4       0.32653784E-08     0.33748226E-09
               5       0.11882037E-12     0.62172489E-14
================================================================================
------------------------------- NGWF line search -------------------------------
RMS gradient                =       0.00165981571219
Trial step length           =               0.122474
Gradient along search dir.  =       -300.06520664180
Functional at step 0        =  -11565.28459408704657
Functional at step 1        =  -11599.12845363188535
Functional predicted        =  -11681.45521060024657
Selected quadratic step     =               0.774302
--------------------------- NGWF line search finished --------------------------
                                               
Writing NGWFs to file "complex_21001.vacuum_tightbox_ngwfs"....  done

>>> Optimising kernel for current NGWFs:
   Initial electron number for spin 1:    7280.00716630
     Final electron number for spin 1:    7234.00000000

=================== Penalty functional idempotency correction ==================
 RMS occupancy error at iteration   1:  0.005241 (step -0.4824 Ne1=   7234.0000)
 RMS occupancy error at iteration   2:  0.000100 (step -0.5004 Ne1=   7234.0000)
            Final RMS occupancy error   :  0.000000 (Ne1=   7234.0000)
               Final occupancy bounds   : [  0.0000,  1.0000]
================================================================================

................................................................................
<<<<<<<<<<<<<< LNV (Original version) density kernel optimisation >>>>>>>>>>>>>>
~~~~~~~~~~~~~~~~~~~~~~~~~~~~~~~~~~~~~~~~~~~~~~~~~~~~~~~~~~~~~~~~~~~~~~~~~~~~~~~~
   iter  |      energy (Eh)       | rms gradient |  commutator  |   dE (Eh)
MG BCs: +ve charge blocks (gridpoints):     25665 (   17119561).
MG BCs: -ve charge blocks (gridpoints):      8423 (    1058383).
MG BCs:     Elided blocks (gridpoints):    184380 (  188041881).
MG BCs: Computational effort saved:  99.9835%.
MG BCs: Charge after coarse-graining:           -9.0007737.
MG DL_MG: Calling solver with defect correction order = 8
MG DL_MG: Solver finished
MG Hartree energy from (\int phi*rho dr):              1282.384286
MG Hartree energy from (\int eps (grad phi)^2 dr):     1281.746756
MG Discrepancy due to finite box and discretization:     -0.637530 (  -0.04971%)
MG Correction to account for finite box:                  0.457783
MG Remaining discrepancy, due to discretization:         -0.179747 (  -0.01402%)
      ideal mu1:      -0.747471318266
             Q0:  -11680.831369733787
             G0:      -9.772753763390
   RMS gradient:       0.000477419119
MG BCs: +ve charge blocks (gridpoints):     25699 (   17126912).
MG BCs: -ve charge blocks (gridpoints):      8422 (    1056636).
MG BCs:     Elided blocks (gridpoints):    184346 (  188036277).
MG BCs: Computational effort saved:  99.9835%.
MG BCs: Charge after coarse-graining:           -9.0007710.
MG DL_MG: Calling solver with defect correction order = 8
MG DL_MG: Solver finished
MG Hartree energy from (\int phi*rho dr):              1289.135998
MG Hartree energy from (\int eps (grad phi)^2 dr):     1288.496071
MG Discrepancy due to finite box and discretization:     -0.639927 (  -0.04964%)
MG Correction to account for finite box:                  0.457082
MG Remaining discrepancy, due to discretization:         -0.182845 (  -0.01418%)
     Trial step:       0.424997635740
             Q1:  -11682.349389348645
 Quadratic coef:       2.635377629254
 Linear coef   :      -4.153397244112
           Qmin:  -11682.467824835696
Quadratic minimum step length (  0.334901531652) accepted
    Initial Ne1:    7233.99890040
      Final Ne1:    7234.00000000

=================== Penalty functional idempotency correction ==================
 RMS occupancy error at iteration   1:  0.000400 (step -0.4960 Ne1=   7234.0000)
 RMS occupancy error at iteration   2:  0.000004 (step -0.5000 Ne1=   7234.0000)
            Final RMS occupancy error   :  0.000000 (Ne1=   7234.0000)
               Final occupancy bounds   : [  0.0000,  1.0000]
================================================================================

    1        -1.168083136973E+04     4.7742E-04     4.3215E-04
MG BCs: +ve charge blocks (gridpoints):     25694 (   17125292).
MG BCs: -ve charge blocks (gridpoints):      8423 (    1057036).
MG BCs:     Elided blocks (gridpoints):    184351 (  188037497).
MG BCs: Computational effort saved:  99.9835%.
MG BCs: Charge after coarse-graining:           -9.0007716.
MG DL_MG: Calling solver with defect correction order = 8
MG DL_MG: Solver finished
MG Hartree energy from (\int phi*rho dr):              1287.469192
MG Hartree energy from (\int eps (grad phi)^2 dr):     1286.829801
MG Discrepancy due to finite box and discretization:     -0.639390 (  -0.04966%)
MG Correction to account for finite box:                  0.457220
MG Remaining discrepancy, due to discretization:         -0.182170 (  -0.01415%)
      ideal mu1:      -0.754445807914
             Q0:  -11682.465436939849
             G0:      -1.132256323800
   RMS gradient:       0.000162142160
MG BCs: +ve charge blocks (gridpoints):     25694 (   17124077).
MG BCs: -ve charge blocks (gridpoints):      8423 (    1057849).
MG BCs:     Elided blocks (gridpoints):    184351 (  188037899).
MG BCs: Computational effort saved:  99.9835%.
MG BCs: Charge after coarse-graining:           -9.0007716.
MG DL_MG: Calling solver with defect correction order = 8
MG DL_MG: Solver finished
MG Hartree energy from (\int phi*rho dr):              1287.705285
MG Hartree energy from (\int eps (grad phi)^2 dr):     1287.065913
MG Discrepancy due to finite box and discretization:     -0.639372 (  -0.04965%)
MG Correction to account for finite box:                  0.456868
MG Remaining discrepancy, due to discretization:         -0.182505 (  -0.01417%)
     Trial step:       0.377269610700
             Q1:  -11682.746147423168
 Quadratic coef:       0.146455419173
 Linear coef   :      -0.427165902493
           Qmin:  -11682.776915185725
Quadratic minimum step length (  0.550190339994) accepted
    Initial Ne1:    7233.99978992
      Final Ne1:    7234.00000000

=================== Penalty functional idempotency correction ==================
 RMS occupancy error at iteration   1:  0.000711 (step -0.4523 Ne1=   7234.0000)
 RMS occupancy error at iteration   2:  0.000021 (step -0.5000 Ne1=   7234.0000)
            Final RMS occupancy error   :  0.000000 (Ne1=   7234.0000)
               Final occupancy bounds   : [  0.0000,  1.0000]
================================================================================

    2        -1.168246543694E+04     1.6214E-04     1.4677E-04    -1.6341E+00
MG BCs: +ve charge blocks (gridpoints):     25699 (   17123575).
MG BCs: -ve charge blocks (gridpoints):      8421 (    1058183).
MG BCs:     Elided blocks (gridpoints):    184346 (  188038067).
MG BCs: Computational effort saved:  99.9835%.
MG BCs: Charge after coarse-graining:           -9.0007717.
MG DL_MG: Calling solver with defect correction order = 8
MG DL_MG: Solver finished
MG Hartree energy from (\int phi*rho dr):              1287.813010
MG Hartree energy from (\int eps (grad phi)^2 dr):     1287.173624
MG Discrepancy due to finite box and discretization:     -0.639386 (  -0.04965%)
MG Correction to account for finite box:                  0.456725
MG Remaining discrepancy, due to discretization:         -0.182662 (  -0.01418%)
      ideal mu1:      -0.756886438028
             Q0:  -11682.774839475402
             G0:      -0.436739054391
   RMS gradient:       0.000101255024
MG BCs: +ve charge blocks (gridpoints):     25699 (   17122231).
MG BCs: -ve charge blocks (gridpoints):      8427 (    1058697).
MG BCs:     Elided blocks (gridpoints):    184346 (  188038897).
MG BCs: Computational effort saved:  99.9835%.
MG BCs: Charge after coarse-graining:           -9.0007718.
MG DL_MG: Calling solver with defect correction order = 8
MG DL_MG: Solver finished
MG Hartree energy from (\int phi*rho dr):              1286.913626
MG Hartree energy from (\int eps (grad phi)^2 dr):     1286.274685
MG Discrepancy due to finite box and discretization:     -0.638941 (  -0.04965%)
MG Correction to account for finite box:                  0.456350
MG Remaining discrepancy, due to discretization:         -0.182591 (  -0.01419%)
     Trial step:       0.455598612136
             Q1:  -11682.915589398588
 Quadratic coef:       0.058227783860
 Linear coef   :      -0.198977707046
           Qmin:  -11682.944827603391
Quadratic minimum step length (  0.778442533497) accepted
    Initial Ne1:    7233.99984887
      Final Ne1:    7234.00000000

=================== Penalty functional idempotency correction ==================
 RMS occupancy error at iteration   1:  0.002483 (step -0.3555 Ne1=   7234.0000)
 RMS occupancy error at iteration   2:  0.000058 (step -0.4998 Ne1=   7234.0000)
            Final RMS occupancy error   :  0.000000 (Ne1=   7234.0000)
               Final occupancy bounds   : [ -0.0000,  1.0000]
================================================================================

    3        -1.168277483948E+04     1.0126E-04     9.1653E-05    -3.0940E-01
MG BCs: +ve charge blocks (gridpoints):     25696 (   17121251).
MG BCs: -ve charge blocks (gridpoints):      8425 (    1059189).
MG BCs:     Elided blocks (gridpoints):    184349 (  188039385).
MG BCs: Computational effort saved:  99.9835%.
MG BCs: Charge after coarse-graining:           -9.0007719.
MG DL_MG: Calling solver with defect correction order = 8
MG DL_MG: Solver finished
MG Hartree energy from (\int phi*rho dr):              1286.283905
MG Hartree energy from (\int eps (grad phi)^2 dr):     1285.645186
MG Discrepancy due to finite box and discretization:     -0.638719 (  -0.04966%)
MG Correction to account for finite box:                  0.456179
MG Remaining discrepancy, due to discretization:         -0.182540 (  -0.01419%)
      ideal mu1:      -0.757707988746
             Q0:  -11682.945541394409
             G0:      -0.238121988435
   RMS gradient:       0.000072394299
MG BCs: +ve charge blocks (gridpoints):     25693 (   17121474).
MG BCs: -ve charge blocks (gridpoints):      8424 (    1058926).
MG BCs:     Elided blocks (gridpoints):    184352 (  188039425).
MG BCs: Computational effort saved:  99.9835%.
MG BCs: Charge after coarse-graining:           -9.0007719.
MG DL_MG: Calling solver with defect correction order = 8
MG DL_MG: Solver finished
MG Hartree energy from (\int phi*rho dr):              1286.410939
MG Hartree energy from (\int eps (grad phi)^2 dr):     1285.772581
MG Discrepancy due to finite box and discretization:     -0.638358 (  -0.04962%)
MG Correction to account for finite box:                  0.456007
MG Remaining discrepancy, due to discretization:         -0.182351 (  -0.01418%)
     Trial step:       0.595531139311
             Q1:  -11683.020027921186
 Quadratic coef:       0.067322532290
 Linear coef   :      -0.141809059068
           Qmin:  -11683.020218506772
Quadratic minimum step length (  0.627217275099) accepted
    Initial Ne1:    7234.00008079
      Final Ne1:    7234.00000000

=================== Penalty functional idempotency correction ==================
 RMS occupancy error at iteration   1:  0.002447 (step -0.3563 Ne1=   7234.0000)
 RMS occupancy error at iteration   2:  0.000032 (step -0.4999 Ne1=   7234.0000)
            Final RMS occupancy error   :  0.000000 (Ne1=   7234.0000)
               Final occupancy bounds   : [ -0.0000,  1.0000]
================================================================================

    4        -1.168294554139E+04     7.2394E-05     6.5529E-05    -1.7070E-01
MG BCs: +ve charge blocks (gridpoints):     25693 (   17121490).
MG BCs: -ve charge blocks (gridpoints):      8424 (    1058911).
MG BCs:     Elided blocks (gridpoints):    184352 (  188039424).
MG BCs: Computational effort saved:  99.9835%.
MG BCs: Charge after coarse-graining:           -9.0007720.
MG DL_MG: Calling solver with defect correction order = 8
MG DL_MG: Solver finished
MG Hartree energy from (\int phi*rho dr):              1286.417004
MG Hartree energy from (\int eps (grad phi)^2 dr):     1285.778705
MG Discrepancy due to finite box and discretization:     -0.638299 (  -0.04962%)
MG Correction to account for finite box:                  0.455956
MG Remaining discrepancy, due to discretization:         -0.182343 (  -0.01417%)
      ideal mu1:      -0.759134894869
             Q0:  -11683.033589124447
             G0:      -0.139973204108
   RMS gradient:       0.000050220429
MG BCs: +ve charge blocks (gridpoints):     25694 (   17123207).
MG BCs: -ve charge blocks (gridpoints):      8425 (    1058347).
MG BCs:     Elided blocks (gridpoints):    184351 (  188038271).
MG BCs: Computational effort saved:  99.9835%.
MG BCs: Charge after coarse-graining:           -9.0007717.
MG DL_MG: Calling solver with defect correction order = 8
MG DL_MG: Solver finished
MG Hartree energy from (\int phi*rho dr):              1287.428114
MG Hartree energy from (\int eps (grad phi)^2 dr):     1286.789945
MG Discrepancy due to finite box and discretization:     -0.638168 (  -0.04957%)
MG Correction to account for finite box:                  0.455887
MG Remaining discrepancy, due to discretization:         -0.182281 (  -0.01416%)
     Trial step:       0.611168895180
             Q1:  -11683.071142523666
 Quadratic coef:       0.047993869290
 Linear coef   :      -0.085547268509
           Qmin:  -11683.071710322309
Quadratic minimum step length (  0.544692794665) accepted
    Initial Ne1:    7234.00010458
      Final Ne1:    7234.00000000

=================== Penalty functional idempotency correction ==================
 RMS occupancy error at iteration   1:  0.001624 (step -0.3934 Ne1=   7234.0000)
 RMS occupancy error at iteration   2:  0.000013 (step -0.4999 Ne1=   7234.0000)
            Final RMS occupancy error   :  0.000000 (Ne1=   7234.0000)
               Final occupancy bounds   : [ -0.0000,  1.0000]
================================================================================

    5        -1.168303358912E+04     5.0220E-05     4.5458E-05    -8.8048E-02
MG BCs: +ve charge blocks (gridpoints):     25694 (   17123017).
MG BCs: -ve charge blocks (gridpoints):      8424 (    1058410).
MG BCs:     Elided blocks (gridpoints):    184351 (  188038398).
MG BCs: Computational effort saved:  99.9835%.
MG BCs: Charge after coarse-graining:           -9.0007717.
MG DL_MG: Calling solver with defect correction order = 8
MG DL_MG: Solver finished
MG Hartree energy from (\int phi*rho dr):              1287.319117
MG Hartree energy from (\int eps (grad phi)^2 dr):     1286.680969
MG Discrepancy due to finite box and discretization:     -0.638149 (  -0.04957%)
MG Correction to account for finite box:                  0.455859
MG Remaining discrepancy, due to discretization:         -0.182290 (  -0.01416%)
      ideal mu1:      -0.760766990939
             Q0:  -11683.078843905590
             G0:      -0.050031557023
   RMS gradient:       0.000029634862
MG BCs: +ve charge blocks (gridpoints):     25692 (   17123403).
MG BCs: -ve charge blocks (gridpoints):      8426 (    1058319).
MG BCs:     Elided blocks (gridpoints):    184353 (  188038103).
MG BCs: Computational effort saved:  99.9835%.
MG BCs: Charge after coarse-graining:           -9.0007716.
MG DL_MG: Calling solver with defect correction order = 8
MG DL_MG: Solver finished
MG Hartree energy from (\int phi*rho dr):              1287.334457
MG Hartree energy from (\int eps (grad phi)^2 dr):     1286.696299
MG Discrepancy due to finite box and discretization:     -0.638158 (  -0.04957%)
MG Correction to account for finite box:                  0.455813
MG Remaining discrepancy, due to discretization:         -0.182345 (  -0.01416%)
     Trial step:       0.576974257249
             Q1:  -11683.095096077886
 Quadratic coef:       0.012614748157
 Linear coef   :      -0.028866920452
           Qmin:  -11683.095358287923
Quadratic minimum step length (  0.660158640496) accepted
    Initial Ne1:    7234.00007217
      Final Ne1:    7234.00000000

=================== Penalty functional idempotency correction ==================
 RMS occupancy error at iteration   1:  0.000989 (step -0.4286 Ne1=   7234.0000)
 RMS occupancy error at iteration   2:  0.000005 (step -0.5000 Ne1=   7234.0000)
            Final RMS occupancy error   :  0.000000 (Ne1=   7234.0000)
               Final occupancy bounds   : [ -0.0000,  1.0000]
[...]
 RMS occupancy error at iteration   1:  0.000000 (step -0.5000 Ne1=   7234.0000)
            Final RMS occupancy error   :  0.000000 (Ne1=   7234.0000)
               Final occupancy bounds   : [  0.0000,  1.0000]
================================================================================

    7        -1.171928590758E+04     7.2962E-09     6.6043E-09    -3.4925E-10

Reusing previously generated solute cavity.
MG BCs: +ve charge blocks (gridpoints):     30155 (   19374761).
MG BCs: -ve charge blocks (gridpoints):      8464 (    1036268).
MG BCs:     Elided blocks (gridpoints):    179890 (  185808796).
MG BCs: Computational effort saved:  99.9813%.
MG BCs: Charge after coarse-graining:           -9.0010283.
MG DL_MG: Calling solver with defect correction order = 8
MG DL_MG: Solver finished
MG Hartree energy from (\int phi*rho dr):              1238.000794
MG Hartree energy from (\int eps (grad phi)^2 dr):     1237.813135
MG Discrepancy due to finite box and discretization:     -0.187658 (  -0.01516%)
MG Correction to account for finite box:                  0.006265
MG Remaining discrepancy, due to discretization:         -0.181393 (  -0.01465%)
      ideal mu1:      -0.514409834428
             Q0:  -11719.285907579702
             G0:      -0.000000002427
   RMS gradient:       0.000000005669

Reusing previously generated solute cavity.
MG BCs: +ve charge blocks (gridpoints):     30155 (   19374761).
MG BCs: -ve charge blocks (gridpoints):      8464 (    1036268).
MG BCs:     Elided blocks (gridpoints):    179890 (  185808796).
MG BCs: Computational effort saved:  99.9813%.
MG BCs: Charge after coarse-graining:           -9.0010283.
MG DL_MG: Calling solver with defect correction order = 8
MG DL_MG: Solver finished
MG Hartree energy from (\int phi*rho dr):              1238.000796
MG Hartree energy from (\int eps (grad phi)^2 dr):     1237.813138
MG Discrepancy due to finite box and discretization:     -0.187658 (  -0.01516%)
MG Correction to account for finite box:                  0.006265
MG Remaining discrepancy, due to discretization:         -0.181393 (  -0.01465%)
     Trial step:       0.230833018123
             Q1:  -11719.285907579469
 Quadratic coef:       0.000000000793
 Linear coef   :      -0.000000000560
           Qmin:  -11719.285907579801
Quadratic minimum step length (  0.081538045859) accepted
    Initial Ne1:    7234.00000000
      Final Ne1:    7234.00000000

=================== Penalty functional idempotency correction ==================
 RMS occupancy error at iteration   1:  0.000000 (step -0.5000 Ne1=   7234.0000)
            Final RMS occupancy error   :  0.000000 (Ne1=   7234.0000)
               Final occupancy bounds   : [  0.0000,  1.0000]
================================================================================

    8        -1.171928590758E+04     5.6694E-09     5.1318E-09     0.0000E+00

Reusing previously generated solute cavity.
MG BCs: +ve charge blocks (gridpoints):     30155 (   19374761).
MG BCs: -ve charge blocks (gridpoints):      8464 (    1036268).
MG BCs:     Elided blocks (gridpoints):    179890 (  185808796).
MG BCs: Computational effort saved:  99.9813%.
MG BCs: Charge after coarse-graining:           -9.0010283.
MG DL_MG: Calling solver with defect correction order = 8
MG DL_MG: Solver finished
MG Hartree energy from (\int phi*rho dr):              1238.000795
MG Hartree energy from (\int eps (grad phi)^2 dr):     1237.813136
MG Discrepancy due to finite box and discretization:     -0.187658 (  -0.01516%)
MG Correction to account for finite box:                  0.006265
MG Remaining discrepancy, due to discretization:         -0.181393 (  -0.01465%)
      ideal mu1:      -0.514409833389
             Q0:  -11719.285907579586
             G0:      -0.000000002300
   RMS gradient:       0.000000004710

Reusing previously generated solute cavity.
MG BCs: +ve charge blocks (gridpoints):     30155 (   19374761).
MG BCs: -ve charge blocks (gridpoints):      8464 (    1036268).
MG BCs:     Elided blocks (gridpoints):    179890 (  185808796).
MG BCs: Computational effort saved:  99.9813%.
MG BCs: Charge after coarse-graining:           -9.0010283.
MG DL_MG: Calling solver with defect correction order = 8
MG DL_MG: Solver finished
MG Hartree energy from (\int phi*rho dr):              1238.000795
MG Hartree energy from (\int eps (grad phi)^2 dr):     1237.813137
MG Discrepancy due to finite box and discretization:     -0.187658 (  -0.01516%)
MG Correction to account for finite box:                  0.006265
MG Remaining discrepancy, due to discretization:         -0.181393 (  -0.01465%)
     Trial step:       0.137192103335
             Q1:  -11719.285907579469
 Quadratic coef:       0.000000000431
 Linear coef   :      -0.000000000316
           Qmin:  -11719.285907579644
Quadratic minimum step length (  0.050207235170) accepted
    Initial Ne1:    7234.00000000
      Final Ne1:    7234.00000000

=================== Penalty functional idempotency correction ==================
 RMS occupancy error at iteration   1:  0.000000 (step -0.5000 Ne1=   7234.0000)
            Final RMS occupancy error   :  0.000000 (Ne1=   7234.0000)
               Final occupancy bounds   : [  0.0000,  1.0000]
================================================================================

    9        -1.171928590758E+04     4.7102E-09     4.2636E-09     1.1642E-10

Reusing previously generated solute cavity.
MG BCs: +ve charge blocks (gridpoints):     30155 (   19374761).
MG BCs: -ve charge blocks (gridpoints):      8464 (    1036268).
MG BCs:     Elided blocks (gridpoints):    179890 (  185808796).
MG BCs: Computational effort saved:  99.9813%.
MG BCs: Charge after coarse-graining:           -9.0010283.
MG DL_MG: Calling solver with defect correction order = 8
MG DL_MG: Solver finished
MG Hartree energy from (\int phi*rho dr):              1238.000795
MG Hartree energy from (\int eps (grad phi)^2 dr):     1237.813136
MG Discrepancy due to finite box and discretization:     -0.187658 (  -0.01516%)
MG Correction to account for finite box:                  0.006265
MG Remaining discrepancy, due to discretization:         -0.181393 (  -0.01465%)
      ideal mu1:      -0.514409832077
   10        -1.171928590758E+04     4.1424E-09     3.7495E-09     0.0000E+00
Finished density kernel iterations (  10)

Writing density kernel to file "complex_21001.dkn" ... done


>>> Density kernel optimised for the current NGWF basis:
     ~~~~~~~~~~~~~~~~~~~~~~~~~~~~~~~~~~~~~~~~~~~~~~~~~~~~~~~~~~~
     Total energy                =  -1.17192859075796E+04  Eh
     Estimated bandgap           =   1.0960E-01  Eh
     RMS occupancy error         =   3.3071E-16
     [H,K] commutator            =   3.7495E-09
     Occupancy bounds            = [  0.000:  1.000]
     ~~~~~~~~~~~~~~~~~~~~~~~~~~~~~~~~~~~~~~~~~~~~~~~~~~~~~~~~~~~




################################################################################
########################### NGWF CG iteration  005 #############################
################################################################################
****** Reciprocal space K.E. preconditioning with k_zero =  3.5000 a0^-1 *******

>>> Checking for convergence of NGWFs: 
           ........................................................
           |         *** NGWF optimisation converged ***          |
           | RMS NGWF gradient =    0.00000111005725              |
           | Criteria satisfied:                                  |
           | -> RMS NGWF gradient lower than set threshold.       |
           ========================================================

Reusing previously generated solute cavity.
MG BCs: +ve charge blocks (gridpoints):     30155 (   19374761).
MG BCs: -ve charge blocks (gridpoints):      8464 (    1036268).
MG BCs:     Elided blocks (gridpoints):    179890 (  185808796).
MG BCs: Computational effort saved:  99.9813%.
MG BCs: Charge after coarse-graining:           -9.0010283.
MG DL_MG: Calling solver with defect correction order = 8
MG DL_MG: Solver finished
MG Hartree energy from (\int phi*rho dr):              1238.000795
MG Hartree energy from (\int eps (grad phi)^2 dr):     1237.813136
MG Discrepancy due to finite box and discretization:     -0.187658 (  -0.01516%)
MG Correction to account for finite box:                  0.006265
MG Remaining discrepancy, due to discretization:         -0.181393 (  -0.01465%)

================================================================================
           ---------------- ENERGY COMPONENTS (Eh) ----------------
           | Kinetic                    :     8453.59955791664834 |
           | Pseudo. (local,OBC,corr'd) :    -5018.02998591894629 |
           | Pseudopotential (non-local):     1456.01714106808595 |
           | Hartree (molecular)        :     1238.00079482314891 |
           | Exchange-correlation       :    -3352.60166066930560 |
           | Ion-ion (open BC)          :   819990.13851184258237 |
           | Smeared ion non-self corr. :  -819942.12535382667556 |
           | Smeared ion self corr.     :   -14544.93686558573609 |
           | Solvent cavitation energy  :        2.31949753851830 |
           | Solute-solvent dis-rep en. :       -1.66754476787927 |
           | Total                      :   -11719.28590757960228 |
           --------------------------------------------------------
           ------ LOCAL ENERGY COMPONENTS FROM MATRIX TRACES ------
           | Pseudopotential (local)    :    -5018.02998591896085 |
           | Hartree                    :    -1997.50904189131279 |
           --------------------------------------------------------
           Integrated density           :     7233.99999999819192
           Integrated density tr(KS)    :     7234.00000000000091
================================================================================


                        <<<<< CALCULATION SUMMARY >>>>>                         
|ITER|    RMS GRADIENT   |     TOTAL ENERGY    |   step   |     Epredicted              
   0     0.00004125811461 -11719.22603171016090   0.559778 -11719.27792376103571        
   1     0.00001228428192 -11719.28486175893340   0.106700 -11719.28573861668701        
   2     0.00000548327606 -11719.28586933086626   0.019708 -11719.28590159944542        
   3     0.00000247992900 -11719.28590598201845   0.004099 -11719.28590735499347        
   4     0.00000111005725 -11719.28590757958591  <-- CG                                 

=================== Finished the calculation in solvent ========================
= Adjusting the following parameters: 
= read_denskern: F
= read_tightbox_ngwfs: F
= maxit_pen: 0 (restored to user-specified value)
= restart read filename prefix: ""
= restart write filename prefix: ""
================================================================================

================================================================================
IS: Calculation in solvent completed (NGWFs converged).      

Individual components of total energy in solvent:     hartree           kcal/mol
- Usual non-electrostatic DFT terms:    -12957.93865517337326    -8131229.094042
- Electrostatic fixed charge energy:      1238.00079482314891      776857.210795
- Apolar cavitation energy:                  2.31949753851830        1455.506649
- Apolar dispersion-repulsion energy:       -1.66754476787927       -1046.400118
 -------------------------------------------------------------------------------
- Total energy in solvent:              -11719.28590757958591    -7353962.776715

Components of total energy in solvent:                hartree           kcal/mol
- Usual non-electrostatic DFT terms:    -12957.93865517337326    -8131229.094042
- Electrostatic energy:                   1238.00079482314891      776857.210795
- Apolar energy terms:                       0.65195277063903         409.106531
 -------------------------------------------------------------------------------
- Total energy in solvent:              -11719.28590757958591    -7353962.776715

Calculation of free energy of solvation:              hartree           kcal/mol
- Total energy in solvent:         (+)  -11719.28590757958591    -7353962.776715
- Total energy in vacuum:          (-)  -11715.22843072446994    -7351416.671603
 -------------------------------------------------------------------------------
- Total free energy of solvation:           -4.05747685511597       -2546.105112

Components of polar term in f.e. of solvation:        hartree           kcal/mol
- Electrostatic:                            -4.91391651966978       -3083.529104
- Change in nonelectrostatic DFT terms:      0.20448689391560         128.317460
 -------------------------------------------------------------------------------
- Polar term in f.e. of solvation:          -4.70942962575418       -2955.211643

Components of free energy of solvation:               hartree           kcal/mol
- Polar term in f.e. of solvation: (+)      -4.70942962575418       -2955.211643
- Apolar (cavitation, dis., rep.): (+)       0.65195277063903         409.106531
 -------------------------------------------------------------------------------
- Total free energy of solvation:           -4.05747685511515       -2546.105112
================================================================================


------------------------------ TIMING INFORMATION ------------------------------
AVERAGE TIME:   70559.417s on     40 node(s)                                    
TOTAL TIME:     70559.417s on     40 node(s)                                    
================= AVERAGE TIMINGS FROM ALL NODES (CUMULATIVE) ==================
|| TAG                                    #calls    cpu time   %total  Gflops ||
|| work_imbalance                       :     1        0.00s   0.000%  ------ ||
|| parallel_prepare_fd_halos_request    :  2067        0.02s   0.000%  ------ ||
|| sparse_set_to_garbage                :   225        0.05s   0.000%  ------ ||
|| parallel_prepare_fd_halos_satisfy    :  2067        0.06s   0.000%  ------ ||
|| parallel_prepare_fd_halos_alloc      :  2067        0.06s   0.000%  ------ ||
|| ngwfs_initialise_from_radial         :     1        0.17s   0.000%  ------ ||
|| basis_extract_function_from_box      :  5729        0.23s   0.000%  ------ ||
|| restart_ngwfs_tightbox_input         :     1        0.91s   0.001%  ------ ||
|| pseudopotentials_nonlocal_mat        :    33        1.52s   0.002%  ------ ||
|| density_init_guess_real              :     1        2.94s   0.004%  ------ ||
|| parallel_prepare_fd_halos_comms_imbal:  2067        3.21s   0.005%  ------ ||
|| restart_kernel_read                  :     1        5.30s   0.008%  ------ ||
|| openbc_locps_radial                  :     1        5.53s   0.008%  ------ ||
|| parallel_prepare_fd_halos_clear      :  2067       14.89s   0.021%  ------ ||
|| restart_kernel_write                 :    18       15.39s   0.022%  ------ ||
|| sparse_init                          :     2       22.67s   0.032%  ------ ||
|| projectors_func_ovlp_box             :    33       25.83s   0.037%  ------ ||
|| parallel_prepare_fd_halos_comms_wait :  2067       26.28s   0.037%  ------ ||
|| projectors_init_fftbox_recip         :   220       29.32s   0.042%  ------ ||
|| function_ops_brappd_ketppd           :    33       30.84s   0.044%  ------ ||
|| palser_mano_kernel_optimise          :     1       43.86s   0.062%  ------ ||
|| parallel_prepare_fd_halos            :  2067       44.54s   0.063%  ------ ||
|| pseudo_make_structure_factor         :     2       61.96s   0.088%  ------ ||
|| ngwf_gradient_coeffs                 :    17       68.37s   0.097%  ------ ||
|| restart_ngwfs_tightbox_output        :    15       74.69s   0.106%  ------ ||
|| sparse_embed_hotelling_invert_embed  :    33      101.29s   0.144%  ------ ||
|| basis_copy_function_to_box           : 177.3k     117.51s   0.167%  ------ ||
|| finite_difference_derivative         :  2067      118.65s   0.168%  ------ ||
|| integrals_kinetic                    :    33      194.82s   0.276%  ------ ||
|| openbc_locps_on_grid                 :     2      200.96s   0.285%  ------ ||
|| projectors_gradient_batch            :   187      222.14s   0.315%  ------ ||
|| sparse_trace                         :  5598      290.15s   0.411%  ------ ||
|| fourier_apply_box_pair               : 50040      331.96s   0.470% 581.788 ||
|| kernel_purify                        :   526      374.20s   0.530%  ------ ||
|| basis_dot_function_with_box          : 20.08M     398.22s   0.564%  ------ ||
|| lnv_gradient_norm                    :   170      601.76s   0.853%  ------ ||
|| kernel_fix                           :   170      680.53s   0.964%  ------ ||
|| hamiltonian_energy_components        :     4      730.52s   1.035%  ------ ||
|| integrals_locpot_mat_els_batch       :  1969     1003.49s   1.422%  ------ ||
|| basis_add_function_to_box            : 53.60M    1016.30s   1.440%  ------ ||
|| ke_density_batch_grad_apply          :  3773     1086.63s   1.540%  ------ ||
|| density_batch_row_sums               :  3773     1386.14s   1.964%  ------ ||
|| ke_density_batch_row_sums            :  3773     1387.05s   1.966%  ------ ||
|| density_fftbox_deposit_to_cell       : 56252     1674.32s   2.373%  ------ ||
|| fourier_apply_cell_backward          :  9268     1693.58s   2.400%  80.184 ||
|| ke_density_fftbox_deposit_to_cell    : 56252     1800.42s   2.552%  ------ ||
|| fourier_apply_cell_forward           :  9266     1955.40s   2.771%  69.433 ||
|| cell_grid_deposit_box_real           : 114.6k    2036.83s   2.887%  ------ ||
|| sparse_product                       :  7041     2303.54s   3.265%  ------ ||
|| cell_grid_extract_box_real           : 141.6k    2309.00s   3.272%  ------ ||
|| ngwf_gradient_build_batch            :   187     2508.42s   3.555%  ------ ||
|| multigrid_prepare_bound_cond         :   344     2792.13s   3.957%  ------ ||
|| ngwf_gradient_batch                  :   187     2832.42s   4.014%  ------ ||
|| ngwf_gradient_lnv                    :    17     3024.18s   4.286%  ------ ||
|| potential_apply_to_ngwf_batch        :  1969     3497.81s   4.957%  ------ ||
|| density_fftbox_interpolate_multiply  : 56252     3882.63s   5.503%  ------ ||
|| integrals_locpot_dbl_grid            :   179     4525.17s   6.413%  ------ ||
|| xc_energy_potential                  :   344     4872.32s   6.905%  ------ ||
|| density_batch_interp_deposit         :  3773     6268.86s   8.885%  ------ ||
|| dl_mg_solver_calls                   :   344     7528.83s  10.670%  ------ ||
|| nlxc_vdw_energy                      :   686     8141.84s  11.539%  ------ ||
|| density_on_dbl_grid                  :   343     8148.21s  11.548%  ------ ||
|| potential_apply_to_fftbox_batch      :  5610     9329.16s  13.222%  ------ ||
|| multigrid_calculate_hartree          :   344    10489.24s  14.866%  ------ ||
|| integrals_div_locpot_grad_functions  :   170    14113.50s  20.002%  ------ ||
|| ke_density_fftbox_interpolate_multipl: 56252    15438.73s  21.880%  ------ ||
|| ke_density_batch_interp_deposit      :  3773    17957.77s  25.451%  ------ ||
|| fourier_apply_box                    : 1.278M   20267.84s  28.724% 805.684 ||
|| ke_density_on_dbl_grid               :   343    20963.29s  29.710%  ------ ||
|| hamiltonian_lhxc_calculate           :   339    44473.71s  63.030%  ------ ||
|| lnv_denskernel_optimise_cg           :    17    63285.84s  89.692%  ------ ||
|| ngwf_cg_optimise                     :     2    69719.47s  98.810%  ------ ||
|| total_time                           :     1    70559.42s 100.000%  ------ ||
================================================================================
Overhead of generating timer report: 
- 0 ms averaging over threads,
- 7 ms ensuring consistency across MPI ranks,
- 2 ms printing in order.

Job completed: 26-01-2020 21:45 (-0000)

