 +---------------------------------------------------------------+
 |                                                               |
 |        ####### #     # ####### ####### ####### ######         |
 |        #     # ##    # #          #    #       #     #        |
 |        #     # # #   # #          #    #       #     #        |
 |        #     # #  #  # #####      #    #####   ######         |
 |        #     # #   # # #          #    #       #              |
 |        #     # #    ## #          #    #       #              |
 |        ####### #     # #######    #    ####### #              |
 |                                                               |
 |        Linear-Scaling Ab Initio Total Energy Program          |
 |                                                               |
 |          Release for academic collaborators of ODG            |
 |                                             Version 5.3.2.6.  |
 |                                                               |
 +---------------------------------------------------------------+
 |                                                               |
 |  Authors:                                                     |
 |  Jacek Dziedzic, Peter D. Haynes, Nicholas D. M. Hine,        |
 |  Arash. A. Mostofi, Mike C. Payne and Chris-Kriton Skylaris   |
 |                                                               |
 |  Contributors:                                                |
 |  J. Aarons, L. Andrinopoulos, P. W. Avraam, R. A. Bell,       |
 |  A. Bhandari, G. A. Bramley, R. J. Charlton, S. J. Clark,     |
 |  R. J. Clements, G. C. Constantinescu, F. Corsetti,           |
 |  N. Corsini, O. Dieguez, S. M. M. Dubois, K. K. B. Duff,      |
 |  J. M. Escartin, A. Greco, H. Helal, Q. O. Hill, L. P. Lee,   |
 |  J.-H. Li, E. B. Linscott, G. Moynihan, D. D. O`Regan,        |
 |  O. K. Okan, M. J. S. Phipps, C. J. Pickard,                  |
 |  J. C. A. Prentice, M. I. J. Probert, L. E. Ratcliff,         |
 |  M. Robinson, A. Ruiz Serrano, J. S. Spencer, E. W. Tait,     |
 |  G. Teobaldi, D. Turban, V. Vitale, K. A. Wilkinson,          |
 |  C. Weber, J. C. Womack, N. Yeung and T. J. Zuehlsdorff       |
 |                                                               |
 |                                   Copyright (c) 2004-2019     |
 |                                                               |
 |  Please cite:                                                 |
 |  "Introducing ONETEP: Linear-scaling density functional       |
 |   simulations on parallel computers".                         |
 |   C.-K. Skylaris, P. D. Haynes, A. A. Mostofi, M. C. Payne.   |
 |   J. Chem. Phys. 122 084119 (2005).                           |
 |                                                               |
 |          in all publications arising from your use of ONETEP. |
 |                                                               |
 +---------------------------------------------------------------+
 |                                                               |
 |   ONETEP is based on developments described in the following  |
 |   publications:                                               |
 |                                                               |
 |  "Nonorthogonal generalized Wannier function pseudopotential  |
 |   plane-wave method".                                         |
 |   C.-K. Skylaris, A. A. Mostofi, P. D. Haynes, O. Dieguez,    |
 |   M. C. Payne.                                                |
 |   Phys. Rev. B 66 035119 (2002).                              |
 |                                                               |
 |  "Preconditioned iterative minimization for linear-scaling    |
 |   electronic structure calculations".                         |
 |   A. A. Mostofi, P. D. Haynes, C.-K. Skylaris, M. C. Payne.   |
 |   J. Chem. Phys. 119(17), pp.8842-8848 (2003).                |
 |                                                               |
 |  "Total-energy calculations on a real space grid with         |
 |   localized functions and a plane-wave basis".                |
 |   A. A. Mostofi, C.-K. Skylaris, P. D. Haynes, M. C. Payne.   |
 |   Comput. Phys. Commun. 147, pp.788-802 (2002).               |
 |                                                               |
 |  "Accurate kinetic energy evaluation in electronic structure  |
 |   calculations with localized functions on real space grids"  |
 |   C.-K. Skylaris, A. A. Mostofi, P. D. Haynes, C. J. Pickard, |
 |   M. C. Payne.                                                |
 |   Comput. Phys. Commun. 140, pp.315-322 (2001).               |
 |                                                               |
 |  "Accurate ionic forces and geometry optimization in linear-  |
 |   scaling density-functional theory with local orbitals"      |
 |   N. D. M. Hine, M. Robinson, P. D. Haynes, C.-K. Skylaris,   |
 |   M. C. Payne, and A. A. Mostofi.                             |
 |   Phys. Rev. B 83 195102 (2011).                              |
 |                                                               |
 +---------------------------------------------------------------+

Job started: 23-03-2020 07:45 (-0000)
 
Reading parameters from file "complex_19481.dat" ...... done

If your calculation crashes here, before "Checking processes and threads..."
is displayed, then your stack size is insufficient.
If so, use "ulimit -s unlimited" at runtime.
You can disable this check with "check_stack_size F".

Checking processes and threads...
   Determining the default number of threads...
      No default threads set at compilation time: defaulting to 1.
      OpenMP library call suggests 4 threads.
      Hybrid MPI-OpenMP compilation detected.
      Number of MPI processes > 1.
      OMP_NUM_THREADS environment variable present and
      its value matches the one obtained from the OpenMP library call.
      Using this value as default.
      Default threads: 4
      Default applies to threads_max and threads_num_fftboxes.
      Settings in the input file override this default.
   ... done

   Running with 40 MPI processes.
   There are 10 MPI processes running on the same node as the root process.
   Each MPI process is using: 
               1 threads for simulation cell FFTs.
               1 threads for parallel FFT box operations.
               4 threads for loops over batched FFT box operations.
               4 threads in other parallel regions.
... done

Basic input checks...... done

Reading geometry and species blocks from file "complex_19481.dat" ...
  <species_atomic_set> block not found: NGWF initialisation set to SOLVE
IS: Dielectric excluded regions:
    - NONE.
    
  Number of PPD points along a3 set to 1.  This is 
  the default value, it may have been provided also in the input file.
... done
 Writing xyz coordinates to file "complex_19481.xyz" ... done


--------------------------------------------------------------------------------
---------------------------------- INPUT FILE ----------------------------------
--------------------------------------------------------------------------------

cutoff_energy       : 800 eV                                                    
xc_functional B97M-V                                                            
task SINGLEPOINT                                                                
write_xyz true                                                                  
output_detail VERBOSE                                                           
ngwf_threshold_orig : 0.000002                                                  
kernel_cutoff       : 1000                                                      
k_zero              : 3.5                                                       
elec_cg_max 0                                                                   
occ_mix 1.0                                                                     
dispersion 0                                                                    
maxit_ngwf_cg 40                                                                
minit_lnv 10                                                                    
maxit_lnv 10                                                                    
write_denskern T                                                                
write_tightbox_ngwfs T                                                          
charge 9                                                                        
is_implicit_solvent T                                                           
is_auto_solvation T                                                             
is_include_apolar T                                                             
is_smeared_ion_rep T                                                            
is_solvent_surf_tension 4.7624E-5 Ha/bohr**2                                    
is_apolar_scaling_factor 0.281075                                               
is_solvation_beta 1.3                                                           
is_density_threshold 0.00035                                                    
is_bulk_permittivity 78.54                                                      
is_dielectric_model fix_initial                                                 
is_smeared_ion_width 0.8                                                        
mg_defco_fd_order 8                                                             
is_bc_coarseness 10                                                             
is_bc_surface_coarseness 1                                                      
fine_grid_scale 2.0                                                             
%block species                                                                  
N   N   7 4 8.0                                                                 
H   H   1 1 8.0                                                                 
C   C   6 4 8.0                                                                 
S   S  16 9 8.0                                                                 
O   O   8 4 8.0                                                                 
F   F   9 9 8.0                                                                 
%endblock species                                                               
%block species_pot                                                              
N   N_00.recpot                                                                 
H   H_04.recpot                                                                 
C   C_01.recpot                                                                 
S   S_00.recpot                                                                 
O   O_02.recpot                                                                 
F   F_00.recpot                                                                 
%endblock species_pot                                                           
%block lattice_cart                                                             
139.898   0.000   0.000                                                         
0.000 144.87   0.000                                                            
0.000   0.000   168.12                                                          
%endblock lattice_cart                                                          
%block positions_abs                                                            
     Hash =   000002553045747707265072
%endblock positions_abs                                                         

--------------------------------------------------------------------------------
-------------------------------- END INPUT FILE --------------------------------
--------------------------------------------------------------------------------


 
 ESDF WARNING(1): "kernelcutoff" (esdf_physical) has no units. Assume "bohr".
 ESDF WARNING(2): "kzero" (esdf_physical) has no units. Assume "1/bohr".
 ESDF WARNING(3
 ): "issmearedionwidth" (esdf_physical) has no units. Assume "bohr".
<<<<<<<<<<<<<<<<<<<<<<<<<<<<<<<<< Full system >>>>>>>>>>>>>>>>>>>>>>>>>>>>>>>>>>
<<<<<<<<<<<<<<<<<<<<<<<<< Pseudopotential information >>>>>>>>>>>>>>>>>>>>>>>>>>
File: N_00.recpot [ 2001 points up to Gmax=  52.9 (1/bohr)]
  Atomic number:  7;  ionic charge:  5.000000
    Shell 1: l = 0; rc = 1.48 bohr
File: H_04.recpot [ 2001 points up to Gmax=  52.9 (1/bohr)]
  Atomic number:  1;  ionic charge:  1.000000
    Local potential
File: C_01.recpot [ 2001 points up to Gmax=  52.9 (1/bohr)]
  Atomic number:  6;  ionic charge:  4.000000
    Shell 1: l = 0; rc = 1.48 bohr
File: S_00.recpot [ 2001 points up to Gmax=  52.9 (1/bohr)]
  Atomic number: 16;  ionic charge:  6.000000
    Shell 1: l = 0; rc = 1.90 bohr
    Shell 2: l = 2; rc = 1.84 bohr
File: O_02.recpot [ 2001 points up to Gmax=  52.9 (1/bohr)]
  Atomic number:  8;  ionic charge:  6.000000
    Shell 1: l = 0; rc = 1.31 bohr
File: F_00.recpot [ 2001 points up to Gmax=  52.9 (1/bohr)]
  Atomic number:  9;  ionic charge:  7.000000
    Shell 1: l = 0; rc = 1.60 bohr
<<<<<<<<<<<<<<<<<<<<<<<<<<<<<<<<<<<<<<<<>>>>>>>>>>>>>>>>>>>>>>>>>>>>>>>>>>>>>>>>

-------------------------- Atom counting information ---------------------------
Symbol    Natoms    Nngwfs    Nprojs
  N        237       948       237
  H       1317      1317         0
  C        816      3264       816
  S          6        54        36
  O        239       956       239
  F          1         9         1
.......   ......    ......    ......
Totals:   2616      6548      1329
--------------------------------------------------------------------------------

=============================== PSINC grid sizes ===============================
                      Simulation cell:  275 x 286 x 336
                              FFT-box:   99 x  99 x  99
                                  PPD:    5 x  11 x   1
Grid space d1=  0.508720000000a0 (KE cutoff=  29.35259Eh = 798.72452eV)
Grid space d2=  0.506538461538a0 (KE cutoff=  29.60596Eh = 805.61916eV)
Grid space d3=  0.500357142857a0 (KE cutoff=  30.34197Eh = 825.64705eV)
================================================================================

********************* Fourier parallelisation information **********************
       Coarse grid (whole simulation cell) dimensions:    275   286   336
          Real-space ('12') slabs/node (min max mean):      8     9     8
         Recip-space ('23') slabs/node (min max mean):      3     4     3
********************************************************************************

********************* Fourier parallelisation information **********************
       Double grid (whole simulation cell) dimensions:    550   572   672
          Real-space ('12') slabs/node (min max mean):     16    17    16
         Recip-space ('23') slabs/node (min max mean):      6     7     6
********************************************************************************
ONETEP fine grid is 550 x 572 x 672 gridpoints, 139.8980 x 144.8700 x 168.1200 bohr.
FD multigrid is     545 x 569 x 665 gridpoints, 138.6262 x 144.1102 x 166.3688 bohr.


Calculating local pseudopotential in open BC on a radial grid ...
Discrepancy between calculated realspace psloc and -Z/x on [5a0,262.342a0]:
max |rel. diff| # avg |rel. diff| #  avg rel. diff #  f # pseudopotential file
 0.000258413739    0.000003708905   0.000000070960   56  'N_00.recpot'
 0.000398954828    0.000016185045  -0.000000074508   56  'H_04.recpot'
 0.000375346405    0.000017198923   0.000000144535   56  'C_01.recpot'
 0.000466850533    0.000020125278   0.000000461745   56  'S_00.recpot'
 0.000671508953    0.000026045986   0.000000155458   56  'O_02.recpot'
 0.002873965647    0.000134299806   0.000000884984   56  'F_00.recpot'
... done
 WARNING: meta-GGA functionality under development.
          Using this functional is experimental.
          Minimum tau threshold, xc_min_tau =   1.00000000E-12
 WARNING: Using alternative XC functional PBE for 
          radial densities (xc_radial).

Atom SCF Calculation for N  : Z (AE atom) =   7 : Z (PS atom) =   5
Config String:
Orbitals (num,occ):  2     2.00 3.00
Orbitals   (num,l):  2        0    1
Real-space Grid (nr,dr,rmax): 1203    0.0066555740    8.0000000000
Spherical Bessel Basis (nsws,lmax,cutoff):   47    1  176.3951722778
Confining potential (l,width,scale):  0    3.0000000000  100.0000000000
Confining potential (l,width,scale):  1    3.0000000000  100.0000000000
  1         -4.7312375307   -3.4155304497    7.0523828109   -1.9351020946
  2         -9.7309464766   -2.0532547791    8.2966052865   -2.2494486027
  3         -9.6627394379   -2.1124926340    8.2327997121   -2.2369778124
  4         -9.6814993499   -2.1215521045    8.2229805960   -2.2365178421
  5         -9.6843326483   -2.1250939529    8.2191374534   -2.2362718126
  6         -9.6859628709   -2.1267894855    8.2172963573   -2.2362066344
  7         -9.6867347035   -2.1276425665    8.2163697352   -2.2361903369
  8         -9.6870802100   -2.1280764625    8.2158983890   -2.2361891460
  9         -9.6872290423   -2.1282977424    8.2156580222   -2.2361920435
 10         -9.6872901988   -2.1284107021    8.2155353368   -2.2361953393
 11         -9.6873135296   -2.1284684031    8.2154726809   -2.2361979819
 12         -9.6873212476   -2.1284978948    8.2154406648   -2.2361998431
 13         -9.6873229586   -2.1285129774    8.2154242957   -2.2362010676
 14         -9.6873226456   -2.1285206957    8.2154159216   -2.2362018403
 15         -9.6873218534   -2.1285246479    8.2154116349   -2.2362023142
 16         -9.6873212599   -2.1285262679    8.2154098784   -2.2362025420
 17         -9.6873207834   -2.1285272564    8.2154088068   -2.2362026955
 18         -9.6873204210   -2.1285278597    8.2154081529   -2.2362027982
 19         -9.6873201550   -2.1285282280    8.2154077538   -2.2362028667
 20         -9.6873199645   -2.1285284529    8.2154075102   -2.2362029121
 21         -9.6873198305   -2.1285285903    8.2154073614   -2.2362029421
 22         -9.6873197377   -2.1285286742    8.2154072705   -2.2362029618
Atom SCF converged after  22 iterations to a total energy of     -9.68731974

Atom SCF Calculation for H  : Z (AE atom) =   1 : Z (PS atom) =   1
Config String:
Orbitals (num,occ):  1     1.00
Orbitals   (num,l):  1        0
Real-space Grid (nr,dr,rmax): 1203    0.0066555740    8.0000000000
Spherical Bessel Basis (nsws,lmax,cutoff):   47    0  176.3951722778
Confining potential (l,width,scale):  0    3.0000000000  100.0000000000
  1         -0.3194257691   -0.2393854593    0.2820953124   -0.2424203209
  2         -0.3951823392   -0.2377116493    0.2886404059   -0.2475147891
  3         -0.4317044583   -0.2352244387    0.2921333887   -0.2514046172
  4         -0.4470703708   -0.2341892222    0.2934391879   -0.2531009782
  5         -0.4532132900   -0.2338556667    0.2938388426   -0.2537313520
  6         -0.4556579251   -0.2337612552    0.2939448584   -0.2539550462
  7         -0.4566418315   -0.2337377355    0.2939680120   -0.2540342273
  8         -0.4570437922   -0.2337331116    0.2939708287   -0.2540627372
  9         -0.4572102946   -0.2337328328    0.2939698291   -0.2540732650
 10         -0.4572800424   -0.2337332404    0.2939687193   -0.2540772588
 11         -0.4573095100   -0.2337335791    0.2939680317   -0.2540788122
 12         -0.4573220379   -0.2337337762    0.2939676699   -0.2540794294
 13         -0.4573273880   -0.2337338775    0.2939674931   -0.2540796787
 14         -0.4573296803   -0.2337339266    0.2939674099   -0.2540797808
 15         -0.4573306647   -0.2337339495    0.2939673718   -0.2540798230
 16         -0.4573310882   -0.2337339601    0.2939673545   -0.2540798406
 17         -0.4573312706   -0.2337339649    0.2939673467   -0.2540798479
 18         -0.4573313493   -0.2337339670    0.2939673433   -0.2540798510
Atom SCF converged after  18 iterations to a total energy of     -0.45733135

Atom SCF Calculation for C  : Z (AE atom) =   6 : Z (PS atom) =   4
Config String:
Orbitals (num,occ):  2     2.00 2.00
Orbitals   (num,l):  2        0    1
Real-space Grid (nr,dr,rmax): 1203    0.0066555740    8.0000000000
Spherical Bessel Basis (nsws,lmax,cutoff):   47    1  176.3951722778
Confining potential (l,width,scale):  0    3.0000000000  100.0000000000
Confining potential (l,width,scale):  1    3.0000000000  100.0000000000
  1         -5.2976922011   -1.3069684169    4.5135249990   -1.4493313817
  2         -5.3721716256   -1.3429755895    4.4750154450   -1.4361613026
  3         -5.3809959565   -1.3617365618    4.4541655428   -1.4305930207
  4         -5.3918938866   -1.3667928461    4.4484735100   -1.4294652294
  5         -5.3956096428   -1.3688539142    4.4461376126   -1.4290734646
  6         -5.3968271862   -1.3696852393    4.4451910874   -1.4289366866
  7         -5.3972028401   -1.3700178062    4.4448112275   -1.4288900460
  8         -5.3973067903   -1.3701500158    4.4446598370   -1.4288749220
  9         -5.3973286940   -1.3702023868    4.4445997329   -1.4288704293
 10         -5.3973289850   -1.3702230869    4.4445759233   -1.4288693188
 11         -5.3973254264   -1.3702312560    4.4445665049   -1.4288691775
 12         -5.3973224003   -1.3702344755    4.4445627836   -1.4288692549
 13         -5.3973208708   -1.3702354890    4.4445616088   -1.4288693270
 14         -5.3973198783   -1.3702360102    4.4445610034   -1.4288693814
 15         -5.3973192535   -1.3702362780    4.4445606917   -1.4288694190
 16         -5.3973188684   -1.3702364155    4.4445605313   -1.4288694437
 17         -5.3973186349   -1.3702364860    4.4445604489   -1.4288694595
 18         -5.3973184951   -1.3702365221    4.4445604065   -1.4288694693
 19         -5.3973184122   -1.3702365405    4.4445603848   -1.4288694753
Atom SCF converged after  19 iterations to a total energy of     -5.39731841

Atom SCF Calculation for S  : Z (AE atom) =  16 : Z (PS atom) =   6
Config String:
Orbitals (num,occ):  3     2.00 4.00 0.00
Orbitals   (num,l):  3        0    1    2
Real-space Grid (nr,dr,rmax): 1203    0.0066555740    8.0000000000
Spherical Bessel Basis (nsws,lmax,cutoff):   47    2  176.3951722778
Confining potential (l,width,scale):  0    3.0000000000  100.0000000000
Confining potential (l,width,scale):  1    3.0000000000  100.0000000000
Confining potential (l,width,scale):  2    3.0000000000  100.0000000000
  1        -12.4735062396   -1.0328741412   10.1554312477   -2.4512393157
  2         -9.9458301913   -2.4607392455    8.3041325857   -2.0306994528
  3        -10.1450417646   -2.2931184565    8.4831893826   -2.0812538287
  4        -10.1528335592   -2.2733105793    8.5050388867   -2.0896035179
  5        -10.1571940363   -2.2633716629    8.5160794258   -2.0939370707
  6        -10.1594380571   -2.2584938667    8.5215163935   -2.0961289008
  7        -10.1605856507   -2.2561081821    8.5241804044   -2.0972291378
  8        -10.1611799191   -2.2549395235    8.5254868240   -2.0977806248
  9        -10.1614918752   -2.2543658586    8.5261285885   -2.0980571586
 10        -10.1616572884   -2.2540839121    8.5264441898   -2.0981959233
 11        -10.1617455602   -2.2539453058    8.5265994231   -2.0982656006
 12        -10.1617928447   -2.2538772062    8.5266757320   -2.0983006047
 13        -10.1618182292   -2.2538437891    8.5267131983   -2.0983181961
 14        -10.1618318741   -2.2538274201    8.5267315620   -2.0983270391
 15        -10.1618392144   -2.2538194197    8.5267405433   -2.0983314852
 16        -10.1618431651   -2.2538155200    8.5267449245   -2.0983337210
 17        -10.1618452923   -2.2538136252    8.5267470551   -2.0983348455
 18        -10.1618464380   -2.2538127080    8.5267480875   -2.0983354110
 19        -10.1618470552   -2.2538122659    8.5267485856   -2.0983356955
 20        -10.1618473878   -2.2538120540    8.5267488248   -2.0983358386
 21        -10.1618475670   -2.2538119530    8.5267489389   -2.0983359106
 22        -10.1618476637   -2.2538119053    8.5267489929   -2.0983359468
Atom SCF converged after  22 iterations to a total energy of    -10.16184766

Atom SCF Calculation for O  : Z (AE atom) =   8 : Z (PS atom) =   6
Config String:
Orbitals (num,occ):  2     2.00 4.00
Orbitals   (num,l):  2        0    1
Real-space Grid (nr,dr,rmax): 1203    0.0066555740    8.0000000000
Spherical Bessel Basis (nsws,lmax,cutoff):   47    1  176.3951722778
Confining potential (l,width,scale):  0    3.0000000000  100.0000000000
Confining potential (l,width,scale):  1    3.0000000000  100.0000000000
  1         -1.8735052164   -7.5539365035   10.1554312477   -2.4512393157
  2        -16.0318313751   -3.1285771268   13.6395848164   -3.2358799643
  3        -15.9524020423   -3.0762819706   13.6967272503   -3.2536856837
  4        -15.8521515939   -3.0781493909   13.6951909330   -3.2561700440
  5        -15.8357139793   -3.0748501933   13.6988803334   -3.2580493133
  6        -15.8246052853   -3.0740779781   13.6997881576   -3.2588327446
  7        -15.8189019501   -3.0737449687   13.7001869911   -3.2592378801
  8        -15.8159785510   -3.0736026016   13.7003615168   -3.2594475790
  9        -15.8144776168   -3.0735437994   13.7004360379   -3.2595560735
 10        -15.8137058024   -3.0735207882   13.7004667348   -3.2596122456
 11        -15.8133083127   -3.0735125946   13.7004786868   -3.2596413656
 12        -15.8131032938   -3.0735102195   13.7004828997   -3.2596564858
 13        -15.8129973902   -3.0735099286   13.7004840891   -3.2596643505
 14        -15.8129426040   -3.0735102506   13.7004842061   -3.2596684489
 15        -15.8129142203   -3.0735106556   13.7004840157   -3.2596705887
 16        -15.8128994940   -3.0735109855   13.7004837906   -3.2596717080
 17        -15.8128918425   -3.0735112169   13.7004836103   -3.2596722946
 18        -15.8128878614   -3.0735113674   13.7004834848   -3.2596726026
 19        -15.8128857871   -3.0735114608   13.7004834035   -3.2596727646
 20        -15.8128847048   -3.0735115170   13.7004833533   -3.2596728500
 21        -15.8128841394   -3.0735115501   13.7004833231   -3.2596728951
 22        -15.8128838436   -3.0735115693   13.7004833054   -3.2596729190
 23        -15.8128836887   -3.0735115802   13.7004832951   -3.2596729316
 24        -15.8128836074   -3.0735115864   13.7004832893   -3.2596729383
Atom SCF converged after  24 iterations to a total energy of    -15.81288361

Atom SCF Calculation for F  : Z (AE atom) =   9 : Z (PS atom) =   7
Config String:
Orbitals (num,occ):  5     2.00 5.00 0.00 0.00 0.00
Orbitals   (num,l):  5        0    1    0    1    2
Real-space Grid (nr,dr,rmax): 1203    0.0066555740    8.0000000000
Spherical Bessel Basis (nsws,lmax,cutoff):   47    2  176.3951722778
Confining potential (l,width,scale):  0    3.0000000000  100.0000000000
Confining potential (l,width,scale):  1    3.0000000000  100.0000000000
Confining potential (l,width,scale):  2    3.0000000000  100.0000000000
  1          2.7613408675  -14.5815130354   13.8226703094   -2.9941905181
  2        -23.6468980113   -4.9263326541   20.5563421412   -4.3754293297
  3        -24.5333043594   -4.3845963970   21.1176052958   -4.4841731563
  4        -24.3589864791   -4.3106783108   21.1950887716   -4.4997202795
  5        -24.2648391338   -4.2783243831   21.2295118026   -4.5072738146
  6        -24.2274338603   -4.2663478973   21.2423649225   -4.5102591768
  7        -24.2052315491   -4.2595041622   21.2497430410   -4.5120310941
  8        -24.1920610535   -4.2555995140   21.2539669715   -4.5130761189
  9        -24.1842594614   -4.2533726648   21.2563826077   -4.5136908004
 10        -24.1796430262   -4.2521035456   21.2577627107   -4.5140519045
 11        -24.1769128010   -4.2513811698   21.2585501121   -4.5142639028
 12        -24.1752983031   -4.2509707627   21.2589985394   -4.5143883165
 13        -24.1743434247   -4.2507381589   21.2592533437   -4.5144613128
 14        -24.1737784708   -4.2506067164   21.2593977374   -4.5145041342
 15        -24.1734440540   -4.2505326993   21.2594793047   -4.5145292513
 16        -24.1732459871   -4.2504911905   21.2595252124   -4.5145439823
 17        -24.1731286021   -4.2504680245   21.2595509400   -4.5145526212
 18        -24.1730589855   -4.2504551689   21.2595652865   -4.5145576869
 19        -24.1730176682   -4.2504480829   21.2595732399   -4.5145606573
 20        -24.1729931274   -4.2504442088   21.2595776183   -4.5145623987
 21        -24.1729785394   -4.2504421116   21.2595800086   -4.5145634196
 22        -24.1729698603   -4.2504409903   21.2595813001   -4.5145640181
 23        -24.1729646922   -4.2504404002   21.2595819890   -4.5145643688
 24        -24.1729616119   -4.2504400960   21.2595823505   -4.5145645744
 25        -24.1729597743   -4.2504399438   21.2595825360   -4.5145646948
 26        -24.1729586769   -4.2504398706   21.2595826284   -4.5145647654
 27        -24.1729580209   -4.2504398378   21.2595826723   -4.5145648067
 28        -24.1729576283   -4.2504398249   21.2595826917   -4.5145648309
 29        -24.1729573931   -4.2504398211   21.2595826991   -4.5145648451
 30        -24.1729572521   -4.2504398214   21.2595827010   -4.5145648534
 31        -24.1729571674   -4.2504398230   21.2595827006   -4.5145648582
Atom SCF converged after  31 iterations to a total energy of    -24.17295717
 
WARNING in ngwfs_initialise: Setting radial NGWF functions for species  6 (F):
Last NGWF on atom has m = -2 and does not complete set of m-values for l = 2.
This breaks symmetry and may cause unstable NGWF optimisation and poor 
convergence. Suggest increasing number of NGWFs per atom from   9 to  13.
NB: All NGWF radial function angular momenta:     0    1    0    1    2
 

========================== Calculation in vacuum ==============================
= Adjusting the following parameters: 
= is_implicit_solvent: F
= is_include_apolar: F
= write_denskern: T
= write_tightbox_ngwfs: T
= restart read filename prefix: ""
= restart write filename prefix: "vacuum_"
===============================================================================

Determining parallel strategy ...
... using space-filling curve
... NGWF load balancing: max    164;  min    163;  average    164
... Projector load balancing: max     36;  min     31;  average     33
... done
Calculating direct Ion-Ion energy ...
Ion-Ion Energy        :    826349.05788781098090
Basis initialisation ...... NGWF spheres initialised
... Projector spheres initialised
... NGWF tight boxes initialised
... Tight-boxes gathered
... NGWF basis size (local,global):    1272856  51025092
... Nonlocal pseudopotential projector initialisation
... done

========================== Sparse matrix information ===========================
                        Overlap matrix filling:   6.79%
                        Density kernel filling: 100.00%
              NGWF-Proj overlap matrix filling:   1.80%
                    Hamiltonian matrix filling:   7.69%
                  NGWF diagonal matrix filling:   0.05%
                             KS matrix filling: 100.00% 
                           KSKS matrix filling: 100.00% 
================================================================================

Sparse matrix initialisation ... done

Generating smeared ion density ... done
Smeared ion self correction:     -14544.936866
Smeared ion non-self correction: -826300.768654
NGWF initialisation ...... done
============ Calculation of NGWF S^-1 using Hotelling algorithm ================ 
         Iteration  |  Frobenius norm and Maximum abs value    (of I-S*S_n^-1)   
               1       0.78977477E+02     0.98478795E+00
               2       0.77293258E+02     0.96992266E+00
               3       0.74509293E+02     0.94116270E+00
               4       0.70449211E+02     0.88712576E+00
               5       0.65281260E+02     0.79068090E+00
               6       0.59374580E+02     0.71306353E+00
               7       0.53305012E+02     0.67996844E+00
               8       0.47674962E+02     0.64896232E+00
               9       0.41818755E+02     0.61232870E+00
              10       0.33999606E+02     0.54865546E+00
              11       0.23724526E+02     0.44786348E+00
              12       0.12871265E+02     0.31239814E+00
              13       0.46891280E+01     0.16290390E+00
              14       0.88951196E+00     0.51473896E-01
              15       0.62699521E-01     0.63164311E-02
              16       0.94222185E-03     0.14216948E-03
              17       0.49780670E-06     0.93528040E-07
              18       0.24282766E-12     0.40412118E-13
================================================================================
Calculating local pseudopotential in open BC on the fine real space grid ...
... done

MG BCs: +ve charge blocks (gridpoints):     20302 (   15824958).
MG BCs: -ve charge blocks (gridpoints):      8060 (    1079683).
MG BCs:     Elided blocks (gridpoints):    189743 (  189315184).
MG BCs: Computational effort saved:  99.9862%.
MG BCs: Charge after coarse-graining:           -9.0002281.
MG DL_MG: Calling solver with defect correction order = 8
MG DL_MG: Solver finished
MG Hartree energy from (\int phi*rho dr):              1471.077208
MG Hartree energy from (\int eps (grad phi)^2 dr):     1470.468168
MG Discrepancy due to finite box and discretization:     -0.609040 (  -0.04140%)
MG Correction to account for finite box:                  0.453965
MG Remaining discrepancy, due to discretization:         -0.155075 (  -0.01054%)
 WARNING: xc_energy_potential using alternative initial XC functional PBE.
Up spin density kernel initialisation ... 
======= Optimisation of K by Palser-Manolopoulos canonical purification ======== 
         Iteration  |  Band structure energy |    c_n   
               1       -2547.45979048279469    0.5305260
               2       -2722.92483736912891    0.5197239
               3       -2907.90573726683579    0.5153234
               4       -3068.81464333876829    0.5252432
               5       -3173.85920401171506    0.5566002
               6       -3220.81502871913926    0.6030550
               7       -3236.82001923514326    0.6228615
               8       -3243.34671941257693    0.6257228
               9       -3246.48303963890430    0.6439841
              10       -3247.79893907982478    0.6637204
              11       -3248.34720171591789    0.6641743
              12       -3248.61300599810966    0.6337478
              13       -3248.76171969970892    0.5706800
              14       -3248.84530963928228    0.4897885
              15       -3248.87505125232383    0.4325499
              16       -3248.87691803324697    0.4469684
              17       -3248.87790357628319    0.4595424
              18       -3248.87827253167097    0.4858758
              19       -3248.87843057304781    0.4988225
              20       -3248.87856603568025    0.4999922
              21       -3248.87871241288804    0.5000000
              22       -3248.87882813459555    0.5000000
              23       -3248.87887371684701    0.5000000
              24       -3248.87887858485783    0.5000000
              25       -3248.87887863238257    0.5000000
Termination criterion satisfied: band energy change below threshold.
Final occupancy bounds: [    0.00000000000502:    1.00000000000000]
Closest occupancy to 0.5:     0.99999999999984
================================================================================
... done

Writing density kernel to file "complex_19481.vacuum_dkn" ... done

>>> Optimising kernel for current NGWFs:
   Initial electron number for spin 1:    7234.00000000
     Final electron number for spin 1:    7234.00000000

=================== Penalty functional idempotency correction ==================
 RMS occupancy error at iteration   1:  0.000000 (step -0.5000 Ne1=   7234.0000)
            Final RMS occupancy error   :  0.000000 (Ne1=   7234.0000)
               Final occupancy bounds   : [ -0.0000,  1.0000]
================================================================================

................................................................................
<<<<<<<<<<<<<< LNV (Original version) density kernel optimisation >>>>>>>>>>>>>>
~~~~~~~~~~~~~~~~~~~~~~~~~~~~~~~~~~~~~~~~~~~~~~~~~~~~~~~~~~~~~~~~~~~~~~~~~~~~~~~~
   iter  |      energy (Eh)       | rms gradient |  commutator  |   dE (Eh)
MG BCs: +ve charge blocks (gridpoints):     31139 (   17063150).
MG BCs: -ve charge blocks (gridpoints):      8402 (    1112639).
MG BCs:     Elided blocks (gridpoints):    178897 (  188044036).
MG BCs: Computational effort saved:  99.9808%.
MG BCs: Charge after coarse-graining:           -9.0009913.
MG DL_MG: Calling solver with defect correction order = 8
MG DL_MG: Solver finished
MG Hartree energy from (\int phi*rho dr):              1425.426069
MG Hartree energy from (\int eps (grad phi)^2 dr):     1424.767368
MG Discrepancy due to finite box and discretization:     -0.658701 (  -0.04621%)
MG Correction to account for finite box:                  0.460277
MG Remaining discrepancy, due to discretization:         -0.198423 (  -0.01392%)
      ideal mu1:      -0.731235835514
             Q0:  -11541.354830354219
             G0:    -127.352292384234
   RMS gradient:       0.001723434223
MG BCs: +ve charge blocks (gridpoints):     31069 (   17142478).
MG BCs: -ve charge blocks (gridpoints):      8279 (    1089668).
MG BCs:     Elided blocks (gridpoints):    178964 (  187987679).
MG BCs: Computational effort saved:  99.9809%.
MG BCs: Charge after coarse-graining:           -9.0010146.
MG DL_MG: Calling solver with defect correction order = 8
MG DL_MG: Solver finished
MG Hartree energy from (\int phi*rho dr):              1447.776804
MG Hartree energy from (\int eps (grad phi)^2 dr):     1447.133793
MG Discrepancy due to finite box and discretization:     -0.643011 (  -0.04441%)
MG Correction to account for finite box:                  0.460260
MG Remaining discrepancy, due to discretization:         -0.182751 (  -0.01262%)
     Trial step:       0.500000000000
             Q1:  -11553.858398947050
 Quadratic coef:      51.172577599285
 Linear coef   :     -63.676146192117
           Qmin:  -11561.163543263066
Quadratic minimum step length (  0.311085297924) accepted
    Initial Ne1:    7234.00000000
      Final Ne1:    7234.00000000

=================== Penalty functional idempotency correction ==================
 RMS occupancy error at iteration   1:  0.003225 (step -0.4890 Ne1=   7234.0000)
 RMS occupancy error at iteration   2:  0.000027 (step -0.5002 Ne1=   7234.0000)
            Final RMS occupancy error   :  0.000000 (Ne1=   7234.0000)
               Final occupancy bounds   : [  0.0000,  1.0000]
================================================================================

    1        -1.154135483035E+04     1.7234E-03     1.5600E-03
MG BCs: +ve charge blocks (gridpoints):     31087 (   17114737).
MG BCs: -ve charge blocks (gridpoints):      8337 (    1098292).
MG BCs:     Elided blocks (gridpoints):    178949 (  188006796).
MG BCs: Computational effort saved:  99.9809%.
MG BCs: Charge after coarse-graining:           -9.0010055.
MG DL_MG: Calling solver with defect correction order = 8
MG DL_MG: Solver finished
MG Hartree energy from (\int phi*rho dr):              1432.765226
MG Hartree energy from (\int eps (grad phi)^2 dr):     1432.117155
MG Discrepancy due to finite box and discretization:     -0.648071 (  -0.04523%)
MG Correction to account for finite box:                  0.460137
MG Remaining discrepancy, due to discretization:         -0.187934 (  -0.01312%)
      ideal mu1:      -0.776694429106
             Q0:  -11561.545807562419
             G0:     -11.482875977797
   RMS gradient:       0.000513753712
MG BCs: +ve charge blocks (gridpoints):     31085 (   17131151).
MG BCs: -ve charge blocks (gridpoints):      8307 (    1091887).
MG BCs:     Elided blocks (gridpoints):    178949 (  187996787).
MG BCs: Computational effort saved:  99.9809%.
MG BCs: Charge after coarse-graining:           -9.0010108.
MG DL_MG: Calling solver with defect correction order = 8
MG DL_MG: Solver finished
MG Hartree energy from (\int phi*rho dr):              1438.229523
MG Hartree energy from (\int eps (grad phi)^2 dr):     1437.584935
MG Discrepancy due to finite box and discretization:     -0.644588 (  -0.04482%)
MG Correction to account for finite box:                  0.459731
MG Remaining discrepancy, due to discretization:         -0.184856 (  -0.01285%)
     Trial step:       0.394388956440
             Q1:  -11564.172906643013
 Quadratic coef:       1.901620393224
 Linear coef   :      -4.528719473818
           Qmin:  -11564.242100174974
Quadratic minimum step length (  0.469619739474) accepted
    Initial Ne1:    7233.99981308
      Final Ne1:    7234.00000000

=================== Penalty functional idempotency correction ==================
 RMS occupancy error at iteration   1:  0.001552 (step -0.4940 Ne1=   7234.0000)
 RMS occupancy error at iteration   2:  0.000010 (step -0.5003 Ne1=   7234.0000)
            Final RMS occupancy error   :  0.000000 (Ne1=   7234.0000)
               Final occupancy bounds   : [  0.0000,  1.0000]
================================================================================

    2        -1.156154580756E+04     5.1375E-04     4.6503E-04    -2.0191E+01
MG BCs: +ve charge blocks (gridpoints):     31086 (   17134395).
MG BCs: -ve charge blocks (gridpoints):      8299 (    1090672).
MG BCs:     Elided blocks (gridpoints):    178948 (  187994758).
MG BCs: Computational effort saved:  99.9809%.
MG BCs: Charge after coarse-graining:           -9.0010118.
MG DL_MG: Calling solver with defect correction order = 8
MG DL_MG: Solver finished
MG Hartree energy from (\int phi*rho dr):              1439.302522
MG Hartree energy from (\int eps (grad phi)^2 dr):     1438.658552
MG Discrepancy due to finite box and discretization:     -0.643970 (  -0.04474%)
MG Correction to account for finite box:                  0.459664
MG Remaining discrepancy, due to discretization:         -0.184306 (  -0.01281%)
      ideal mu1:      -0.799671936172
             Q0:  -11564.277400900726
             G0:      -1.948969228904
   RMS gradient:       0.000211707230
MG BCs: +ve charge blocks (gridpoints):     31090 (   17135197).
MG BCs: -ve charge blocks (gridpoints):      8301 (    1090846).
MG BCs:     Elided blocks (gridpoints):    178944 (  187993782).
MG BCs: Computational effort saved:  99.9809%.
MG BCs: Charge after coarse-graining:           -9.0010121.
MG DL_MG: Calling solver with defect correction order = 8
MG DL_MG: Solver finished
MG Hartree energy from (\int phi*rho dr):              1438.547447
MG Hartree energy from (\int eps (grad phi)^2 dr):     1437.903898
MG Discrepancy due to finite box and discretization:     -0.643548 (  -0.04474%)
MG Correction to account for finite box:                  0.459454
MG Remaining discrepancy, due to discretization:         -0.184094 (  -0.01280%)
     Trial step:       0.430363612513
             Q1:  -11564.782646628912
 Quadratic coef:       0.333519709842
 Linear coef   :      -0.838765438028
           Qmin:  -11564.804751638379
Quadratic minimum step length (  0.541158608184) accepted
    Initial Ne1:    7233.99988774
      Final Ne1:    7234.00000000

=================== Penalty functional idempotency correction ==================
 RMS occupancy error at iteration   1:  0.000647 (step -0.4960 Ne1=   7234.0000)
 RMS occupancy error at iteration   2:  0.000006 (step -0.5004 Ne1=   7234.0000)
            Final RMS occupancy error   :  0.000000 (Ne1=   7234.0000)
               Final occupancy bounds   : [  0.0000,  1.0000]
================================================================================

    3        -1.156427740090E+04     2.1171E-04     1.9163E-04    -2.7316E+00
MG BCs: +ve charge blocks (gridpoints):     31092 (   17135395).
MG BCs: -ve charge blocks (gridpoints):      8302 (    1090875).
MG BCs:     Elided blocks (gridpoints):    178942 (  187993555).
MG BCs: Computational effort saved:  99.9809%.
MG BCs: Charge after coarse-graining:           -9.0010122.
MG DL_MG: Calling solver with defect correction order = 8
MG DL_MG: Solver finished
MG Hartree energy from (\int phi*rho dr):              1438.359282
MG Hartree energy from (\int eps (grad phi)^2 dr):     1437.715828
MG Discrepancy due to finite box and discretization:     -0.643454 (  -0.04474%)
MG Correction to account for finite box:                  0.459403
MG Remaining discrepancy, due to discretization:         -0.184051 (  -0.01280%)
      ideal mu1:      -0.802372707961
             Q0:  -11564.809827608406
             G0:      -0.479918477986
   RMS gradient:       0.000105258134
MG BCs: +ve charge blocks (gridpoints):     31083 (   17136092).
MG BCs: -ve charge blocks (gridpoints):      8302 (    1090715).
MG BCs:     Elided blocks (gridpoints):    178951 (  187993018).
MG BCs: Computational effort saved:  99.9809%.
MG BCs: Charge after coarse-graining:           -9.0010120.
MG DL_MG: Calling solver with defect correction order = 8
MG DL_MG: Solver finished
MG Hartree energy from (\int phi*rho dr):              1439.459832
MG Hartree energy from (\int eps (grad phi)^2 dr):     1438.816286
MG Discrepancy due to finite box and discretization:     -0.643546 (  -0.04471%)
MG Correction to account for finite box:                  0.459325
MG Remaining discrepancy, due to discretization:         -0.184222 (  -0.01280%)
     Trial step:       0.482591932755
             Q1:  -11564.938237627503
 Quadratic coef:       0.103194766760
 Linear coef   :      -0.231604785856
           Qmin:  -11564.939777940472
Quadratic minimum step length (  0.541551692742) accepted
    Initial Ne1:    7233.99992160
      Final Ne1:    7234.00000000

=================== Penalty functional idempotency correction ==================
 RMS occupancy error at iteration   1:  0.000334 (step -0.4905 Ne1=   7234.0000)
 RMS occupancy error at iteration   2:  0.000006 (step -0.5002 Ne1=   7234.0000)
            Final RMS occupancy error   :  0.000000 (Ne1=   7234.0000)
               Final occupancy bounds   : [  0.0000,  1.0000]
================================================================================

    4        -1.156480982761E+04     1.0526E-04     9.5277E-05    -5.3243E-01
MG BCs: +ve charge blocks (gridpoints):     31083 (   17136133).
MG BCs: -ve charge blocks (gridpoints):      8301 (    1090693).
MG BCs:     Elided blocks (gridpoints):    178951 (  187992999).
MG BCs: Computational effort saved:  99.9809%.
MG BCs: Charge after coarse-graining:           -9.0010120.
MG DL_MG: Calling solver with defect correction order = 8
MG DL_MG: Solver finished
MG Hartree energy from (\int phi*rho dr):              1439.594980
MG Hartree energy from (\int eps (grad phi)^2 dr):     1438.951421
MG Discrepancy due to finite box and discretization:     -0.643559 (  -0.04470%)
MG Correction to account for finite box:                  0.459315
MG Remaining discrepancy, due to discretization:         -0.184244 (  -0.01280%)
      ideal mu1:      -0.802234203599
             Q0:  -11564.940367463045
             G0:      -0.198555847173
   RMS gradient:       0.000067899358
MG BCs: +ve charge blocks (gridpoints):     31082 (   17135664).
MG BCs: -ve charge blocks (gridpoints):      8308 (    1090889).
MG BCs:     Elided blocks (gridpoints):    178952 (  187993272).
MG BCs: Computational effort saved:  99.9809%.
MG BCs: Charge after coarse-graining:           -9.0010118.
MG DL_MG: Calling solver with defect correction order = 8
MG DL_MG: Solver finished
MG Hartree energy from (\int phi*rho dr):              1439.247998
MG Hartree energy from (\int eps (grad phi)^2 dr):     1438.604303
MG Discrepancy due to finite box and discretization:     -0.643695 (  -0.04472%)
MG Correction to account for finite box:                  0.459293
MG Remaining discrepancy, due to discretization:         -0.184402 (  -0.01281%)
     Trial step:       0.511222532844
             Q1:  -11565.003392741433
 Quadratic coef:       0.038480944715
 Linear coef   :      -0.101506223103
           Qmin:  -11565.007306524734
Quadratic minimum step length (  0.674259284152) accepted
    Initial Ne1:    7233.99991625
      Final Ne1:    7234.00000000

=================== Penalty functional idempotency correction ==================
 RMS occupancy error at iteration   1:  0.000588 (step -0.4608 Ne1=   7234.0000)
 RMS occupancy error at iteration   2:  0.000015 (step -0.4999 Ne1=   7234.0000)
            Final RMS occupancy error   :  0.000000 (Ne1=   7234.0000)
               Final occupancy bounds   : [ -0.0000,  1.0000]
================================================================================

    5        -1.156494036746E+04     6.7899E-05     6.1460E-05    -1.3054E-01
MG BCs: +ve charge blocks (gridpoints):     31083 (   17135515).
MG BCs: -ve charge blocks (gridpoints):      8306 (    1090954).
MG BCs:     Elided blocks (gridpoints):    178952 (  187993356).
MG BCs: Computational effort saved:  99.9809%.
MG BCs: Charge after coarse-graining:           -9.0010117.
MG DL_MG: Calling solver with defect correction order = 8
MG DL_MG: Solver finished
MG Hartree energy from (\int phi*rho dr):              1439.137816
MG Hartree energy from (\int eps (grad phi)^2 dr):     1438.494076
MG Discrepancy due to finite box and discretization:     -0.643739 (  -0.04473%)
MG Correction to account for finite box:                  0.459287
MG Remaining discrepancy, due to discretization:         -0.184453 (  -0.01282%)
      ideal mu1:      -0.801662087662
             Q0:  -11565.006598520093
             G0:      -0.168449182236
   RMS gradient:       0.000063061372
MG BCs: +ve charge blocks (gridpoints):     31085 (   17134975).
MG BCs: -ve charge blocks (gridpoints):      8307 (    1091310).
MG BCs:     Elided blocks (gridpoints):    178950 (  187993540).
MG BCs: Computational effort saved:  99.9809%.
MG BCs: Charge after coarse-graining:           -9.0010114.
MG DL_MG: Calling solver with defect correction order = 8
MG DL_MG: Solver finished
MG Hartree energy from (\int phi*rho dr):              1438.028998
MG Hartree energy from (\int eps (grad phi)^2 dr):     1437.385266
MG Discrepancy due to finite box and discretization:     -0.643732 (  -0.04476%)
MG Correction to account for finite box:                  0.459256
MG Remaining discrepancy, due to discretization:         -0.184476 (  -0.01283%)
     Trial step:       0.587108626268
             Q1:  -11565.078618146945
 Quadratic coef:       0.026878341127
 Linear coef   :      -0.098897967979
           Qmin:  -11565.097571471364
Quadratic minimum step length (  1.080123394655) accepted
    Initial Ne1:    7233.99990863
      Final Ne1:    7234.00000000

=================== Penalty functional idempotency correction ==================
 RMS occupancy error at iteration   1:  0.003669 (step -0.3172 Ne1=   7234.0000)
 RMS occupancy error at iteration   2:  0.000202 (step -0.4919 Ne1=   7234.0000)
 RMS occupancy error at iteration   3:  0.000002 (step -0.5000 Ne1=   7234.0000)
            Final RMS occupancy error   :  0.000000 (Ne1=   7234.0000)
               Final occupancy bounds   : [  0.0000,  1.0000]
================================================================================

    6        -1.156500659852E+04     6.3061E-05     5.7081E-05    -6.6231E-02
MG BCs: +ve charge blocks (gridpoints):     31087 (   17134583).
MG BCs: -ve charge blocks (gridpoints):      8309 (    1091574).
MG BCs:     Elided blocks (gridpoints):    178948 (  187993668).
MG BCs: Computational effort saved:  99.9809%.
MG BCs: Charge after coarse-graining:           -9.0010113.
MG DL_MG: Calling solver with defect correction order = 8
MG DL_MG: Solver finished
MG Hartree energy from (\int phi*rho dr):              1437.119458
MG Hartree energy from (\int eps (grad phi)^2 dr):     1436.475698
MG Discrepancy due to finite box and discretization:     -0.643760 (  -0.04480%)
MG Correction to account for finite box:                  0.459261
MG Remaining discrepancy, due to discretization:         -0.184499 (  -0.01284%)
      ideal mu1:      -0.801809895174
             Q0:  -11565.086253553513
             G0:      -0.277222227538
   RMS gradient:       0.000080409128
MG BCs: +ve charge blocks (gridpoints):     31084 (   17136806).
MG BCs: -ve charge blocks (gridpoints):      8301 (    1090087).
MG BCs:     Elided blocks (gridpoints):    178950 (  187992932).
MG BCs: Computational effort saved:  99.9809%.
MG BCs: Charge after coarse-graining:           -9.0010123.
MG DL_MG: Calling solver with defect correction order = 8
MG DL_MG: Solver finished
MG Hartree energy from (\int phi*rho dr):              1440.424131
MG Hartree energy from (\int eps (grad phi)^2 dr):     1439.780643
MG Discrepancy due to finite box and discretization:     -0.643488 (  -0.04467%)
MG Correction to account for finite box:                  0.459091
MG Remaining discrepancy, due to discretization:         -0.184397 (  -0.01280%)
     Trial step:       0.796335207331
             Q1:  -11565.186420839396
 Quadratic coef:       0.120594534159
 Linear coef   :      -0.220761820043
           Qmin:  -11565.187285871289
Quadratic minimum step length (  0.728890454949) accepted
    Initial Ne1:    7233.99999905
      Final Ne1:    7234.00000000

=================== Penalty functional idempotency correction ==================
 RMS occupancy error at iteration   1:  0.000326 (step -0.4744 Ne1=   7234.0000)
 RMS occupancy error at iteration   2:  0.000002 (step -0.5000 Ne1=   7234.0000)
            Final RMS occupancy error   :  0.000000 (Ne1=   7234.0000)
               Final occupancy bounds   : [  0.0000,  1.0000]
================================================================================

    7        -1.156508625355E+04     8.0409E-05     7.2784E-05    -7.9655E-02
MG BCs: +ve charge blocks (gridpoints):     31086 (   17136623).
MG BCs: -ve charge blocks (gridpoints):      8303 (    1090214).
MG BCs:     Elided blocks (gridpoints):    178948 (  187992988).
MG BCs: Computational effort saved:  99.9809%.
MG BCs: Charge after coarse-graining:           -9.0010122.
MG DL_MG: Calling solver with defect correction order = 8
MG DL_MG: Solver finished
MG Hartree energy from (\int phi*rho dr):              1440.143953
MG Hartree energy from (\int eps (grad phi)^2 dr):     1439.500440
MG Discrepancy due to finite box and discretization:     -0.643514 (  -0.04468%)
MG Correction to account for finite box:                  0.459108
MG Remaining discrepancy, due to discretization:         -0.184406 (  -0.01280%)
      ideal mu1:      -0.803630784606
             Q0:  -11565.187115436653
             G0:      -0.299427457073
   RMS gradient:       0.000083717196
MG BCs: +ve charge blocks (gridpoints):     31087 (   17136726).
MG BCs: -ve charge blocks (gridpoints):      8298 (    1090029).
MG BCs:     Elided blocks (gridpoints):    178947 (  187993070).
MG BCs: Computational effort saved:  99.9809%.
MG BCs: Charge after coarse-graining:           -9.0010125.
MG DL_MG: Calling solver with defect correction order = 8
MG DL_MG: Solver finished
MG Hartree energy from (\int phi*rho dr):              1440.134599
MG Hartree energy from (\int eps (grad phi)^2 dr):     1439.491648
MG Discrepancy due to finite box and discretization:     -0.642951 (  -0.04465%)
MG Correction to account for finite box:                  0.458748
MG Remaining discrepancy, due to discretization:         -0.184203 (  -0.01279%)
     Trial step:       0.761866872599
             Q1:  -11565.343532176572
 Quadratic coef:       0.071707120371
 Linear coef   :      -0.228123860291
           Qmin:  -11565.368549635114
Quadratic minimum step length (  1.211874156332) accepted
    Initial Ne1:    7233.99999696
      Final Ne1:    7234.00000000

=================== Penalty functional idempotency correction ==================
 RMS occupancy error at iteration   1:  0.006134 (step -0.2542 Ne1=   7234.0000)
 RMS occupancy error at iteration   2:  0.000254 (step -0.4864 Ne1=   7234.0000)
 RMS occupancy error at iteration   3:  0.000003 (step -0.5000 Ne1=   7234.0000)
            Final RMS occupancy error   :  0.000000 (Ne1=   7234.0000)
               Final occupancy bounds   : [  0.0000,  1.0000]
================================================================================

    8        -1.156518711544E+04     8.3717E-05     7.5778E-05    -1.0086E-01
MG BCs: +ve charge blocks (gridpoints):     31086 (   17136711).
MG BCs: -ve charge blocks (gridpoints):      8295 (    1089965).
MG BCs:     Elided blocks (gridpoints):    178948 (  187993149).
MG BCs: Computational effort saved:  99.9809%.
MG BCs: Charge after coarse-graining:           -9.0010128.
MG DL_MG: Calling solver with defect correction order = 8
MG DL_MG: Solver finished
MG Hartree energy from (\int phi*rho dr):              1440.169709
MG Hartree energy from (\int eps (grad phi)^2 dr):     1439.526950
MG Discrepancy due to finite box and discretization:     -0.642759 (  -0.04463%)
MG Correction to account for finite box:                  0.458672
MG Remaining discrepancy, due to discretization:         -0.184087 (  -0.01278%)
      ideal mu1:      -0.804723091762
             Q0:  -11565.321942455717
             G0:      -0.555341962726
   RMS gradient:       0.000126488582
========================= Kernel Line Step Protection ==========================
|  Iter |  Trial Step |   RMS Occupancy Error |   Occupancy Bounds | Accepted? |
    0        0.000000                0.000000    [ 1.0000:  0.0000]
    1        0.960878                0.037083    [ 2.0304: -1.0455]        No
    2        0.480439                0.012526    [ 1.4787: -0.4847]        No
    3        0.240220                0.004763    [ 1.2208: -0.2230]       Yes
================================================================================
MG BCs: +ve charge blocks (gridpoints):     31085 (   17136282).
MG BCs: -ve charge blocks (gridpoints):      8299 (    1090236).
MG BCs:     Elided blocks (gridpoints):    178949 (  187993307).
MG BCs: Computational effort saved:  99.9809%.
MG BCs: Charge after coarse-graining:           -9.0010127.
MG DL_MG: Calling solver with defect correction order = 8
MG DL_MG: Solver finished
MG Hartree energy from (\int phi*rho dr):              1439.375141
MG Hartree energy from (\int eps (grad phi)^2 dr):     1438.732732
MG Discrepancy due to finite box and discretization:     -0.642409 (  -0.04463%)
MG Correction to account for finite box:                  0.458405
MG Remaining discrepancy, due to discretization:         -0.184004 (  -0.01278%)
     Trial step:       0.240219531558
             Q1:  -11565.375079681282
 Quadratic coef:       0.080266760575
 Linear coef   :      -0.133403986140
           Qmin:  -11565.377372073752
Quadratic minimum step length (  0.199623373542) accepted
    Initial Ne1:    7233.99999841
      Final Ne1:    7234.00000000

=================== Penalty functional idempotency correction ==================
 RMS occupancy error at iteration   1:  0.003748 (step -0.3122 Ne1=   7234.0000)
 RMS occupancy error at iteration   2:  0.000136 (step -0.4922 Ne1=   7234.0000)
 RMS occupancy error at iteration   3:  0.000001 (step -0.5000 Ne1=   7234.0000)
            Final RMS occupancy error   :  0.000000 (Ne1=   7234.0000)
               Final occupancy bounds   : [  0.0000,  1.0000]
================================================================================

    9        -1.156532194246E+04     1.2649E-04     1.1449E-04    -1.3483E-01
MG BCs: +ve charge blocks (gridpoints):     31086 (   17136347).
MG BCs: -ve charge blocks (gridpoints):      8300 (    1090165).
MG BCs:     Elided blocks (gridpoints):    178948 (  187993313).
MG BCs: Computational effort saved:  99.9809%.
MG BCs: Charge after coarse-graining:           -9.0010127.
MG DL_MG: Calling solver with defect correction order = 8
MG DL_MG: Solver finished
MG Hartree energy from (\int phi*rho dr):              1439.486403
MG Hartree energy from (\int eps (grad phi)^2 dr):     1438.843956
MG Discrepancy due to finite box and discretization:     -0.642447 (  -0.04463%)
MG Correction to account for finite box:                  0.458437
MG Remaining discrepancy, due to discretization:         -0.184010 (  -0.01278%)
      ideal mu1:      -0.805187268959
   10        -1.156539111744E+04     1.2514E-04     1.1328E-04    -6.9175E-02
Finished density kernel iterations (  10)

Writing density kernel to file "complex_19481.vacuum_dkn" ... done


>>> Density kernel optimised for the current NGWF basis:
     ~~~~~~~~~~~~~~~~~~~~~~~~~~~~~~~~~~~~~~~~~~~~~~~~~~~~~~~~~~~
     Total energy                =  -1.15653911174415E+04  Eh
     Estimated bandgap           =  -2.8004E-01  Eh
     RMS occupancy error         =   5.2732E-11
     [H,K] commutator            =   1.1328E-04
     Occupancy bounds            = [  0.000:  1.000]
     ~~~~~~~~~~~~~~~~~~~~~~~~~~~~~~~~~~~~~~~~~~~~~~~~~~~~~~~~~~~




################################################################################
########################### NGWF CG iteration  001 #############################
################################################################################
****** Reciprocal space K.E. preconditioning with k_zero =  3.5000 a0^-1 *******

>>> Checking for convergence of NGWFs:   NOT CONVERGED
  ========================================================================
         NGWF RMS gradient =  1.6626E-03 >  2.0000E-06  | above tolerance
  ========================================================================

>>> Improving NGWFs using line search:
============ Calculation of NGWF S^-1 using Hotelling algorithm ================ 
         Iteration  |  Frobenius norm and Maximum abs value    (of I-S*S_n^-1)   
               1       0.24318167E+00     0.71295952E-02
               2       0.13790947E-02     0.74541246E-04
               3       0.76465897E-07     0.83536376E-08
               4       0.13654932E-12     0.66613381E-14
================================================================================
MG BCs: +ve charge blocks (gridpoints):     30623 (   17079628).
MG BCs: -ve charge blocks (gridpoints):      8308 (    1086475).
MG BCs:     Elided blocks (gridpoints):    179412 (  188053722).
MG BCs: Computational effort saved:  99.9811%.
MG BCs: Charge after coarse-graining:           -9.0010177.
MG DL_MG: Calling solver with defect correction order = 8
MG DL_MG: Solver finished
MG Hartree energy from (\int phi*rho dr):              1410.975736
MG Hartree energy from (\int eps (grad phi)^2 dr):     1410.334749
MG Discrepancy due to finite box and discretization:     -0.640987 (  -0.04543%)
MG Correction to account for finite box:                  0.458410
MG Remaining discrepancy, due to discretization:         -0.182577 (  -0.01294%)
============ Calculation of NGWF S^-1 using Hotelling algorithm ================ 
         Iteration  |  Frobenius norm and Maximum abs value    (of I-S*S_n^-1)   
               1       0.21697864E+01     0.54021859E-01
               2       0.97216851E-01     0.40733582E-02
               3       0.27707086E-03     0.25754495E-04
               4       0.44856703E-08     0.10544740E-08
               5       0.11873578E-12     0.62172489E-14
================================================================================
------------------------------- NGWF line search -------------------------------
RMS gradient                =       0.00166258362141
Trial step length           =               0.122474
Gradient along search dir.  =       -301.06681876232
Functional at step 0        =  -11565.39111744146794
Functional at step 1        =  -11599.34434511989821
Functional predicted        =  -11681.80571457399856
Selected quadratic step     =               0.773347
--------------------------- NGWF line search finished --------------------------
                                               
Writing NGWFs to file "complex_19481.vacuum_tightbox_ngwfs"....  done

>>> Optimising kernel for current NGWFs:
   Initial electron number for spin 1:    7280.22833425
     Final electron number for spin 1:    7234.00000000

=================== Penalty functional idempotency correction ==================
 RMS occupancy error at iteration   1:  0.005295 (step -0.4822 Ne1=   7234.0000)
 RMS occupancy error at iteration   2:  0.000100 (step -0.5003 Ne1=   7234.0000)
            Final RMS occupancy error   :  0.000000 (Ne1=   7234.0000)
               Final occupancy bounds   : [  0.0000,  1.0000]
================================================================================

................................................................................
<<<<<<<<<<<<<< LNV (Original version) density kernel optimisation >>>>>>>>>>>>>>
~~~~~~~~~~~~~~~~~~~~~~~~~~~~~~~~~~~~~~~~~~~~~~~~~~~~~~~~~~~~~~~~~~~~~~~~~~~~~~~~
   iter  |      energy (Eh)       | rms gradient |  commutator  |   dE (Eh)
MG BCs: +ve charge blocks (gridpoints):     25148 (   16779335).
MG BCs: -ve charge blocks (gridpoints):      8412 (    1056143).
MG BCs:     Elided blocks (gridpoints):    184897 (  188384347).
MG BCs: Computational effort saved:  99.9837%.
MG BCs: Charge after coarse-graining:           -9.0007662.
MG DL_MG: Calling solver with defect correction order = 8
MG DL_MG: Solver finished
MG Hartree energy from (\int phi*rho dr):              1281.310780
MG Hartree energy from (\int eps (grad phi)^2 dr):     1280.672503
MG Discrepancy due to finite box and discretization:     -0.638277 (  -0.04981%)
MG Correction to account for finite box:                  0.458322
MG Remaining discrepancy, due to discretization:         -0.179954 (  -0.01404%)
      ideal mu1:      -0.749179691846
             Q0:  -11681.179449200863
             G0:      -9.533534116286
   RMS gradient:       0.000471539731
MG BCs: +ve charge blocks (gridpoints):     25168 (   16782344).
MG BCs: -ve charge blocks (gridpoints):      8416 (    1055506).
MG BCs:     Elided blocks (gridpoints):    184877 (  188381975).
MG BCs: Computational effort saved:  99.9837%.
MG BCs: Charge after coarse-graining:           -9.0007650.
MG DL_MG: Calling solver with defect correction order = 8
MG DL_MG: Solver finished
MG Hartree energy from (\int phi*rho dr):              1284.099890
MG Hartree energy from (\int eps (grad phi)^2 dr):     1283.460481
MG Discrepancy due to finite box and discretization:     -0.639409 (  -0.04979%)
MG Correction to account for finite box:                  0.457892
MG Remaining discrepancy, due to discretization:         -0.181517 (  -0.01414%)
     Trial step:       0.218982723703
             Q1:  -11682.586043942603
 Quadratic coef:       0.681084525557
 Linear coef   :      -2.087679267296
           Qmin:  -11682.779252367562
Quadratic minimum step length (  0.335615973507) accepted
    Initial Ne1:    7233.99890733
      Final Ne1:    7234.00000000

=================== Penalty functional idempotency correction ==================
 RMS occupancy error at iteration   1:  0.000416 (step -0.4937 Ne1=   7234.0000)
 RMS occupancy error at iteration   2:  0.000006 (step -0.5003 Ne1=   7234.0000)
            Final RMS occupancy error   :  0.000000 (Ne1=   7234.0000)
               Final occupancy bounds   : [  0.0000,  1.0000]
================================================================================

    1        -1.168117944920E+04     4.7154E-04     4.2682E-04
MG BCs: +ve charge blocks (gridpoints):     25182 (   16783870).
MG BCs: -ve charge blocks (gridpoints):      8414 (    1055178).
MG BCs:     Elided blocks (gridpoints):    184863 (  188380777).
MG BCs: Computational effort saved:  99.9837%.
MG BCs: Charge after coarse-graining:           -9.0007644.
MG DL_MG: Calling solver with defect correction order = 8
MG DL_MG: Solver finished
MG Hartree energy from (\int phi*rho dr):              1285.885507
MG Hartree energy from (\int eps (grad phi)^2 dr):     1285.245457
MG Discrepancy due to finite box and discretization:     -0.640050 (  -0.04978%)
MG Correction to account for finite box:                  0.457678
MG Remaining discrepancy, due to discretization:         -0.182373 (  -0.01418%)
      ideal mu1:      -0.755805025503
             Q0:  -11682.785449473886
             G0:      -1.173107149682
   RMS gradient:       0.000164606930
MG BCs: +ve charge blocks (gridpoints):     25185 (   16782584).
MG BCs: -ve charge blocks (gridpoints):      8417 (    1055910).
MG BCs:     Elided blocks (gridpoints):    184860 (  188381331).
MG BCs: Computational effort saved:  99.9837%.
MG BCs: Charge after coarse-graining:           -9.0007645.
MG DL_MG: Calling solver with defect correction order = 8
MG DL_MG: Solver finished
MG Hartree energy from (\int phi*rho dr):              1285.898578
MG Hartree energy from (\int eps (grad phi)^2 dr):     1285.258527
MG Discrepancy due to finite box and discretization:     -0.640051 (  -0.04977%)
MG Correction to account for finite box:                  0.457420
MG Remaining discrepancy, due to discretization:         -0.182631 (  -0.01420%)
     Trial step:       0.271097952771
             Q1:  -11683.025138351135
 Quadratic coef:       0.078338069410
 Linear coef   :      -0.318026946660
           Qmin:  -11683.108220827467
Quadratic minimum step length (  0.550284522038) accepted
    Initial Ne1:    7233.99973776
      Final Ne1:    7234.00000000

=================== Penalty functional idempotency correction ==================
 RMS occupancy error at iteration   1:  0.000808 (step -0.4453 Ne1=   7234.0000)
 RMS occupancy error at iteration   2:  0.000024 (step -0.4999 Ne1=   7234.0000)
            Final RMS occupancy error   :  0.000000 (Ne1=   7234.0000)
               Final occupancy bounds   : [  0.0000,  1.0000]
================================================================================

    2        -1.168278544947E+04     1.6461E-04     1.4900E-04    -1.6060E+00
MG BCs: +ve charge blocks (gridpoints):     25190 (   16781317).
MG BCs: -ve charge blocks (gridpoints):      8417 (    1056700).
MG BCs:     Elided blocks (gridpoints):    184855 (  188381808).
MG BCs: Computational effort saved:  99.9837%.
MG BCs: Charge after coarse-graining:           -9.0007646.
MG DL_MG: Calling solver with defect correction order = 8
MG DL_MG: Solver finished
MG Hartree energy from (\int phi*rho dr):              1285.912371
MG Hartree energy from (\int eps (grad phi)^2 dr):     1285.272277
MG Discrepancy due to finite box and discretization:     -0.640094 (  -0.04978%)
MG Correction to account for finite box:                  0.457193
MG Remaining discrepancy, due to discretization:         -0.182902 (  -0.01422%)
      ideal mu1:      -0.757876904135
             Q0:  -11683.104755508015
             G0:      -0.419961625535
   RMS gradient:       0.000099364743
MG BCs: +ve charge blocks (gridpoints):     25184 (   16780264).
MG BCs: -ve charge blocks (gridpoints):      8420 (    1057126).
MG BCs:     Elided blocks (gridpoints):    184861 (  188382435).
MG BCs: Computational effort saved:  99.9837%.
MG BCs: Charge after coarse-graining:           -9.0007647.
MG DL_MG: Calling solver with defect correction order = 8
MG DL_MG: Solver finished
MG Hartree energy from (\int phi*rho dr):              1285.167844
MG Hartree energy from (\int eps (grad phi)^2 dr):     1284.528118
MG Discrepancy due to finite box and discretization:     -0.639727 (  -0.04978%)
MG Correction to account for finite box:                  0.456903
MG Remaining discrepancy, due to discretization:         -0.182823 (  -0.01423%)
     Trial step:       0.386239572501
             Q1:  -11683.223888308974
 Quadratic coef:       0.043072997754
 Linear coef   :      -0.162205798714
           Qmin:  -11683.257465572951
Quadratic minimum step length (  0.727257233288) accepted
    Initial Ne1:    7233.99984776
      Final Ne1:    7234.00000000

=================== Penalty functional idempotency correction ==================
 RMS occupancy error at iteration   1:  0.002146 (step -0.3696 Ne1=   7234.0000)
 RMS occupancy error at iteration   2:  0.000046 (step -0.4998 Ne1=   7234.0000)
            Final RMS occupancy error   :  0.000000 (Ne1=   7234.0000)
               Final occupancy bounds   : [ -0.0000,  1.0000]
================================================================================

    3        -1.168310475551E+04     9.9365E-05     8.9942E-05    -3.1931E-01
MG BCs: +ve charge blocks (gridpoints):     25180 (   16779277).
MG BCs: -ve charge blocks (gridpoints):      8424 (    1057543).
MG BCs:     Elided blocks (gridpoints):    184865 (  188383005).
MG BCs: Computational effort saved:  99.9837%.
MG BCs: Charge after coarse-graining:           -9.0007648.
MG DL_MG: Calling solver with defect correction order = 8
MG DL_MG: Solver finished
MG Hartree energy from (\int phi*rho dr):              1284.516309
MG Hartree energy from (\int eps (grad phi)^2 dr):     1283.876822
MG Discrepancy due to finite box and discretization:     -0.639487 (  -0.04978%)
MG Correction to account for finite box:                  0.456734
MG Remaining discrepancy, due to discretization:         -0.182753 (  -0.01423%)
      ideal mu1:      -0.758066805026
             Q0:  -11683.260283616954
             G0:      -0.206805459867
   RMS gradient:       0.000067034434
MG BCs: +ve charge blocks (gridpoints):     25182 (   16779707).
MG BCs: -ve charge blocks (gridpoints):      8423 (    1057336).
MG BCs:     Elided blocks (gridpoints):    184863 (  188382782).
MG BCs: Computational effort saved:  99.9837%.
MG BCs: Charge after coarse-graining:           -9.0007648.
MG DL_MG: Calling solver with defect correction order = 8
MG DL_MG: Solver finished
MG Hartree energy from (\int phi*rho dr):              1284.713767
MG Hartree energy from (\int eps (grad phi)^2 dr):     1284.074596
MG Discrepancy due to finite box and discretization:     -0.639171 (  -0.04975%)
MG Correction to account for finite box:                  0.456590
MG Remaining discrepancy, due to discretization:         -0.182581 (  -0.01421%)
     Trial step:       0.529995776289
             Q1:  -11683.324217401678
 Quadratic coef:       0.045672235519
 Linear coef   :      -0.109606020243
           Qmin:  -11683.326042822393
Quadratic minimum step length (  0.635952314618) accepted
    Initial Ne1:    7234.00002836
      Final Ne1:    7234.00000000

=================== Penalty functional idempotency correction ==================
 RMS occupancy error at iteration   1:  0.002050 (step -0.3732 Ne1=   7234.0000)
 RMS occupancy error at iteration   2:  0.000024 (step -0.4999 Ne1=   7234.0000)
            Final RMS occupancy error   :  0.000000 (Ne1=   7234.0000)
               Final occupancy bounds   : [ -0.0000,  1.0000]
================================================================================

    4        -1.168326028362E+04     6.7034E-05     6.0678E-05    -1.5553E-01
MG BCs: +ve charge blocks (gridpoints):     25183 (   16779842).
MG BCs: -ve charge blocks (gridpoints):      8423 (    1057255).
MG BCs:     Elided blocks (gridpoints):    184862 (  188382728).
MG BCs: Computational effort saved:  99.9837%.
MG BCs: Charge after coarse-graining:           -9.0007648.
MG DL_MG: Calling solver with defect correction order = 8
MG DL_MG: Solver finished
MG Hartree energy from (\int phi*rho dr):              1284.753596
MG Hartree energy from (\int eps (grad phi)^2 dr):     1284.114506
MG Discrepancy due to finite box and discretization:     -0.639090 (  -0.04974%)
MG Correction to account for finite box:                  0.456543
MG Remaining discrepancy, due to discretization:         -0.182548 (  -0.01421%)
      ideal mu1:      -0.759402877406
             Q0:  -11683.336801030790
             G0:      -0.108501564101
   RMS gradient:       0.000044681041
MG BCs: +ve charge blocks (gridpoints):     25182 (   16781453).
MG BCs: -ve charge blocks (gridpoints):      8418 (    1056636).
MG BCs:     Elided blocks (gridpoints):    184863 (  188381736).
MG BCs: Computational effort saved:  99.9837%.
MG BCs: Charge after coarse-graining:           -9.0007646.
MG DL_MG: Calling solver with defect correction order = 8
MG DL_MG: Solver finished
MG Hartree energy from (\int phi*rho dr):              1285.648816
MG Hartree energy from (\int eps (grad phi)^2 dr):     1285.009839
MG Discrepancy due to finite box and discretization:     -0.638977 (  -0.04970%)
MG Correction to account for finite box:                  0.456472
MG Remaining discrepancy, due to discretization:         -0.182505 (  -0.01420%)
     Trial step:       0.580561831908
             Q1:  -11683.366363042267
 Quadratic coef:       0.033429855343
 Linear coef   :      -0.062991866819
           Qmin:  -11683.366474919927
Quadratic minimum step length (  0.546976246548) accepted
    Initial Ne1:    7234.00005031
      Final Ne1:    7234.00000000

=================== Penalty functional idempotency correction ==================
 RMS occupancy error at iteration   1:  0.001266 (step -0.4124 Ne1=   7234.0000)
 RMS occupancy error at iteration   2:  0.000008 (step -0.4999 Ne1=   7234.0000)
            Final RMS occupancy error   :  0.000000 (Ne1=   7234.0000)
               Final occupancy bounds   : [ -0.0000,  1.0000]
================================================================================

    5        -1.168333680103E+04     4.4681E-05     4.0444E-05    -7.6517E-02
MG BCs: +ve charge blocks (gridpoints):     25182 (   16781352).
MG BCs: -ve charge blocks (gridpoints):      8418 (    1056668).
MG BCs:     Elided blocks (gridpoints):    184863 (  188381805).
MG BCs: Computational effort saved:  99.9837%.
MG BCs: Charge after coarse-graining:           -9.0007646.
MG DL_MG: Calling solver with defect correction order = 8
MG DL_MG: Solver finished
MG Hartree energy from (\int phi*rho dr):              1285.597786
MG Hartree energy from (\int eps (grad phi)^2 dr):     1284.958825
MG Discrepancy due to finite box and discretization:     -0.638962 (  -0.04970%)
MG Correction to account for finite box:                  0.456452
MG Remaining discrepancy, due to discretization:         -0.182509 (  -0.01420%)
      ideal mu1:      -0.760905491300
             Q0:  -11683.371383733582
             G0:      -0.036802622337
   RMS gradient:       0.000025879855
MG BCs: +ve charge blocks (gridpoints):     25183 (   16781464).
MG BCs: -ve charge blocks (gridpoints):      8418 (    1056671).
MG BCs:     Elided blocks (gridpoints):    184862 (  188381690).
MG BCs: Computational effort saved:  99.9837%.
MG BCs: Charge after coarse-graining:           -9.0007646.
MG DL_MG: Calling solver with defect correction order = 8
MG DL_MG: Solver finished
MG Hartree energy from (\int phi*rho dr):              1285.548497
MG Hartree energy from (\int eps (grad phi)^2 dr):     1284.909519
MG Discrepancy due to finite box and discretization:     -0.638979 (  -0.04970%)
MG Correction to account for finite box:                  0.456413
MG Remaining discrepancy, due to discretization:         -0.182566 (  -0.01420%)
     Trial step:       0.563518883185
             Q1:  -11683.383433182025
 Quadratic coef:       0.008689524195
 Linear coef   :      -0.020738972638
           Qmin:  -11683.383757972275
Quadratic minimum step length (  0.672465053167) accepted
    Initial Ne1:    7234.00003452
      Final Ne1:    7234.00000000

=================== Penalty functional idempotency correction ==================
 RMS occupancy error at iteration   1:  0.000769 (step -0.4425 Ne1=   7234.0000)
 RMS occupancy error at iteration   2:  0.000003 (step -0.5000 Ne1=   7234.0000)
            Final RMS occupancy error   :  0.000000 (Ne1=   7234.0000)
[...]
 RMS occupancy error at iteration   1:  0.000000 (step -0.5000 Ne1=   7234.0000)
            Final RMS occupancy error   :  0.000000 (Ne1=   7234.0000)
               Final occupancy bounds   : [ -0.0000,  1.0000]
================================================================================

    7        -1.171936393730E+04     4.5838E-09     4.1491E-09     1.1642E-10

Reusing previously generated solute cavity.
MG BCs: +ve charge blocks (gridpoints):     29665 (   18989451).
MG BCs: -ve charge blocks (gridpoints):      8438 (    1034799).
MG BCs:     Elided blocks (gridpoints):    180380 (  186195575).
MG BCs: Computational effort saved:  99.9815%.
MG BCs: Charge after coarse-graining:           -9.0010186.
MG DL_MG: Calling solver with defect correction order = 8
MG DL_MG: Solver finished
MG Hartree energy from (\int phi*rho dr):              1236.606470
MG Hartree energy from (\int eps (grad phi)^2 dr):     1236.418305
MG Discrepancy due to finite box and discretization:     -0.188166 (  -0.01522%)
MG Correction to account for finite box:                  0.006237
MG Remaining discrepancy, due to discretization:         -0.181929 (  -0.01471%)
      ideal mu1:      -0.513981930041
             Q0:  -11719.363937297021
             G0:      -0.000000001381
   RMS gradient:       0.000000004120

Reusing previously generated solute cavity.
MG BCs: +ve charge blocks (gridpoints):     29665 (   18989452).
MG BCs: -ve charge blocks (gridpoints):      8438 (    1034799).
MG BCs:     Elided blocks (gridpoints):    180380 (  186195574).
MG BCs: Computational effort saved:  99.9815%.
MG BCs: Charge after coarse-graining:           -9.0010186.
MG DL_MG: Calling solver with defect correction order = 8
MG DL_MG: Solver finished
MG Hartree energy from (\int phi*rho dr):              1236.606483
MG Hartree energy from (\int eps (grad phi)^2 dr):     1236.418317
MG Discrepancy due to finite box and discretization:     -0.188166 (  -0.01522%)
MG Correction to account for finite box:                  0.006237
MG Remaining discrepancy, due to discretization:         -0.181929 (  -0.01471%)
     Trial step:       0.152427657683
             Q1:  -11719.363937296788
 Quadratic coef:       0.000000000444
 Linear coef   :      -0.000000000210
           Qmin:  -11719.363937297047
Quadratic minimum step length (  0.036141149065) accepted
    Initial Ne1:    7234.00000000
      Final Ne1:    7234.00000000

=================== Penalty functional idempotency correction ==================
 RMS occupancy error at iteration   1:  0.000000 (step -0.5000 Ne1=   7234.0000)
            Final RMS occupancy error   :  0.000000 (Ne1=   7234.0000)
               Final occupancy bounds   : [ -0.0000,  1.0000]
================================================================================

    8        -1.171936393730E+04     4.1201E-09     3.7294E-09     1.1642E-10

Reusing previously generated solute cavity.
MG BCs: +ve charge blocks (gridpoints):     29665 (   18989451).
MG BCs: -ve charge blocks (gridpoints):      8438 (    1034799).
MG BCs:     Elided blocks (gridpoints):    180380 (  186195575).
MG BCs: Computational effort saved:  99.9815%.
MG BCs: Charge after coarse-graining:           -9.0010186.
MG DL_MG: Calling solver with defect correction order = 8
MG DL_MG: Solver finished
MG Hartree energy from (\int phi*rho dr):              1236.606473
MG Hartree energy from (\int eps (grad phi)^2 dr):     1236.418308
MG Discrepancy due to finite box and discretization:     -0.188166 (  -0.01522%)
MG Correction to account for finite box:                  0.006237
MG Remaining discrepancy, due to discretization:         -0.181929 (  -0.01471%)
      ideal mu1:      -0.513981930596
             Q0:  -11719.363937297021
             G0:      -0.000000001670
   RMS gradient:       0.000000003775

Reusing previously generated solute cavity.
MG BCs: +ve charge blocks (gridpoints):     29665 (   18989452).
MG BCs: -ve charge blocks (gridpoints):      8438 (    1034799).
MG BCs:     Elided blocks (gridpoints):    180380 (  186195574).
MG BCs: Computational effort saved:  99.9815%.
MG BCs: Charge after coarse-graining:           -9.0010186.
MG DL_MG: Calling solver with defect correction order = 8
MG DL_MG: Solver finished
MG Hartree energy from (\int phi*rho dr):              1236.606481
MG Hartree energy from (\int eps (grad phi)^2 dr):     1236.418316
MG Discrepancy due to finite box and discretization:     -0.188166 (  -0.01522%)
MG Correction to account for finite box:                  0.006237
MG Remaining discrepancy, due to discretization:         -0.181929 (  -0.01471%)
     Trial step:       0.074222036472
             Q1:  -11719.363937296788
 Quadratic coef:       0.000000000357
 Linear coef   :      -0.000000000124
           Qmin:  -11719.363937297032
Quadratic minimum step length (  0.012900399297) accepted
    Initial Ne1:    7234.00000000
      Final Ne1:    7234.00000000

=================== Penalty functional idempotency correction ==================
 RMS occupancy error at iteration   1:  0.000000 (step -0.5000 Ne1=   7234.0000)
            Final RMS occupancy error   :  0.000000 (Ne1=   7234.0000)
               Final occupancy bounds   : [ -0.0000,  1.0000]
================================================================================

    9        -1.171936393730E+04     3.7749E-09     3.4170E-09     0.0000E+00

Reusing previously generated solute cavity.
MG BCs: +ve charge blocks (gridpoints):     29665 (   18989451).
MG BCs: -ve charge blocks (gridpoints):      8438 (    1034799).
MG BCs:     Elided blocks (gridpoints):    180380 (  186195575).
MG BCs: Computational effort saved:  99.9815%.
MG BCs: Charge after coarse-graining:           -9.0010186.
MG DL_MG: Calling solver with defect correction order = 8
MG DL_MG: Solver finished
MG Hartree energy from (\int phi*rho dr):              1236.606475
MG Hartree energy from (\int eps (grad phi)^2 dr):     1236.418309
MG Discrepancy due to finite box and discretization:     -0.188166 (  -0.01522%)
MG Correction to account for finite box:                  0.006237
MG Remaining discrepancy, due to discretization:         -0.181929 (  -0.01471%)
      ideal mu1:      -0.513981930853
   10        -1.171936393730E+04     3.6182E-09     3.2750E-09     0.0000E+00
Finished density kernel iterations (  10)

Writing density kernel to file "complex_19481.dkn" ... done


>>> Density kernel optimised for the current NGWF basis:
     ~~~~~~~~~~~~~~~~~~~~~~~~~~~~~~~~~~~~~~~~~~~~~~~~~~~~~~~~~~~
     Total energy                =  -1.17193639372970E+04  Eh
     Estimated bandgap           =   1.1637E-01  Eh
     RMS occupancy error         =   4.5768E-16
     [H,K] commutator            =   3.2750E-09
     Occupancy bounds            = [ -0.000:  1.000]
     ~~~~~~~~~~~~~~~~~~~~~~~~~~~~~~~~~~~~~~~~~~~~~~~~~~~~~~~~~~~




################################################################################
########################### NGWF CG iteration  005 #############################
################################################################################
****** Reciprocal space K.E. preconditioning with k_zero =  3.5000 a0^-1 *******

>>> Checking for convergence of NGWFs: 
           ........................................................
           |         *** NGWF optimisation converged ***          |
           | RMS NGWF gradient =    0.00000100840621              |
           | Criteria satisfied:                                  |
           | -> RMS NGWF gradient lower than set threshold.       |
           ========================================================

Reusing previously generated solute cavity.
MG BCs: +ve charge blocks (gridpoints):     29665 (   18989451).
MG BCs: -ve charge blocks (gridpoints):      8438 (    1034799).
MG BCs:     Elided blocks (gridpoints):    180380 (  186195575).
MG BCs: Computational effort saved:  99.9815%.
MG BCs: Charge after coarse-graining:           -9.0010186.
MG DL_MG: Calling solver with defect correction order = 8
MG DL_MG: Solver finished
MG Hartree energy from (\int phi*rho dr):              1236.606475
MG Hartree energy from (\int eps (grad phi)^2 dr):     1236.418309
MG Discrepancy due to finite box and discretization:     -0.188166 (  -0.01522%)
MG Correction to account for finite box:                  0.006237
MG Remaining discrepancy, due to discretization:         -0.181929 (  -0.01471%)

================================================================================
           ---------------- ENERGY COMPONENTS (Eh) ----------------
           | Kinetic                    :     8459.41491810477601 |
           | Pseudo. (local,OBC,corr'd) :    -5021.08134694950513 |
           | Pseudopotential (non-local):     1455.90973924525042 |
           | Hartree (molecular)        :     1236.60647472324240 |
           | Exchange-correlation       :    -3354.18831773453076 |
           | Ion-ion (open BC)          :   826349.05788781098090 |
           | Smeared ion non-self corr. :  -826300.76865395356435 |
           | Smeared ion self corr.     :   -14544.93686558573609 |
           | Solvent cavitation energy  :        2.21374025474791 |
           | Solute-solvent dis-rep en. :       -1.59151321264464 |
           | Total                      :   -11719.36393729701558 |
           --------------------------------------------------------
           ------ LOCAL ENERGY COMPONENTS FROM MATRIX TRACES ------
           | Pseudopotential (local)    :    -5021.08134694951696 |
           | Hartree                    :    -1996.18941986528534 |
           --------------------------------------------------------
           Integrated density           :     7233.99999999810916
           Integrated density tr(KS)    :     7233.99999999999909
================================================================================


                        <<<<< CALCULATION SUMMARY >>>>>                         
|ITER|    RMS GRADIENT   |     TOTAL ENERGY    |   step   |     Epredicted              
   0     0.00003875660959 -11719.31362261821050   0.531204 -11719.35707548123901        
   1     0.00001241903475 -11719.36284184560645   0.109893 -11719.36376487026610        
   2     0.00000533748399 -11719.36390273703728   0.018851 -11719.36393198318183        
   3     0.00000232347086 -11719.36393604928162   0.003628 -11719.36393711598066        
   4     0.00000100840621 -11719.36393729702104  <-- CG                                 

=================== Finished the calculation in solvent ========================
= Adjusting the following parameters: 
= read_denskern: F
= read_tightbox_ngwfs: F
= maxit_pen: 0 (restored to user-specified value)
= restart read filename prefix: ""
= restart write filename prefix: ""
================================================================================

================================================================================
IS: Calculation in solvent completed (NGWFs converged).      

Individual components of total energy in solvent:     hartree           kcal/mol
- Usual non-electrostatic DFT terms:    -12956.59263906236811    -8130384.456198
- Electrostatic fixed charge energy:      1236.60647472324240      775982.261742
- Apolar cavitation energy:                  2.21374025474791        1389.142953
- Apolar dispersion-repulsion energy:       -1.59151321264464        -998.689597
 -------------------------------------------------------------------------------
- Total energy in solvent:              -11719.36393729702104    -7354011.741101

Components of total energy in solvent:                hartree           kcal/mol
- Usual non-electrostatic DFT terms:    -12956.59263906236811    -8130384.456198
- Electrostatic energy:                   1236.60647472324240      775982.261742
- Apolar energy terms:                       0.62222704210327         390.453355
 -------------------------------------------------------------------------------
- Total energy in solvent:              -11719.36393729702104    -7354011.741101

Calculation of free energy of solvation:              hartree           kcal/mol
- Total energy in solvent:         (+)  -11719.36393729702104    -7354011.741101
- Total energy in vacuum:          (-)  -11715.37642199348193    -7351509.537525
 -------------------------------------------------------------------------------
- Total free energy of solvation:           -3.98751530353911       -2502.203577

Components of polar term in f.e. of solvation:        hartree           kcal/mol
- Electrostatic:                            -4.85164818882117       -3044.455137
- Change in nonelectrostatic DFT terms:      0.24190584317694         151.798205
 -------------------------------------------------------------------------------
- Polar term in f.e. of solvation:          -4.60974234564424       -2892.656932

Components of free energy of solvation:               hartree           kcal/mol
- Polar term in f.e. of solvation: (+)      -4.60974234564424       -2892.656932
- Apolar (cavitation, dis., rep.): (+)       0.62222704210327         390.453355
 -------------------------------------------------------------------------------
- Total free energy of solvation:           -3.98751530354097       -2502.203577
================================================================================


------------------------------ TIMING INFORMATION ------------------------------
AVERAGE TIME:   87354.644s on     40 node(s)                                    
TOTAL TIME:     87354.645s on     40 node(s)                                    
================= AVERAGE TIMINGS FROM ALL NODES (CUMULATIVE) ==================
|| TAG                                    #calls    cpu time   %total  Gflops ||
|| work_imbalance                       :     1        0.00s   0.000%  ------ ||
|| parallel_prepare_fd_halos_request    :  2565        0.02s   0.000%  ------ ||
|| sparse_set_to_garbage                :   288        0.07s   0.000%  ------ ||
|| parallel_prepare_fd_halos_alloc      :  2565        0.07s   0.000%  ------ ||
|| parallel_prepare_fd_halos_satisfy    :  2565        0.08s   0.000%  ------ ||
|| ngwfs_initialise_from_radial         :     1        0.17s   0.000%  ------ ||
|| basis_extract_function_from_box      :  7039        0.28s   0.000%  ------ ||
|| restart_ngwfs_tightbox_input         :     1        1.14s   0.001%  ------ ||
|| pseudopotentials_nonlocal_mat        :    42        2.12s   0.002%  ------ ||
|| parallel_prepare_fd_halos_comms_imbal:  2565        4.68s   0.005%  ------ ||
|| restart_kernel_read                  :     1        5.61s   0.006%  ------ ||
|| openbc_locps_radial                  :     1        6.09s   0.007%  ------ ||
|| density_init_guess_real              :     1        7.92s   0.009%  ------ ||
|| parallel_prepare_fd_halos_clear      :  2565       18.43s   0.021%  ------ ||
|| sparse_init                          :     2       23.35s   0.027%  ------ ||
|| restart_kernel_write                 :    22       24.93s   0.029%  ------ ||
|| parallel_prepare_fd_halos_comms_wait :  2565       32.64s   0.037%  ------ ||
|| projectors_func_ovlp_box             :    42       32.73s   0.037%  ------ ||
|| projectors_init_fftbox_recip         :   273       36.51s   0.042%  ------ ||
|| function_ops_brappd_ketppd           :    42       38.84s   0.044%  ------ ||
|| palser_mano_kernel_optimise          :     1       43.42s   0.050%  ------ ||
|| parallel_prepare_fd_halos            :  2565       55.94s   0.064%  ------ ||
|| pseudo_make_structure_factor         :     2       62.73s   0.072%  ------ ||
|| ngwf_gradient_coeffs                 :    21       85.33s   0.098%  ------ ||
|| sparse_embed_hotelling_invert_embed  :    42      119.42s   0.137%  ------ ||
|| restart_ngwfs_tightbox_output        :    19      122.11s   0.140%  ------ ||
|| basis_copy_function_to_box           : 220.0k     145.77s   0.167%  ------ ||
|| finite_difference_derivative         :  2565      149.15s   0.171%  ------ ||
|| openbc_locps_on_grid                 :     2      204.17s   0.234%  ------ ||
|| integrals_kinetic                    :    42      250.42s   0.287%  ------ ||
|| projectors_gradient_batch            :   231      276.57s   0.317%  ------ ||
|| sparse_trace                         :  6732      355.60s   0.407%  ------ ||
|| fourier_apply_box_pair               : 61916      411.21s   0.471% 581.120 ||
|| kernel_purify                        :   652      467.44s   0.535%  ------ ||
|| basis_dot_function_with_box          : 25.45M     502.07s   0.575%  ------ ||
|| lnv_gradient_norm                    :   210      764.12s   0.875%  ------ ||
|| kernel_fix                           :   210      799.10s   0.915%  ------ ||
|| hamiltonian_energy_components        :     5      921.59s   1.055%  ------ ||
|| integrals_locpot_mat_els_batch       :  2431     1200.91s   1.375%  ------ ||
|| basis_add_function_to_box            : 68.14M    1285.02s   1.471%  ------ ||
|| ke_density_batch_grad_apply          :  4686     1350.38s   1.546%  ------ ||
|| ke_density_batch_row_sums            :  4686     1693.12s   1.938%  ------ ||
|| density_batch_row_sums               :  4686     1696.27s   1.942%  ------ ||
|| fourier_apply_cell_backward          : 11509     2083.56s   2.385%  80.936 ||
|| density_fftbox_deposit_to_cell       : 69864     2087.02s   2.389%  ------ ||
|| ke_density_fftbox_deposit_to_cell    : 69864     2222.27s   2.544%  ------ ||
|| fourier_apply_cell_forward           : 11507     2432.60s   2.785%  69.310 ||
|| cell_grid_deposit_box_real           : 142.4k    2561.14s   2.932%  ------ ||
|| sparse_product                       :  8555     2838.68s   3.250%  ------ ||
|| cell_grid_extract_box_real           : 175.1k    2904.95s   3.325%  ------ ||
|| ngwf_gradient_build_batch            :   231     3101.91s   3.551%  ------ ||
|| multigrid_prepare_bound_cond         :   427     3480.83s   3.985%  ------ ||
|| ngwf_gradient_batch                  :   231     3502.17s   4.009%  ------ ||
|| ngwf_gradient_lnv                    :    21     3740.79s   4.282%  ------ ||
|| potential_apply_to_ngwf_batch        :  2431     4357.66s   4.988%  ------ ||
|| density_fftbox_interpolate_multiply  : 69864     4813.33s   5.510%  ------ ||
|| integrals_locpot_dbl_grid            :   221     5589.70s   6.399%  ------ ||
|| xc_energy_potential                  :   427     6037.85s   6.912%  ------ ||
|| density_batch_interp_deposit         :  4686     7792.21s   8.920%  ------ ||
|| dl_mg_solver_calls                   :   427     9478.13s  10.850%  ------ ||
|| density_on_dbl_grid                  :   426    10044.14s  11.498%  ------ ||
|| nlxc_vdw_energy                      :   852    10101.24s  11.563%  ------ ||
|| potential_apply_to_fftbox_batch      :  6930    11624.49s  13.307%  ------ ||
|| multigrid_calculate_hartree          :   427    13172.16s  15.079%  ------ ||
|| integrals_div_locpot_grad_functions  :   210    17465.98s  19.994%  ------ ||
|| ke_density_fftbox_interpolate_multipl: 69864    19169.18s  21.944%  ------ ||
|| ke_density_batch_interp_deposit      :  4686    22297.59s  25.525%  ------ ||
|| fourier_apply_box                    : 1.584M   25119.53s  28.756% 805.722 ||
|| ke_density_on_dbl_grid               :   426    25935.53s  29.690%  ------ ||
|| hamiltonian_lhxc_calculate           :   421    55200.84s  63.192%  ------ ||
|| lnv_denskernel_optimise_cg           :    21    78319.98s  89.657%  ------ ||
|| ngwf_cg_optimise                     :     2    86501.70s  99.024%  ------ ||
|| total_time                           :     1    87354.64s 100.000%  ------ ||
================================================================================
Overhead of generating timer report: 
- 0 ms averaging over threads,
- 7 ms ensuring consistency across MPI ranks,
- 2 ms printing in order.

Job completed: 24-03-2020 08:01 (-0000)

