      -----------------------------------------------------------      
     |                   =====================                   |     
     |                           x T B                           |     
     |                   =====================                   |     
     |                         S. Grimme                         |     
     |          Mulliken Center for Theoretical Chemistry        |     
     |                    University of Bonn                     |     
      -----------------------------------------------------------      

   * xtb version 6.2.3 (d7bf61a) compiled by 'conda@06d140edd85e' on 2020-05-12

   xtb is free software: you can redistribute it and/or modify it under
   the terms of the GNU Lesser General Public License as published by
   the Free Software Foundation, either version 3 of the License, or
   (at your option) any later version.
   
   xtb is distributed in the hope that it will be useful,
   but WITHOUT ANY WARRANTY; without even the implied warranty of
   MERCHANTABILITY or FITNESS FOR A PARTICULAR PURPOSE.  See the
   GNU Lesser General Public License for more details.
   
   Cite this work as:
   * S. Grimme, C. Bannwarth, P. Shushkov, J. Chem. Theory Comput., 2017,
     13, 1989-2009. DOI: 10.1021/acs.jctc.7b00118
   * C. Bannwarth, S. Ehlert and S. Grimme., J. Chem. Theory Comput., 2019,
     15, 1652-1671. DOI: 10.1021/acs.jctc.8b01176
   * P. Pracht, E. Caldeweyher, S. Ehlert, S. Grimme, ChemRxiv, 2019, preprint.
     DOI: 10.26434/chemrxiv.8326202.v1
   
   for DFT-D4:
   * E. Caldeweyher, C. Bannwarth and S. Grimme, J. Chem. Phys., 2017,
     147, 034112. DOI: 10.1063/1.4993215
   * E. Caldeweyher, S. Ehlert, A. Hansen, H. Neugebauer, S. Spicher,
     C. Bannwarth and S. Grimme, J. Chem. Phys., 2019, 150, 154122.
     DOI: 10.1063/1.5090222
   
   for sTDA-xTB:
   * S. Grimme and C. Bannwarth, J. Chem. Phys., 2016, 145, 054103.
     DOI: 10.1063/1.4959605
   
   in the mass-spec context:
   * V. Asgeirsson, C. Bauer and S. Grimme, Chem. Sci., 2017, 8, 4879.
     DOI: 10.1039/c7sc00601b
   
   for metadynamics refer to:
   * S. Grimme, J. Chem. Theory Comput., 2019, 155, 2847-2862
     DOI: 10.1021/acs.jctc.9b00143
   
   with help from (in alphabetical order)
   C. Bannwarth, F. Bohle, G. Brandenburg, E. Caldeweyher, M. Checinski,
   S. Dohm, S. Ehlert, S. Ehrlich, F. März, H. Neugebauer, J. Pisarek,
   P. Pracht, P. Shushkov, and S. Spicher.
   
 * started run on 2020/06/10 at 11:44:51.232     

           -------------------------------------------------
          |                Calculation Setup                |
           -------------------------------------------------

          program call               : xtb complex_11501.xyz --chrg +9 --uhf 0 --gbsa water
          hostname                   : gold51.cluster.local
          coordinate file            : complex_11501.xyz
          omp threads                :                    64
          number of atoms            :                  2618
          number of electrons        :                  7234
          charge                     :                     9
          spin                       :                   0.0
          first test random number   :      0.89097219998889


molecular fragmentation (1/2 indicates fragments):
111111111111111111111111111111111111111111111111111111111111111111111111
111111111111111111111111111111111111111111111111111111111111111111111111
111111111111111111111111111111111111111111111111111111111111111111111111
111111111111111111111111111111111111111111111111111111111111111111111111
111111111111111111111111111111111111111111111111111111111111111111111111
111111111111111111111111111111111111111111111111111111111111111111111111
111111111111111111111111111111111111111111111111111111111111111111111111
111111111111111111111111111111111111111111111111111111111111111111111111
111111111111111111111111111111111111111111111111111111111111111111111111
111111111111111111111111111111111111111111111111111111111111111111111111
111111111111111111111111111111111111111111111111111111111111111111111111
111111111111111111111111111111111111111111111111111111111111111111111111
111111111111111111111111111111111111111111111111111111111111111111111111
111111111111111111111111111111111111111111111111111111111111111111111111
111111111111111111111111111111111111111111111111111111111111111111111111
111111111111111111111111111111111111111111111111111111111111111111111111
111111111111111111111111111111111111111111111111111111111111111111111111
111111111111111111111111111111111111111111111111111111111111111111111111
111111111111111111111111111111111111111111111111111111111111111111111111
111111111111111111111111111111111111111111111111111111111111111111111111
111111111111111111111111111111111111111111111111111111111111111111111111
111111111111111111111111111111111111111111111111111111111111111111111111
111111111111111111111111111111111111111111111111111111111111111111111111
111111111111111111111111111111111111111111111111111111111111111111111111
111111111111111111111111111111111111111111111111111111111111111111111111
111111111111111111111111111111111111111111111111111111111111111111111111
111111111111111111111111111111111111111111111111111111111111111111111111
111111111111111111111111111111111111111111111111111111111111111111111111
111111111111111111111111111111111111111111111111111111111111111111111111
111111111111111111111111111111111111111111111111111111111111111111111111
111111111111111111111111111111111111111111111111111111111111111111111111
111111111111111111111111111111111111111111111111111111111111111111111111
111111111111111111111111111111111111111111111111111111111111111111111111
111111111111111111111111111111111111111111111111111111111111111111111111
111111111111111111111111111111111111111111111111111111111111111111111111
111111111111111111111111111111111111111111111111111111111111111111111111
11111111112222222222222222
# atoms in fragment 1/2:  2602    16
 fragment masses (1/2) :    18371.93      108.14
CMA distance (Bohr)    :  19.978
constraining FC (au)   :  0.0500
########################################################################
[WARNING] Please study the warnings concerning your input carefully
-2- prog_main: XTBPATH is not set, using XTBHOME instead
-1- prog_main: XTBHOME is not set, using HOME instead
########################################################################
           ------------------------------------------------- 
          |                 G F N 2 - x T B                 |
          | Geometry, Frequencies, Noncovalent interactions |
          |            JCTC 2019 parametrisation            |
           ------------------------------------------------- 
             k(s)              :                1.8500
             k(p)              :                2.2300
             k(d)              :                2.2300
             k(f)              :                2.0000
             kEN (H0ij)        :               -2.0000
             D4 a1             :                0.5200
             D4 a2             :                5.0000
             D4 s6             :                1.0000
             D4 s8             :                2.7000
             D4 s9             :                5.0000
             alphaj            :                2.0000

  Z AO/shell   Hii/eV     exponent
  1     Wed Apr 25 08:07:45 CEST 2018   EN: 2.200 GM2: 0.406  GM3: 0.0800  RAES: 1.40
     1s    -10.707211    1.230000
  6     Wed Apr 25 08:07:45 CEST 2018   EN: 2.550 GM2: 0.538  GM3: 0.1500  RAES: 3.00
     2s    -13.970922    2.096432
     2p    -10.063292    1.800000
  7     Wed Apr 25 08:07:45 CEST 2018   EN: 3.040 GM2: 0.461  GM3:-0.0640  RAES: 1.90
     2s    -16.686243    2.339881
     2p    -12.523956    2.014332
  8     Wed Apr 25 08:07:45 CEST 2018   EN: 3.440 GM2: 0.452  GM3:-0.0517  RAES: 1.80
     2s    -20.229985    2.439742
     2p    -15.503117    2.137023
 16     Tue Apr 24 11:44:34 CEST 2018   EN: 2.580 GM2: 0.340  GM3:-0.0502  RAES: 3.10
     3s    -20.029654    1.981333
     3p    -11.377694    2.025643
     3d     -0.420282    1.702555

 Solvent             : water
 Using internal parameter file: .param_gbsa2_water
 Gsolv ref. state (COSMO-RS): gsolv [1 M gas/solution]
 temperature (mdtemp)       :    298.14999999999998     
 dielectric constant        :    80.200000000000003     
 rho                        :    1.0000000000000000     
 mass                       :    18.000000000000000     
 surface tension            :    15.568945408385856     
 probe radius               :   0.97531378999999996     
 Gshift (Eh)                :    1.8574431267947933E-003
 c1                         :    1.5524381700000001     
 soset                      :   0.13032636000000000     
 HB correction              :  T
           ------------------------------------------------- 
          |        Self-Consistent Charge Iterations        |
           ------------------------------------------------- 

          ...................................................
          :                      SETUP                      :
          :.................................................:
          :  # basis functions                6551          :
          :  # atomic orbitals                6545          :
          :  # shells                         3923          :
          :  # electrons                      7234          :
          :  max. iterations                   250          :
          :  Hamiltonian                  GFN2-xTB          :
          :  restarted?                      false          :
          :  GBSA solvation                   true          :
          :  PC potential                    false          :
          :  electronic temp.          300.0000000     K    :
          :  accuracy                    1.0000000          :
          :  -> integral cutoff          0.2500000E+02      :
          :  -> integral neglect         0.1000000E-07      :
          :  -> SCF convergence          0.1000000E-05 Eh   :
          :  -> wf. convergence          0.1000000E-03 e    :
          :  Broyden damping             0.4000000          :
          ...................................................

 iter      E             dE          RMSdq      gap      omega  full diag
   1  -4143.7623110 -0.414376E+04  0.427E+00    2.20       0.0  T
   2  -4156.0897493 -0.123274E+02  0.225E+00    2.30       1.0  T
   3  -4156.5685082 -0.478759E+00  0.119E+00    1.96       1.0  T
   4  -4156.6390400 -0.705318E-01  0.286E-01    1.65       1.0  T
   5  -4156.7441686 -0.105129E+00  0.139E-01    1.50       1.0  T
   6  -4156.7573940 -0.132254E-01  0.712E-02    1.58       1.0  T
   7  -4156.7595468 -0.215283E-02  0.369E-02    1.54       1.0  T
   8  -4156.7606618 -0.111494E-02  0.162E-02    1.51       1.0  T
   9  -4156.7608175 -0.155751E-03  0.987E-03    1.49       1.0  T
  10  -4156.7609003 -0.827337E-04  0.524E-03    1.46       1.0  T
  11  -4156.7609244 -0.241745E-04  0.256E-03    1.46       1.0  T
  12  -4156.7609304 -0.592747E-05  0.140E-03    1.45       1.4  T
  13  -4156.7609321 -0.174444E-05  0.758E-04    1.45       2.6  T
  14  -4156.7609326 -0.493586E-06  0.388E-04    1.44       5.0  T
  15  -4156.7609328 -0.145812E-06  0.205E-04    1.44       9.6  T

   *** convergence criteria satisfied after 15 iterations ***

         #    Occupation            Energy/Eh            Energy/eV
      -------------------------------------------------------------
         1        2.0000           -0.7696680             -20.9437
       ...           ...                  ...                  ...
      3611        2.0000           -0.3599954              -9.7960
      3612        2.0000           -0.3599930              -9.7959
      3613        2.0000           -0.3589534              -9.7676
      3614        2.0000           -0.3575306              -9.7289
      3615        2.0000           -0.3567370              -9.7073
      3616        2.0000           -0.3518201              -9.5735
      3617        2.0000           -0.3405362              -9.2665 (HOMO)
      3618                         -0.2874768              -7.8226 (LUMO)
      3619                         -0.2776134              -7.5542
      3620                         -0.2748853              -7.4800
      3621                         -0.2653498              -7.2205
      3622                         -0.2649603              -7.2099
       ...                                ...                  ...
      6545                          0.7314055              19.9026
      -------------------------------------------------------------
                  HL-Gap            0.0530594 Eh            1.4438 eV
             Fermi-level           -0.3140065 Eh           -8.5446 eV

 SCC (total)                   0 d,  0 h,  6 min, 43.790 sec
 SCC setup                      ...        0 min,  3.187 sec (  0.789%)
 Dispersion                     ...        0 min,  2.036 sec (  0.504%)
 integral evaluation            ...        0 min, 12.232 sec (  3.029%)
 zeroth order Hamiltonian       ...        0 min,  0.351 sec (  0.087%)
 iterations                     ...        6 min,  7.122 sec ( 90.919%)
 molecular gradient             ...        0 min, 18.159 sec (  4.497%)
 printout                       ...        0 min,  0.703 sec (  0.174%)

         :::::::::::::::::::::::::::::::::::::::::::::::::::::
         ::                     SUMMARY                     ::
         :::::::::::::::::::::::::::::::::::::::::::::::::::::
         :: total energy           -4108.346952776797 Eh    ::
         :: total w/o Gsasa/hb     -4107.963701765882 Eh    ::
         :: gradient norm              1.340842520483 Eh/a0 ::
         :: HOMO-LUMO gap              1.443819806305 eV    ::
         ::.................................................::
         :: SCC energy             -4156.820599108708 Eh    ::
         :: -> isotropic ES           14.046044490696 Eh    ::
         :: -> anisotropic ES         -0.710371270997 Eh    ::
         :: -> anisotropic XC          1.176100287025 Eh    ::
         :: -> dispersion             -3.964060985570 Eh    ::
         :: -> Gsolv                  -3.892411397676 Eh    ::
         ::    -> Gborn               -3.509160386760 Eh    ::
         ::    -> Gsasa               -0.061523800758 Eh    ::
         ::    -> Ghb                 -0.323584653284 Eh    ::
         ::    -> Gshift               0.001857443127 Eh    ::
         :: repulsion energy          47.907123673244 Eh    ::
         :: add. restraining           0.000000000000 Eh    ::
         :::::::::::::::::::::::::::::::::::::::::::::::::::::

           -------------------------------------------------
          |                Property Printout                |
           -------------------------------------------------

    * Orbital Energies and Occupations

         #    Occupation            Energy/Eh            Energy/eV
      -------------------------------------------------------------
         1        2.0000           -0.7696680             -20.9437
       ...           ...                  ...                  ...
      3605        2.0000           -0.3664835              -9.9725
      3606        2.0000           -0.3664417              -9.9714
      3607        2.0000           -0.3637724              -9.8987
      3608        2.0000           -0.3623698              -9.8606
      3609        2.0000           -0.3609948              -9.8232
      3610        2.0000           -0.3603027              -9.8043
      3611        2.0000           -0.3599954              -9.7960
      3612        2.0000           -0.3599930              -9.7959
      3613        2.0000           -0.3589534              -9.7676
      3614        2.0000           -0.3575306              -9.7289
      3615        2.0000           -0.3567370              -9.7073
      3616        2.0000           -0.3518201              -9.5735
      3617        2.0000           -0.3405362              -9.2665 (HOMO)
      3618                         -0.2874768              -7.8226 (LUMO)
      3619                         -0.2776134              -7.5542
      3620                         -0.2748853              -7.4800
      3621                         -0.2653498              -7.2205
      3622                         -0.2649603              -7.2099
      3623                         -0.2648155              -7.2060
      3624                         -0.2644859              -7.1970
      3625                         -0.2635191              -7.1707
      3626                         -0.2626305              -7.1465
      3627                         -0.2625179              -7.1435
      3628                         -0.2614609              -7.1147
       ...                                ...                  ...
      6545                          0.7314055              19.9026
      -------------------------------------------------------------
                  HL-Gap            0.0530594 Eh            1.4438 eV
             Fermi-level           -0.3140065 Eh           -8.5446 eV

     #   Z        covCN         q      C6AA      α(0)
     1   7 N      3.486    -0.146    24.153     7.299
     2   1 H      0.860     0.312     0.678     1.290
     3   1 H      0.860     0.305     0.698     1.309
     4   1 H      0.860     0.317     0.666     1.278
     5   6 C      3.780    -0.025    21.043     6.535
     6   1 H      0.925     0.116     1.647     2.007
     7   6 C      3.817    -0.090    22.202     6.706
     8   1 H      0.924     0.106     1.730     2.057
     9   1 H      0.925     0.088     1.899     2.155
    10   6 C      3.799    -0.023    20.991     6.523
    11   1 H      0.937     0.089     1.885     2.147
    12   1 H      0.925     0.073     2.049     2.238
    13  16 S      1.975    -0.229   150.844    20.671
    14   6 C      3.744    -0.050    21.552     6.623
    15   1 H      0.925     0.046     2.365     2.405
    16   1 H      0.925     0.026     2.639     2.540
    17   1 H      0.925     0.048     2.350     2.397
    18   6 C      2.750     0.260    22.622     7.788
    19   8 O      0.859    -0.446    22.617     6.376
    20   7 N      2.683    -0.140    24.040     7.282
    21   1 H      0.860     0.197     1.121     1.658
    22   6 C      3.787     0.011    20.406     6.434
    23   1 H      0.924     0.121     1.605     1.981
    24   6 C      3.800    -0.121    22.825     6.802
    25   1 H      0.924     0.102     1.771     2.081
    26   1 H      0.924     0.095     1.835     2.119
    27   6 C      2.739     0.286    22.146     7.705
    28   8 O      0.865    -0.468    23.093     6.443
    29   7 N      2.641    -0.284    27.337     7.765
    30   1 H      0.860     0.211     1.052     1.607
    31   1 H      0.860     0.232     0.957     1.532
    32   6 C      2.744     0.262    22.585     7.781
    33   8 O      0.857    -0.486    23.487     6.498
    34   7 N      2.682    -0.174    24.759     7.390
    35   1 H      0.860     0.222     1.002     1.568
    36   6 C      3.782     0.003    20.548     6.457
    37   1 H      0.925     0.094     1.838     2.120
    38   6 C      3.846    -0.041    21.279     6.562
    39   1 H      0.924     0.080     1.980     2.200
    40   6 C      3.753    -0.137    23.200     6.869
    41   1 H      0.925     0.045     2.379     2.412
    42   1 H      0.924     0.054     2.266     2.354
    43   1 H      0.924     0.065     2.142     2.289
    44   6 C      3.796    -0.067    21.797     6.648
    45   1 H      0.924     0.045     2.383     2.414
    46   1 H      0.925     0.053     2.283     2.363
    47   6 C      3.752    -0.119    22.838     6.815
    48   1 H      0.925     0.050     2.325     2.384
    49   1 H      0.925     0.056     2.248     2.345
    50   1 H      0.924     0.040     2.453     2.449
    51   6 C      2.743     0.260    22.618     7.787
    52   8 O      0.858    -0.490    23.558     6.507
    53   7 N      2.685    -0.171    24.702     7.382
    54   1 H      0.860     0.219     1.013     1.577
    55   6 C      3.797     0.016    20.314     6.418
    56   1 H      0.924     0.091     1.865     2.136
    57   6 C      3.816    -0.096    22.308     6.722
    58   1 H      0.925     0.073     2.057     2.243
    59   1 H      0.925     0.074     2.043     2.235
    60   6 C      2.965     0.007    27.861     8.658
    61   6 C      2.902    -0.047    29.164     8.855
    62   1 H      0.926     0.061     2.191     2.315
    63   6 C      2.927    -0.040    28.994     8.830
    64   1 H      0.926     0.048     2.344     2.394
    65   6 C      2.896    -0.032    28.806     8.800
    66   1 H      0.926     0.042     2.424     2.435
    67   6 C      2.909    -0.022    28.558     8.763
    68   1 H      0.926     0.018     2.768     2.602
    69   6 C      2.905    -0.052    29.285     8.873
    70   1 H      0.926     0.043     2.403     2.424
    71   6 C      2.770     0.267    22.490     7.767
    72   8 O      0.864    -0.473    23.197     6.458
    73   7 N      2.696    -0.180    24.893     7.410
    74   1 H      0.860     0.221     1.003     1.569
    75   6 C      3.812     0.023    20.183     6.395
    76   1 H      0.925     0.066     2.126     2.280
    77   6 C      3.808    -0.051    21.486     6.598
    78   1 H      0.925     0.032     2.563     2.503
    79   1 H      0.925     0.059     2.211     2.325
    80   6 C      3.805    -0.097    22.340     6.729
    81   1 H      0.924     0.037     2.486     2.466
    82   1 H      0.925     0.022     2.700     2.569
    83   6 C      2.686     0.370    20.733     7.452
    84   8 O      0.858    -0.633    26.941     6.959
    85   8 O      0.856    -0.671    27.932     7.086
    86   6 C      2.766     0.274    22.369     7.746
    87   8 O      0.862    -0.513    24.079     6.579
    88   7 N      2.693    -0.175    24.796     7.396
    89   1 H      0.860     0.237     0.935     1.515
    90   6 C      3.804     0.021    20.216     6.401
    91   1 H      0.925     0.075     2.027     2.226
    92   6 C      3.829    -0.082    22.049     6.681
    93   1 H      0.925     0.076     2.022     2.224
    94   1 H      0.925     0.078     2.003     2.213
    95   6 C      3.791    -0.024    21.017     6.529
    96   1 H      0.925     0.045     2.382     2.414
    97   1 H      0.925     0.044     2.401     2.423
    98  16 S      1.964    -0.176   148.506    20.511
    99   6 C      3.739    -0.076    22.030     6.697
   100   1 H      0.925     0.056     2.248     2.345
   101   1 H      0.925     0.065     2.142     2.289
   102   1 H      0.924     0.069     2.098     2.265
   103   6 C      2.754     0.264    22.545     7.775
   104   8 O      0.859    -0.508    23.969     6.564
   105   7 N      2.701    -0.150    24.250     7.314
   106   1 H      0.860     0.235     0.943     1.521
   107   6 C      3.798     0.023    20.195     6.399
   108   1 H      0.925     0.084     1.935     2.175
   109   6 C      3.812    -0.086    22.136     6.697
   110   1 H      0.925     0.063     2.159     2.298
   111   1 H      0.925     0.069     2.092     2.262
   112   6 C      3.847    -0.027    21.020     6.521
   113   1 H      0.925     0.063     2.166     2.302
   114   6 C      3.757    -0.125    22.957     6.831
   115   1 H      0.925     0.054     2.267     2.354
   116   1 H      0.925     0.050     2.323     2.384
   117   1 H      0.924     0.042     2.426     2.436
   118   6 C      3.757    -0.132    23.086     6.850
   119   1 H      0.924     0.046     2.370     2.407
   120   1 H      0.925     0.047     2.355     2.400
   121   1 H      0.925     0.041     2.432     2.439
   122   6 C      2.748     0.257    22.667     7.796
   123   8 O      0.861    -0.511    24.029     6.572
   124   7 N      2.685    -0.168    24.640     7.372
   125   1 H      0.860     0.209     1.061     1.614
   126   6 C      3.781     0.012    20.386     6.432
   127   1 H      0.925     0.095     1.834     2.118
   128   6 C      3.799    -0.072    21.872     6.659
   129   1 H      0.924     0.060     2.197     2.318
   130   1 H      0.924     0.067     2.123     2.278
   131   6 C      3.798    -0.086    22.145     6.700
   132   1 H      0.924     0.082     1.956     2.187
   133   1 H      0.925     0.072     2.059     2.244
   134   6 C      3.730    -0.023    21.082     6.554
   135   1 H      0.925     0.073     2.048     2.238
   136   1 H      0.924     0.082     1.962     2.190
   137   7 N      2.714    -0.172    24.730     7.386
   138   1 H      0.860     0.232     0.955     1.531
   139   6 C      2.735     0.248    22.828     7.823
   140   7 N      2.716    -0.252    26.541     7.651
   141   1 H      0.860     0.258     0.852     1.446
   142   1 H      0.860     0.227     0.980     1.551
   143   7 N      2.737    -0.261    26.770     7.684
   144   1 H      0.860     0.241     0.919     1.501
   145   1 H      0.860     0.256     0.861     1.453
   146   6 C      2.747     0.275    22.342     7.740
   147   8 O      0.860    -0.478    23.307     6.473
   148   7 N      2.684    -0.210    25.582     7.512
   149   1 H      0.860     0.213     1.040     1.597
   150   6 C      3.791     0.017    20.295     6.416
   151   1 H      0.924     0.064     2.149     2.292
   152   6 C      3.848    -0.020    20.901     6.503
   153   1 H      0.925     0.056     2.249     2.345
   154   6 C      3.754    -0.121    22.877     6.820
   155   1 H      0.925     0.066     2.135     2.285
   156   1 H      0.925     0.038     2.471     2.458
   157   1 H      0.924     0.050     2.322     2.383
   158   6 C      3.797    -0.066    21.769     6.644
   159   1 H      0.925     0.044     2.398     2.421
   160   1 H      0.925     0.036     2.506     2.476
   161   6 C      3.746    -0.100    22.487     6.764
   162   1 H      0.924     0.018     2.761     2.598
   163   1 H      0.924     0.047     2.353     2.399
   164   1 H      0.925     0.052     2.295     2.369
   165   6 C      2.747     0.287    22.133     7.703
   166   8 O      0.860    -0.486    23.482     6.497
   167   7 N      2.683    -0.202    25.383     7.483
   168   1 H      0.860     0.220     1.010     1.574
   169   6 C      3.775     0.023    20.214     6.406
   170   1 H      0.925     0.088     1.898     2.154
   171   6 C      3.799    -0.103    22.473     6.750
   172   1 H      0.924     0.058     2.217     2.328
   173   1 H      0.924     0.050     2.320     2.382
   174   6 C      2.686     0.372    20.700     7.446
   175   8 O      0.857    -0.591    25.899     6.823
   176   8 O      0.856    -0.569    25.366     6.753
   177   6 C      2.741     0.265    22.533     7.772
   178   8 O      0.859    -0.492    23.607     6.514
   179   7 N      2.685    -0.189    25.091     7.440
   180   1 H      0.860     0.205     1.079     1.627
   181   6 C      3.791     0.034    20.004     6.370
   182   1 H      0.924     0.076     2.020     2.222
   183   6 C      3.800    -0.057    21.606     6.618
   184   1 H      0.925     0.040     2.454     2.450
   185   1 H      0.925     0.044     2.402     2.424
   186   6 C      3.803    -0.085    22.118     6.696
   187   1 H      0.924     0.036     2.506     2.476
   188   1 H      0.924     0.021     2.724     2.581
   189   6 C      2.687     0.365    20.803     7.464
   190   8 O      0.856    -0.663    27.717     7.059
   191   8 O      0.859    -0.647    27.293     7.004
   192   6 C      2.757     0.284    22.182     7.713
   193   8 O      0.858    -0.505    23.900     6.555
   194   7 N      2.685    -0.172    24.725     7.385
   195   1 H      0.860     0.216     1.028     1.588
   196   6 C      3.740    -0.022    21.053     6.547
   197   1 H      0.925     0.096     1.823     2.112
   198   1 H      0.924     0.098     1.804     2.100
   199   6 C      2.753     0.272    22.398     7.750
   200   8 O      0.858    -0.506    23.922     6.558
   201   7 N      2.687    -0.160    24.469     7.347
   202   1 H      0.860     0.211     1.053     1.608
   203   6 C      3.789     0.011    20.398     6.432
   204   1 H      0.924     0.068     2.111     2.272
   205   6 C      3.798    -0.087    22.171     6.704
   206   1 H      0.924     0.047     2.362     2.404
   207   1 H      0.924     0.061     2.182     2.310
   208   6 C      3.840    -0.029    21.061     6.529
   209   1 H      0.924     0.041     2.440     2.443
   210   6 C      3.751    -0.138    23.218     6.872
   211   1 H      0.924     0.049     2.326     2.385
   212   1 H      0.925     0.053     2.285     2.364
   213   1 H      0.925     0.066     2.129     2.282
   214   6 C      3.751    -0.121    22.889     6.823
   215   1 H      0.924     0.033     2.549     2.497
   216   1 H      0.925     0.048     2.346     2.395
   217   1 H      0.925     0.056     2.241     2.341
   218   6 C      2.745     0.274    22.369     7.744
   219   8 O      0.858    -0.469    23.112     6.446
   220   7 N      2.692    -0.180    24.895     7.410
   221   1 H      0.860     0.195     1.132     1.667
   222   6 C      3.799     0.013    20.362     6.425
   223   1 H      0.925     0.088     1.903     2.157
   224   6 C      3.806    -0.083    22.071     6.688
   225   1 H      0.925     0.079     1.991     2.207
   226   1 H      0.925     0.068     2.112     2.273
   227   6 C      3.795    -0.089    22.212     6.711
   228   1 H      0.925     0.062     2.173     2.305
   229   1 H      0.925     0.083     1.952     2.185
   230   6 C      3.729    -0.036    21.325     6.593
   231   1 H      0.925     0.099     1.797     2.096
   232   1 H      0.924     0.107     1.723     2.053
   233   7 N      2.690    -0.136    23.957     7.269
   234   1 H      0.860     0.208     1.067     1.618
   235   6 C      2.735     0.236    23.057     7.862
   236   7 N      2.768    -0.251    26.519     7.648
   237   1 H      0.860     0.253     0.870     1.462
   238   1 H      0.860     0.259     0.851     1.445
   239   7 N      2.765    -0.252    26.543     7.652
   240   1 H      0.860     0.261     0.842     1.437
   241   1 H      0.860     0.208     1.068     1.619
   242   6 C      2.761     0.265    22.528     7.773
   243   8 O      0.861    -0.500    23.777     6.538
   244   7 N      2.699    -0.151    24.257     7.315
   245   1 H      0.861     0.214     1.039     1.596
   246   6 C      3.788     0.011    20.399     6.433
   247   1 H      0.925     0.097     1.816     2.108
   248   6 C      3.813    -0.092    22.242     6.713
   249   1 H      0.925     0.083     1.947     2.182
   250   1 H      0.924     0.065     2.140     2.288
   251   6 C      3.848    -0.022    20.929     6.507
   252   1 H      0.925     0.040     2.449     2.448
   253   6 C      3.798    -0.125    22.891     6.812
   254   1 H      0.925     0.048     2.341     2.393
   255   1 H      0.925     0.043     2.411     2.428
   256   1 H      0.925     0.051     2.305     2.374
   257   6 C      3.778    -0.125    22.928     6.822
   258   1 H      0.925     0.040     2.455     2.450
   259   1 H      0.924     0.036     2.505     2.475
   260   1 H      0.924     0.047     2.364     2.404
   261   6 C      2.744     0.266    22.519     7.770
   262   8 O      0.858    -0.454    22.797     6.402
   263   7 N      2.682    -0.178    24.850     7.404
   264   1 H      0.860     0.192     1.146     1.677
   265   6 C      3.781    -0.007    20.721     6.485
   266   1 H      0.925     0.097     1.817     2.108
   267   6 C      3.797    -0.074    21.920     6.667
   268   1 H      0.924     0.069     2.095     2.263
   269   1 H      0.925     0.068     2.109     2.271
   270   6 C      3.811    -0.081    22.040     6.682
   271   1 H      0.925     0.064     2.157     2.297
   272   1 H      0.925     0.077     2.009     2.217
   273   6 C      3.804    -0.102    22.452     6.746
   274   1 H      0.925     0.084     1.937     2.177
   275   1 H      0.925     0.076     2.021     2.223
   276   6 C      3.733    -0.056    21.666     6.644
   277   1 H      0.925     0.119     1.619     1.990
   278   1 H      0.924     0.130     1.534     1.937
   279   7 N      3.486    -0.153    24.293     7.320
   280   1 H      0.860     0.299     0.717     1.326
   281   1 H      0.860     0.295     0.729     1.338
   282   1 H      0.860     0.284     0.763     1.369
   283   6 C      2.757     0.273    22.382     7.747
   284   8 O      0.858    -0.498    23.743     6.533
   285   7 N      2.687    -0.158    24.418     7.339
   286   1 H      0.860     0.232     0.956     1.531
   287   6 C      3.789     0.008    20.463     6.443
   288   1 H      0.925     0.055     2.254     2.348
   289   6 C      3.841    -0.035    21.163     6.544
   290   1 H      0.924     0.078     1.998     2.210
   291   6 C      3.751    -0.134    23.137     6.860
   292   1 H      0.925     0.047     2.359     2.402
   293   1 H      0.925     0.049     2.336     2.390
   294   1 H      0.925     0.069     2.100     2.266
   295   6 C      3.789    -0.078    21.995     6.679
   296   1 H      0.925     0.043     2.409     2.427
   297   1 H      0.925     0.042     2.416     2.431
   298   6 C      3.742    -0.127    23.008     6.843
   299   1 H      0.925     0.064     2.149     2.292
   300   1 H      0.925     0.033     2.549     2.497
   301   1 H      0.925     0.043     2.404     2.425
   302   6 C      2.736     0.269    22.448     7.757
   303   8 O      0.857    -0.438    22.459     6.354
   304   7 N      2.678    -0.182    24.947     7.418
   305   1 H      0.860     0.206     1.076     1.625
   306   6 C      3.777     0.014    20.367     6.430
   307   1 H      0.924     0.107     1.719     2.050
   308   6 C      3.805    -0.090    22.222     6.711
   309   1 H      0.925     0.099     1.791     2.093
   310   1 H      0.924     0.081     1.967     2.193
   311   6 C      2.946    -0.012    28.320     8.728
   312   6 C      2.901    -0.059    29.455     8.899
   313   1 H      0.926     0.064     2.155     2.296
   314   6 C      2.905    -0.077    29.920     8.969
   315   1 H      0.926    -0.000     3.061     2.736
   316   6 C      2.831     0.145    24.832     8.166
   317   8 O      1.661    -0.426    21.367     6.240
   318   1 H      0.806     0.296     0.734     1.346
   319   6 C      2.901    -0.065    29.611     8.922
   320   1 H      0.926     0.047     2.355     2.400
   321   6 C      2.907    -0.054    29.331     8.880
   322   1 H      0.926     0.079     1.992     2.207
   323   6 C      2.749     0.265    22.519     7.770
   324   8 O      0.866    -0.505    23.894     6.554
   325   7 N      2.699    -0.143    24.100     7.291
   326   1 H      0.860     0.225     0.987     1.556
   327   6 C      3.804     0.020    20.245     6.406
   328   1 H      0.925     0.081     1.972     2.196
   329   6 C      3.798    -0.081    22.045     6.685
   330   1 H      0.925     0.046     2.366     2.406
   331   1 H      0.925     0.082     1.955     2.186
   332   6 C      3.795    -0.073    21.903     6.664
   333   1 H      0.924     0.061     2.186     2.312
   334   1 H      0.925     0.039     2.460     2.453
   335   6 C      3.809    -0.099    22.382     6.734
   336   1 H      0.925     0.075     2.032     2.229
   337   1 H      0.925     0.096     1.821     2.110
   338   6 C      3.733    -0.044    21.449     6.610
   339   1 H      0.925     0.122     1.594     1.975
   340   1 H      0.925     0.112     1.680     2.027
   341   7 N      3.494    -0.152    24.286     7.319
   342   1 H      0.860     0.302     0.706     1.316
   343   1 H      0.860     0.292     0.736     1.344
   344   1 H      0.860     0.302     0.708     1.318
   345   6 C      2.763     0.266    22.517     7.771
   346   8 O      0.858    -0.520    24.229     6.600
   347   7 N      2.691    -0.179    24.879     7.408
   348   1 H      0.860     0.232     0.955     1.531
   349   6 C      3.783     0.042    19.886     6.352
   350   1 H      0.925     0.064     2.155     2.296
   351   6 C      3.792    -0.097    22.352     6.733
   352   1 H      0.925     0.041     2.437     2.441
   353   1 H      0.924     0.054     2.274     2.358
   354   6 C      2.685     0.353    21.004     7.500
   355   8 O      0.856    -0.623    26.686     6.926
   356   8 O      0.856    -0.653    27.448     7.024
   357   6 C      2.742     0.275    22.349     7.741
   358   8 O      0.874    -0.489    23.524     6.503
   359   7 N      2.688    -0.180    24.909     7.412
   360   1 H      0.860     0.183     1.195     1.712
   361   6 C      3.764     0.005    20.529     6.458
   362   1 H      0.925     0.100     1.782     2.088
   363   6 C      3.725     0.129    18.583     6.155
   364   1 H      0.925     0.042     2.425     2.435
   365   6 C      3.759    -0.140    23.239     6.872
   366   1 H      0.925     0.075     2.036     2.231
   367   1 H      0.924     0.054     2.275     2.359
   368   1 H      0.925     0.052     2.300     2.372
   369   8 O      1.667    -0.498    22.841     6.452
   370   1 H      0.807     0.350     0.588     1.204
   371   6 C      2.743     0.284    22.197     7.714
   372   8 O      0.867    -0.477    23.287     6.470
   373   7 N      2.694    -0.181    24.921     7.414
   374   1 H      0.860     0.183     1.197     1.714
   375   6 C      3.787     0.030    20.082     6.383
   376   1 H      0.925     0.080     1.984     2.203
   377   6 C      3.798    -0.053    21.525     6.606
   378   1 H      0.925     0.027     2.635     2.538
   379   1 H      0.925     0.055     2.255     2.348
   380   6 C      3.801    -0.093    22.282     6.721
   381   1 H      0.924     0.043     2.414     2.430
   382   1 H      0.924     0.053     2.285     2.364
   383   6 C      2.688     0.369    20.739     7.453
   384   8 O      0.857    -0.646    27.279     7.002
   385   8 O      0.857    -0.593    25.940     6.828
   386   6 C      2.745     0.267    22.494     7.766
   387   8 O      0.858    -0.487    23.488     6.498
   388   7 N      2.680    -0.189    25.110     7.442
   389   1 H      0.860     0.197     1.123     1.660
   390   6 C      3.730    -0.041    21.407     6.605
   391   1 H      0.925     0.111     1.686     2.031
   392   1 H      0.925     0.108     1.716     2.049
   393   6 C      2.743     0.269    22.458     7.759
   394   8 O      0.861    -0.484    23.425     6.489
   395   7 N      2.683    -0.144    24.125     7.295
   396   1 H      0.860     0.180     1.211     1.724
   397   6 C      3.789     0.016    20.312     6.419
   398   1 H      0.924     0.083     1.952     2.185
   399   6 C      3.808    -0.074    21.900     6.662
   400   1 H      0.925     0.079     1.988     2.205
   401   1 H      0.925     0.046     2.374     2.409
   402   6 C      2.946    -0.011    28.283     8.722
   403   6 C      2.904    -0.049    29.219     8.863
   404   1 H      0.926     0.031     2.575     2.509
   405   6 C      2.895    -0.063    29.562     8.914
   406   1 H      0.926     0.053     2.277     2.360
   407   6 C      2.830     0.144    24.865     8.171
   408   8 O      1.660    -0.412    21.076     6.197
   409   1 H      0.805     0.356     0.574     1.190
   410   6 C      2.894    -0.079    29.969     8.976
   411   1 H      0.926     0.064     2.155     2.296
   412   6 C      2.902    -0.043    29.074     8.841
   413   1 H      0.926     0.057     2.233     2.337
   414   6 C      2.755     0.268    22.477     7.763
   415   8 O      0.857    -0.507    23.950     6.561
   416   7 N      2.688    -0.160    24.453     7.344
   417   1 H      0.860     0.240     0.922     1.505
   418   6 C      3.797     0.020    20.250     6.408
   419   1 H      0.924     0.089     1.892     2.151
   420   6 C      3.804    -0.088    22.169     6.703
   421   1 H      0.925     0.076     2.020     2.223
   422   1 H      0.924     0.083     1.944     2.180
   423   6 C      2.945    -0.007    28.205     8.710
   424   6 C      2.903    -0.039    28.963     8.824
   425   1 H      0.926     0.055     2.264     2.353
   426   6 C      2.897    -0.083    30.073     8.991
   427   1 H      0.926     0.055     2.256     2.349
   428   6 C      2.834     0.119    25.384     8.256
   429   8 O      1.659    -0.425    21.333     6.235
   430   1 H      0.807     0.344     0.602     1.218
   431   6 C      2.897    -0.063    29.574     8.916
   432   1 H      0.926     0.082     1.956     2.187
   433   6 C      2.900    -0.044    29.082     8.842
   434   1 H      0.926     0.055     2.260     2.351
   435   6 C      2.756     0.267    22.491     7.766
   436   8 O      0.858    -0.498    23.734     6.532
   437   7 N      2.690    -0.161    24.487     7.349
   438   1 H      0.860     0.237     0.936     1.515
   439   6 C      3.782     0.007    20.486     6.448
   440   1 H      0.924     0.076     2.017     2.221
   441   6 C      3.714     0.116    18.794     6.194
   442   1 H      0.925     0.033     2.547     2.496
   443   6 C      3.745    -0.115    22.767     6.806
   444   1 H      0.925     0.035     2.520     2.483
   445   1 H      0.925     0.052     2.292     2.367
   446   1 H      0.925     0.045     2.383     2.414
   447   8 O      1.654    -0.481    22.477     6.400
   448   1 H      0.805     0.317     0.671     1.287
   449   6 C      2.744     0.255    22.708     7.802
   450   8 O      0.858    -0.447    22.645     6.380
   451   7 N      2.684    -0.150    24.246     7.313
   452   1 H      0.860     0.209     1.060     1.613
   453   6 C      3.776     0.004    20.533     6.456
   454   1 H      0.924     0.091     1.865     2.136
   455   6 C      3.843    -0.036    21.190     6.548
   456   1 H      0.924     0.068     2.103     2.268
   457   6 C      3.753    -0.129    23.040     6.845
   458   1 H      0.924     0.045     2.384     2.415
   459   1 H      0.924     0.070     2.084     2.258
   460   1 H      0.925     0.032     2.553     2.499
   461   6 C      3.795    -0.084    22.103     6.695
   462   1 H      0.925     0.033     2.544     2.494
   463   1 H      0.924     0.060     2.197     2.318
   464   6 C      3.745    -0.120    22.870     6.822
   465   1 H      0.924     0.040     2.444     2.445
   466   1 H      0.925     0.057     2.237     2.339
   467   1 H      0.924     0.060     2.199     2.319
   468   6 C      2.750     0.270    22.439     7.757
   469   8 O      0.859    -0.491    23.579     6.510
   470   7 N      2.679    -0.154    24.332     7.326
   471   1 H      0.860     0.244     0.905     1.490
   472   6 C      3.748    -0.029    21.163     6.561
   473   1 H      0.924     0.074     2.045     2.236
   474   1 H      0.924     0.097     1.817     2.108
   475   6 C      2.742     0.270    22.429     7.754
   476   8 O      0.859    -0.455    22.805     6.403
   477   7 N      2.680    -0.207    25.508     7.501
   478   1 H      0.860     0.199     1.113     1.653
   479   6 C      3.787     0.022    20.225     6.405
   480   1 H      0.925     0.071     2.077     2.254
   481   6 C      3.854    -0.019    20.879     6.499
   482   1 H      0.925     0.051     2.313     2.378
   483   6 C      3.754    -0.111    22.680     6.791
   484   1 H      0.924     0.036     2.500     2.472
   485   1 H      0.924     0.059     2.213     2.326
   486   1 H      0.925     0.030     2.581     2.512
   487   6 C      3.805    -0.069    21.824     6.651
   488   1 H      0.925     0.051     2.313     2.378
   489   1 H      0.925     0.035     2.512     2.479
   490   6 C      3.752    -0.126    22.970     6.835
   491   1 H      0.924     0.062     2.179     2.308
   492   1 H      0.924     0.043     2.413     2.429
   493   1 H      0.924     0.053     2.279     2.361
   494   6 C      2.742     0.262    22.585     7.781
   495   8 O      0.858    -0.470    23.129     6.448
   496   7 N      2.678    -0.174    24.760     7.390
   497   1 H      0.860     0.206     1.076     1.625
   498   6 C      3.729    -0.022    21.058     6.551
   499   1 H      0.925     0.095     1.834     2.118
   500   1 H      0.925     0.081     1.965     2.192
   501   6 C      2.748     0.267    22.494     7.766
   502   8 O      0.864    -0.529    24.435     6.628
   503   7 N      2.691    -0.128    23.783     7.243
   504   1 H      0.860     0.221     1.005     1.570
   505   6 C      3.796     0.031    20.065     6.378
   506   1 H      0.925     0.072     2.064     2.247
   507   6 C      3.807    -0.088    22.169     6.703
   508   1 H      0.924     0.108     1.710     2.045
   509   1 H      0.925     0.096     1.825     2.113
   510   6 C      3.066     0.053    26.742     8.480
   511   7 N      2.752    -0.050    22.202     6.998
   512   1 H      0.860     0.261     0.843     1.439
   513   6 C      3.060     0.069    26.401     8.426
   514   1 H      0.926     0.147     1.413     1.859
   515   7 N      2.733    -0.007    21.386     6.868
   516   1 H      0.860     0.279     0.781     1.384
   517   6 C      3.023    -0.021    28.497     8.757
   518   1 H      0.926     0.130     1.538     1.939
   519   6 C      2.749     0.252    22.764     7.812
   520   8 O      0.857    -0.468    23.085     6.442
   521   7 N      2.685    -0.165    24.569     7.362
   522   1 H      0.860     0.207     1.071     1.621
   523   6 C      3.793     0.028    20.107     6.386
   524   1 H      0.925     0.053     2.277     2.360
   525   6 C      3.814    -0.079    21.999     6.676
   526   1 H      0.925     0.053     2.283     2.363
   527   1 H      0.924     0.052     2.289     2.366
   528   6 C      3.850    -0.012    20.756     6.480
   529   1 H      0.925     0.023     2.686     2.563
   530   6 C      3.759    -0.135    23.142     6.858
   531   1 H      0.924     0.029     2.603     2.523
   532   1 H      0.925     0.066     2.132     2.284
   533   1 H      0.925     0.054     2.271     2.357
   534   6 C      3.773    -0.131    23.052     6.842
   535   1 H      0.925     0.064     2.155     2.296
   536   1 H      0.925     0.049     2.336     2.390
   537   1 H      0.924     0.066     2.130     2.282
   538   6 C      2.754     0.275    22.342     7.740
   539   8 O      0.859    -0.495    23.684     6.525
   540   7 N      2.685    -0.199    25.317     7.473
   541   1 H      0.860     0.234     0.947     1.524
   542   6 C      3.792     0.022    20.217     6.403
   543   1 H      0.925     0.077     2.010     2.217
   544   6 C      3.799    -0.091    22.235     6.714
   545   1 H      0.925     0.055     2.263     2.352
   546   1 H      0.925     0.063     2.170     2.303
   547   6 C      3.846    -0.021    20.913     6.505
   548   1 H      0.925     0.036     2.496     2.471
   549   6 C      3.754    -0.131    23.074     6.849
   550   1 H      0.925     0.054     2.271     2.357
   551   1 H      0.924     0.055     2.258     2.350
   552   1 H      0.925     0.068     2.112     2.273
   553   6 C      3.761    -0.120    22.847     6.814
   554   1 H      0.925     0.054     2.273     2.357
   555   1 H      0.925     0.019     2.754     2.595
   556   1 H      0.924     0.047     2.352     2.398
   557   6 C      2.748     0.272    22.400     7.750
   558   8 O      0.859    -0.487    23.496     6.499
   559   7 N      2.685    -0.190    25.119     7.444
   560   1 H      0.860     0.215     1.031     1.591
   561   6 C      3.789     0.012    20.386     6.430
   562   1 H      0.925     0.073     2.050     2.239
   563   6 C      3.731     0.119    18.725     6.177
   564   1 H      0.924     0.019     2.751     2.594
   565   6 C      3.749    -0.137    23.209     6.871
   566   1 H      0.925     0.056     2.246     2.344
   567   1 H      0.925     0.060     2.200     2.320
   568   1 H      0.924     0.065     2.139     2.287
   569   8 O      1.662    -0.467    22.201     6.361
   570   1 H      0.806     0.344     0.603     1.219
   571   6 C      2.749     0.277    22.316     7.735
   572   8 O      0.861    -0.449    22.684     6.386
   573   7 N      2.685    -0.183    24.966     7.421
   574   1 H      0.860     0.217     1.022     1.583
   575   6 C      3.782     0.004    20.532     6.455
   576   1 H      0.925     0.099     1.795     2.095
   577   6 C      3.804    -0.084    22.101     6.693
   578   1 H      0.924     0.077     2.008     2.216
   579   1 H      0.925     0.073     2.056     2.242
   580   6 C      3.827    -0.089    22.175     6.701
   581   1 H      0.924     0.058     2.225     2.333
   582   1 H      0.924     0.056     2.246     2.344
   583   6 C      3.808    -0.101    22.421     6.740
   584   1 H      0.925     0.086     1.917     2.165
   585   1 H      0.925     0.098     1.801     2.099
   586   6 C      3.757    -0.056    21.629     6.631
   587   1 H      0.924     0.111     1.689     2.032
   588   1 H      0.925     0.118     1.627     1.995
   589   7 N      3.486    -0.152    24.277     7.318
   590   1 H      0.860     0.300     0.712     1.322
   591   1 H      0.860     0.300     0.714     1.324
   592   1 H      0.860     0.301     0.709     1.319
   593   6 C      2.748     0.270    22.436     7.756
   594   8 O      0.860    -0.504    23.871     6.551
   595   7 N      2.688    -0.166    24.592     7.365
   596   1 H      0.860     0.216     1.026     1.587
   597   6 C      3.786     0.027    20.139     6.392
   598   1 H      0.925     0.081     1.967     2.193
   599   6 C      3.686     0.080    19.437     6.311
   600   1 H      0.924     0.041     2.441     2.443
   601   1 H      0.925     0.037     2.487     2.466
   602   8 O      1.660    -0.472    22.301     6.375
   603   1 H      0.806     0.355     0.576     1.192
   604   6 C      2.745     0.246    22.878     7.832
   605   8 O      0.857    -0.464    23.011     6.432
   606   7 N      2.751    -0.128    23.768     7.241
   607   6 C      3.755    -0.015    20.898     6.518
   608   1 H      0.924     0.073     2.057     2.243
   609   1 H      0.925     0.062     2.173     2.305
   610   6 C      3.829    -0.070    21.826     6.647
   611   1 H      0.925     0.053     2.280     2.361
   612   1 H      0.925     0.062     2.171     2.304
   613   6 C      3.830    -0.066    21.747     6.635
   614   1 H      0.925     0.074     2.044     2.236
   615   1 H      0.924     0.069     2.092     2.262
   616   6 C      3.798     0.016    20.308     6.417
   617   1 H      0.925     0.087     1.912     2.163
   618   6 C      2.740     0.275    22.340     7.739
   619   8 O      0.857    -0.438    22.453     6.353
   620   7 N      2.689    -0.167    24.603     7.367
   621   1 H      0.860     0.191     1.151     1.680
   622   6 C      3.790     0.008    20.454     6.441
   623   1 H      0.925     0.094     1.839     2.121
   624   6 C      3.681     0.061    19.761     6.366
   625   1 H      0.924     0.049     2.326     2.385
   626   1 H      0.924     0.064     2.158     2.297
   627   8 O      1.650    -0.491    22.711     6.433
   628   1 H      0.805     0.351     0.585     1.202
   629   6 C      2.756     0.242    22.953     7.845
   630   8 O      0.860    -0.487    23.502     6.500
   631   7 N      2.699    -0.158    24.419     7.339
   632   1 H      0.860     0.225     0.989     1.558
   633   6 C      3.787     0.005    20.508     6.450
   634   1 H      0.925     0.121     1.602     1.979
   635   6 C      3.801    -0.100    22.404     6.739
   636   1 H      0.925     0.061     2.186     2.312
   637   1 H      0.925     0.089     1.888     2.149
   638   6 C      3.844    -0.025    20.991     6.517
   639   1 H      0.925     0.049     2.336     2.390
   640   6 C      3.763    -0.132    23.087     6.849
   641   1 H      0.925     0.062     2.177     2.308
   642   1 H      0.925     0.053     2.281     2.362
   643   1 H      0.924     0.028     2.619     2.531
   644   6 C      3.764    -0.134    23.127     6.855
   645   1 H      0.925     0.058     2.227     2.334
   646   1 H      0.925     0.043     2.415     2.430
   647   1 H      0.925     0.060     2.199     2.319
   648   6 C      2.752     0.260    22.618     7.788
   649   8 O      0.859    -0.452    22.753     6.395
   650   7 N      2.685    -0.182    24.951     7.419
   651   1 H      0.860     0.209     1.062     1.615
   652   6 C      3.785     0.019    20.275     6.414
   653   1 H      0.925     0.112     1.678     2.026
   654   6 C      3.797    -0.126    22.912     6.816
   655   1 H      0.924     0.081     1.964     2.191
   656   1 H      0.924     0.106     1.730     2.057
   657   6 C      2.738     0.280    22.263     7.725
   658   8 O      0.859    -0.516    24.143     6.588
   659   7 N      2.640    -0.271    27.021     7.720
   660   1 H      0.860     0.242     0.916     1.500
   661   1 H      0.860     0.241     0.920     1.502
   662   6 C      2.767     0.272    22.397     7.751
   663   8 O      0.857    -0.456    22.823     6.405
   664   7 N      2.694    -0.183    24.956     7.419
   665   1 H      0.860     0.209     1.063     1.615
   666   6 C      3.810     0.026    20.136     6.388
   667   1 H      0.924     0.071     2.069     2.250
   668   6 C      3.768    -0.142    23.279     6.876
   669   1 H      0.925     0.089     1.886     2.148
   670   1 H      0.925     0.061     2.193     2.316
   671   1 H      0.924     0.071     2.078     2.254
   672   6 C      2.753     0.269    22.461     7.761
   673   8 O      0.865    -0.476    23.253     6.465
   674   7 N      2.698    -0.212    25.612     7.516
   675   1 H      0.860     0.225     0.985     1.555
   676   6 C      3.782     0.028    20.116     6.389
   677   1 H      0.925     0.058     2.224     2.332
   678   6 C      3.759    -0.145    23.358     6.890
   679   1 H      0.925     0.072     2.064     2.247
   680   1 H      0.925     0.085     1.931     2.173
   681   1 H      0.924     0.080     1.975     2.198
   682   6 C      2.744     0.264    22.546     7.775
   683   8 O      0.861    -0.512    24.054     6.576
   684   7 N      2.685    -0.171    24.692     7.380
   685   1 H      0.860     0.252     0.876     1.466
   686   6 C      3.783     0.011    20.416     6.436
   687   1 H      0.924     0.097     1.816     2.107
   688   6 C      3.797    -0.100    22.404     6.740
   689   1 H      0.924     0.060     2.193     2.316
   690   1 H      0.925     0.084     1.940     2.178
   691   6 C      3.789    -0.089    22.204     6.711
   692   1 H      0.925     0.090     1.874     2.141
   693   1 H      0.925     0.065     2.141     2.288
   694   6 C      3.792    -0.102    22.455     6.748
   695   1 H      0.924     0.089     1.893     2.152
   696   1 H      0.925     0.108     1.712     2.046
   697   6 C      3.725    -0.050    21.580     6.633
   698   1 H      0.925     0.109     1.705     2.042
   699   1 H      0.925     0.110     1.700     2.039
   700   7 N      3.482    -0.154    24.317     7.324
   701   1 H      0.860     0.302     0.708     1.318
   702   1 H      0.860     0.300     0.713     1.322
   703   1 H      0.860     0.288     0.750     1.357
   704   6 C      2.747     0.275    22.355     7.742
   705   8 O      0.865    -0.522    24.273     6.606
   706   7 N      2.696    -0.167    24.612     7.368
   707   1 H      0.860     0.228     0.974     1.546
   708   6 C      3.794     0.032    20.035     6.374
   709   1 H      0.924     0.068     2.107     2.270
   710   6 C      3.694     0.080    19.409     6.303
   711   1 H      0.924     0.042     2.424     2.435
   712   1 H      0.925     0.057     2.231     2.336
   713   8 O      1.666    -0.474    22.325     6.379
   714   1 H      0.806     0.353     0.582     1.198
   715   6 C      2.752     0.255    22.715     7.804
   716   8 O      0.863    -0.527    24.394     6.622
   717   7 N      2.686    -0.162    24.508     7.352
   718   1 H      0.860     0.220     1.008     1.573
   719   6 C      3.788     0.024    20.189     6.399
   720   1 H      0.924     0.083     1.947     2.182
   721   6 C      3.796    -0.053    21.539     6.609
   722   1 H      0.924     0.044     2.398     2.421
   723   1 H      0.925     0.056     2.246     2.344
   724   6 C      3.794    -0.100    22.414     6.742
   725   1 H      0.925     0.035     2.513     2.479
   726   1 H      0.925     0.038     2.473     2.459
   727   6 C      2.681     0.364    20.832     7.469
   728   8 O      0.856    -0.665    27.770     7.065
   729   8 O      0.857    -0.589    25.842     6.816
   730   6 C      2.761     0.261    22.611     7.787
   731   8 O      0.858    -0.521    24.261     6.604
   732   7 N      2.692    -0.198    25.289     7.469
   733   1 H      0.860     0.246     0.899     1.485
   734   6 C      3.802     0.021    20.228     6.403
   735   1 H      0.925     0.092     1.859     2.132
   736   6 C      3.809    -0.091    22.219     6.710
   737   1 H      0.925     0.055     2.262     2.352
   738   1 H      0.925     0.089     1.890     2.150
   739   6 C      3.849    -0.018    20.867     6.497
   740   1 H      0.925     0.028     2.613     2.528
   741   6 C      3.765    -0.126    22.949     6.828
   742   1 H      0.925     0.026     2.647     2.544
   743   1 H      0.925     0.053     2.283     2.363
   744   1 H      0.925     0.061     2.184     2.311
   745   6 C      3.766    -0.129    23.024     6.839
   746   1 H      0.925     0.032     2.554     2.499
   747   1 H      0.925     0.074     2.039     2.233
   748   1 H      0.924     0.059     2.216     2.328
   749   6 C      2.750     0.282    22.223     7.719
   750   8 O      0.860    -0.502    23.824     6.544
   751   7 N      2.683    -0.195    25.226     7.459
   752   1 H      0.860     0.234     0.949     1.526
   753   6 C      3.770     0.047    19.815     6.344
   754   1 H      0.924     0.057     2.233     2.337
   755   6 C      3.800    -0.092    22.250     6.716
   756   1 H      0.925     0.030     2.586     2.515
   757   1 H      0.924     0.064     2.157     2.297
   758   6 C      2.688     0.357    20.938     7.489
   759   8 O      0.857    -0.595    25.991     6.835
   760   8 O      0.855    -0.709    28.964     7.215
   761   6 C      2.739     0.268    22.468     7.761
   762   8 O      0.856    -0.517    24.164     6.591
   763   7 N      2.680    -0.175    24.789     7.395
   764   1 H      0.860     0.201     1.102     1.645
   765   6 C      3.784     0.027    20.139     6.392
   766   1 H      0.924     0.080     1.976     2.198
   767   6 C      3.807    -0.077    21.972     6.673
   768   1 H      0.924     0.075     2.032     2.229
   769   1 H      0.924     0.057     2.235     2.338
   770   6 C      3.802    -0.073    21.895     6.662
   771   1 H      0.925     0.052     2.298     2.370
   772   1 H      0.924     0.057     2.238     2.339
   773   6 C      3.802    -0.098    22.361     6.732
   774   1 H      0.925     0.082     1.956     2.187
   775   1 H      0.925     0.079     1.992     2.207
   776   6 C      3.731    -0.037    21.323     6.591
   777   1 H      0.925     0.097     1.813     2.106
   778   1 H      0.925     0.108     1.716     2.048
   779   7 N      3.488    -0.148    24.183     7.304
   780   1 H      0.860     0.293     0.735     1.343
   781   1 H      0.860     0.297     0.723     1.332
   782   1 H      0.860     0.293     0.735     1.343
   783   6 C      2.744     0.258    22.647     7.792
   784   8 O      0.857    -0.506    23.908     6.556
   785   7 N      2.696    -0.170    24.682     7.379
   786   1 H      0.860     0.210     1.054     1.608
   787   6 C      3.788     0.025    20.173     6.397
   788   1 H      0.925     0.087     1.906     2.159
   789   6 C      3.765    -0.130    23.045     6.842
   790   1 H      0.924     0.074     2.047     2.237
   791   1 H      0.925     0.063     2.159     2.298
   792   1 H      0.924     0.086     1.922     2.168
   793   6 C      2.744     0.275    22.349     7.741
   794   8 O      0.859    -0.469    23.101     6.444
   795   7 N      2.686    -0.204    25.431     7.490
   796   1 H      0.860     0.222     1.002     1.568
   797   6 C      3.785     0.032    20.059     6.379
   798   1 H      0.925     0.081     1.966     2.193
   799   6 C      3.850    -0.010    20.725     6.475
   800   1 H      0.925     0.039     2.457     2.451
   801   6 C      3.755    -0.110    22.664     6.788
   802   1 H      0.925     0.058     2.217     2.328
   803   1 H      0.925     0.032     2.556     2.500
   804   1 H      0.925     0.045     2.382     2.414
   805   6 C      3.813    -0.066    21.749     6.638
   806   1 H      0.925     0.065     2.142     2.289
   807   1 H      0.924     0.043     2.411     2.428
   808   6 C      3.748    -0.109    22.656     6.789
   809   1 H      0.925     0.047     2.354     2.399
   810   1 H      0.924     0.030     2.587     2.515
   811   1 H      0.924     0.032     2.565     2.504
   812   6 C      2.767     0.239    23.012     7.856
   813   8 O      0.856    -0.507    23.935     6.559
   814   7 N      2.680    -0.165    24.567     7.361
   815   1 H      0.860     0.190     1.159     1.686
   816   6 C      3.749    -0.018    20.967     6.531
   817   1 H      0.925     0.081     1.971     2.196
   818   1 H      0.925     0.070     2.084     2.257
   819   6 C      2.734     0.297    21.963     7.673
   820   8 O      0.862    -0.461    22.941     6.422
   821   7 N      2.689    -0.154    24.326     7.325
   822   1 H      0.860     0.190     1.157     1.685
   823   6 C      3.792     0.029    20.098     6.384
   824   1 H      0.925     0.075     2.028     2.227
   825   6 C      3.803    -0.078    21.995     6.677
   826   1 H      0.925     0.075     2.032     2.229
   827   1 H      0.924     0.073     2.048     2.238
   828   6 C      3.794    -0.080    22.025     6.683
   829   1 H      0.925     0.062     2.180     2.309
   830   1 H      0.925     0.058     2.227     2.334
   831   6 C      3.742    -0.024    21.076     6.550
   832   1 H      0.925     0.087     1.911     2.162
   833   1 H      0.925     0.083     1.949     2.183
   834   7 N      2.713    -0.128    23.783     7.243
   835   1 H      0.861     0.248     0.891     1.479
   836   6 C      2.745     0.245    22.883     7.833
   837   7 N      2.684    -0.268    26.932     7.708
   838   1 H      0.860     0.244     0.907     1.492
   839   1 H      0.860     0.229     0.970     1.543
   840   7 N      2.691    -0.259    26.706     7.675
   841   1 H      0.860     0.237     0.934     1.514
   842   1 H      0.860     0.233     0.954     1.530
   843   6 C      2.758     0.272    22.410     7.752
   844   8 O      0.864    -0.489    23.549     6.506
   845   7 N      2.696    -0.175    24.793     7.395
   846   1 H      0.860     0.215     1.033     1.592
   847   6 C      3.799     0.038    19.932     6.357
   848   1 H      0.925     0.071     2.073     2.251
   849   6 C      3.819    -0.116    22.695     6.780
   850   1 H      0.924     0.088     1.899     2.155
   851   1 H      0.925     0.088     1.895     2.153
   852   6 C      2.742     0.292    22.052     7.689
   853   8 O      0.858    -0.505    23.903     6.555
   854   7 N      2.649    -0.263    26.810     7.690
   855   1 H      0.860     0.235     0.942     1.520
   856   1 H      0.860     0.246     0.900     1.486
   857   6 C      2.756     0.256    22.692     7.801
   858   8 O      0.857    -0.476    23.255     6.465
   859   7 N      2.693    -0.162    24.499     7.351
   860   1 H      0.860     0.199     1.111     1.651
   861   6 C      3.812     0.007    20.456     6.438
   862   1 H      0.925     0.117     1.637     2.001
   863   6 C      3.800    -0.031    21.134     6.545
   864   1 H      0.925     0.106     1.731     2.058
   865   1 H      0.925     0.065     2.139     2.287
   866  16 S      1.911    -0.297   153.916    20.881
   867   1 H      0.923     0.157     1.347     1.815
   868   6 C      2.754     0.260    22.615     7.787
   869   8 O      0.858    -0.436    22.421     6.349
   870   7 N      2.687    -0.166    24.582     7.364
   871   1 H      0.860     0.210     1.056     1.609
   872   6 C      3.791     0.014    20.347     6.424
   873   1 H      0.925     0.094     1.841     2.122
   874   6 C      3.799    -0.109    22.580     6.766
   875   1 H      0.925     0.109     1.704     2.041
   876   1 H      0.924     0.062     2.180     2.309
   877   6 C      2.737     0.281    22.237     7.721
   878   8 O      0.863    -0.495    23.681     6.525
   879   7 N      2.641    -0.270    26.999     7.717
   880   1 H      0.860     0.222     1.001     1.567
   881   1 H      0.860     0.226     0.983     1.553
   882   6 C      2.741     0.273    22.384     7.746
   883   8 O      0.859    -0.455    22.813     6.404
   884   7 N      2.681    -0.155    24.345     7.328
   885   1 H      0.860     0.188     1.169     1.694
   886   6 C      3.737    -0.053    21.608     6.633
   887   1 H      0.925     0.133     1.509     1.921
   888   1 H      0.925     0.110     1.698     2.038
   889   6 C      2.747     0.261    22.600     7.784
   890   8 O      0.858    -0.492    23.606     6.514
   891   7 N      2.692    -0.148    24.212     7.308
   892   1 H      0.860     0.218     1.016     1.579
   893   6 C      3.797     0.012    20.383     6.429
   894   1 H      0.925     0.094     1.844     2.124
   895   6 C      3.848    -0.022    20.925     6.507
   896   1 H      0.925     0.067     2.122     2.278
   897   6 C      3.748    -0.115    22.765     6.805
   898   1 H      0.925     0.051     2.310     2.377
   899   1 H      0.925     0.045     2.384     2.414
   900   1 H      0.924     0.024     2.669     2.555
   901   6 C      3.749    -0.131    23.088     6.853
   902   1 H      0.924     0.057     2.232     2.336
   903   1 H      0.925     0.065     2.144     2.290
   904   1 H      0.925     0.042     2.424     2.435
   905   6 C      2.753     0.268    22.467     7.762
   906   8 O      0.861    -0.503    23.853     6.548
   907   7 N      2.684    -0.158    24.414     7.338
   908   1 H      0.860     0.216     1.030     1.590
   909   6 C      3.762    -0.000    20.630     6.475
   910   1 H      0.924     0.075     2.035     2.231
   911   6 C      3.830    -0.021    20.924     6.509
   912   1 H      0.925     0.035     2.510     2.478
   913   6 C      3.752    -0.115    22.763     6.804
   914   1 H      0.924     0.041     2.433     2.439
   915   1 H      0.924     0.053     2.278     2.360
   916   1 H      0.925     0.054     2.274     2.358
   917   6 C      3.800    -0.070    21.838     6.653
   918   1 H      0.925     0.037     2.484     2.465
   919   1 H      0.925     0.069     2.096     2.264
   920   6 C      3.748    -0.123    22.920     6.828
   921   1 H      0.925     0.055     2.264     2.353
   922   1 H      0.924     0.054     2.270     2.356
   923   1 H      0.924     0.027     2.631     2.537
   924   6 C      2.753     0.255    22.702     7.802
   925   8 O      0.856    -0.524    24.333     6.614
   926   7 N      2.681    -0.173    24.749     7.389
   927   1 H      0.860     0.243     0.912     1.496
   928   6 C      3.787    -0.006    20.707     6.481
   929   1 H      0.924     0.085     1.928     2.171
   930   6 C      3.732     0.121    18.691     6.171
   931   1 H      0.924     0.025     2.660     2.550
   932   6 C      3.754    -0.145    23.364     6.892
   933   1 H      0.925     0.068     2.112     2.273
   934   1 H      0.924     0.064     2.149     2.293
   935   1 H      0.924     0.060     2.198     2.319
   936   8 O      1.661    -0.519    23.311     6.518
   937   1 H      0.808     0.343     0.604     1.221
   938   6 C      2.743     0.268    22.481     7.763
   939   8 O      0.863    -0.468    23.092     6.443
   940   7 N      2.693    -0.174    24.772     7.392
   941   1 H      0.860     0.199     1.114     1.653
   942   6 C      3.793     0.013    20.360     6.426
   943   1 H      0.925     0.109     1.703     2.041
   944   6 C      3.809    -0.096    22.331     6.727
   945   1 H      0.924     0.067     2.119     2.277
   946   1 H      0.924     0.091     1.866     2.136
   947   6 C      3.799    -0.073    21.900     6.663
   948   1 H      0.925     0.067     2.120     2.277
   949   1 H      0.925     0.047     2.364     2.404
   950   6 C      3.799    -0.095    22.319     6.727
   951   1 H      0.925     0.081     1.965     2.192
   952   1 H      0.924     0.105     1.740     2.063
   953   6 C      3.719    -0.049    21.580     6.635
   954   1 H      0.924     0.126     1.568     1.958
   955   1 H      0.925     0.110     1.701     2.039
   956   7 N      3.481    -0.142    24.069     7.287
   957   1 H      0.860     0.268     0.818     1.417
   958   1 H      0.860     0.290     0.743     1.350
   959   1 H      0.860     0.290     0.743     1.350
   960   6 C      2.753     0.263    22.563     7.778
   961   8 O      0.857    -0.503    23.852     6.548
   962   7 N      2.682    -0.181    24.919     7.414
   963   1 H      0.860     0.218     1.017     1.580
   964   6 C      3.779     0.030    20.096     6.386
   965   1 H      0.925     0.072     2.061     2.245
   966   6 C      3.810    -0.090    22.218     6.710
   967   1 H      0.925     0.044     2.403     2.424
   968   1 H      0.925     0.054     2.271     2.357
   969   6 C      2.688     0.368    20.759     7.456
   970   8 O      0.859    -0.670    27.906     7.083
   971   8 O      0.856    -0.629    26.842     6.946
   972   6 C      2.739     0.263    22.565     7.778
   973   8 O      0.857    -0.500    23.776     6.537
   974   7 N      2.686    -0.159    24.448     7.344
   975   1 H      0.860     0.212     1.048     1.603
   976   6 C      3.805     0.035    19.975     6.363
   977   1 H      0.925     0.079     1.986     2.204
   978   6 C      3.818    -0.061    21.658     6.623
   979   1 H      0.925     0.059     2.216     2.328
   980   1 H      0.924     0.069     2.100     2.266
   981   6 C      3.797    -0.101    22.433     6.744
   982   1 H      0.924     0.037     2.489     2.467
   983   1 H      0.925     0.040     2.454     2.450
   984   6 C      2.681     0.364    20.820     7.467
   985   8 O      0.860    -0.595    25.983     6.834
   986   8 O      0.858    -0.573    25.468     6.766
   987   6 C      2.766     0.266    22.511     7.770
   988   8 O      0.859    -0.513    24.069     6.578
   989   7 N      2.697    -0.166    24.601     7.366
   990   1 H      0.860     0.224     0.992     1.560
   991   6 C      3.797     0.032    20.048     6.376
   992   1 H      0.925     0.093     1.852     2.128
   993   6 C      3.759    -0.135    23.148     6.859
   994   1 H      0.925     0.075     2.035     2.231
   995   1 H      0.925     0.069     2.094     2.263
   996   1 H      0.925     0.088     1.899     2.155
   997   6 C      2.756     0.264    22.540     7.775
   998   8 O      0.860    -0.520    24.235     6.600
   999   7 N      2.684    -0.191    25.149     7.448
  1000   1 H      0.860     0.225     0.986     1.556
  1001   6 C      3.796     0.028    20.110     6.386
  1002   1 H      0.925     0.093     1.847     2.125
  1003   6 C      3.803    -0.054    21.537     6.607
  1004   1 H      0.925     0.043     2.411     2.428
  1005   1 H      0.924     0.045     2.387     2.416
  1006   6 C      3.803    -0.106    22.528     6.757
  1007   1 H      0.925     0.060     2.203     2.321
  1008   1 H      0.925     0.041     2.434     2.440
  1009   6 C      2.687     0.360    20.891     7.480
  1010   8 O      0.858    -0.657    27.551     7.037
  1011   8 O      0.858    -0.592    25.911     6.825
  1012   6 C      2.747     0.258    22.651     7.793
  1013   8 O      0.859    -0.512    24.059     6.576
  1014   7 N      2.684    -0.201    25.371     7.481
  1015   1 H      0.860     0.231     0.960     1.535
  1016   6 C      3.763     0.019    20.292     6.421
  1017   1 H      0.924     0.088     1.900     2.156
  1018   6 C      3.795    -0.068    21.805     6.649
  1019   1 H      0.925     0.046     2.372     2.408
  1020   1 H      0.925     0.054     2.273     2.358
  1021   6 C      3.799    -0.088    22.183     6.706
  1022   1 H      0.924     0.068     2.106     2.270
  1023   1 H      0.924     0.074     2.038     2.232
  1024   6 C      3.801    -0.093    22.265     6.718
  1025   1 H      0.924     0.065     2.140     2.288
  1026   1 H      0.925     0.068     2.105     2.269
  1027   6 C      3.728    -0.048    21.532     6.625
  1028   1 H      0.925     0.122     1.598     1.977
  1029   1 H      0.925     0.118     1.629     1.996
  1030   7 N      3.485    -0.152    24.275     7.318
  1031   1 H      0.860     0.300     0.712     1.322
  1032   1 H      0.860     0.297     0.723     1.332
  1033   1 H      0.860     0.306     0.697     1.308
  1034   6 C      2.725     0.253    22.745     7.808
  1035   8 O      0.859    -0.506    23.911     6.556
  1036   7 N      2.680    -0.165    24.578     7.363
  1037   1 H      0.860     0.209     1.061     1.614
  1038   6 C      3.773     0.015    20.346     6.427
  1039   1 H      0.925     0.095     1.835     2.118
  1040   6 C      3.822    -0.076    21.942     6.666
  1041   1 H      0.925     0.053     2.287     2.365
  1042   1 H      0.924     0.083     1.950     2.184
  1043   6 C      3.840    -0.021    20.912     6.505
  1044   1 H      0.925     0.034     2.535     2.490
  1045   6 C      3.752    -0.127    23.004     6.840
  1046   1 H      0.924     0.034     2.524     2.485
  1047   1 H      0.925     0.065     2.139     2.287
  1048   1 H      0.924     0.059     2.215     2.327
  1049   6 C      3.777    -0.132    23.070     6.843
  1050   1 H      0.924     0.054     2.270     2.356
  1051   1 H      0.925     0.033     2.539     2.492
  1052   1 H      0.925     0.066     2.131     2.283
  1053   6 C      2.767     0.283    22.215     7.719
  1054   8 O      0.869    -0.511    24.013     6.570
  1055   7 N      2.713    -0.190    25.116     7.443
  1056   1 H      0.860     0.198     1.118     1.656
  1057   6 C      3.799     0.047    19.788     6.334
  1058   1 H      0.925     0.067     2.119     2.276
  1059   6 C      3.822    -0.087    22.135     6.695
  1060   1 H      0.924     0.068     2.111     2.272
  1061   1 H      0.925     0.072     2.061     2.245
  1062   6 C      2.958     0.008    27.832     8.653
  1063   6 C      2.923    -0.035    28.862     8.810
  1064   1 H      0.926     0.021     2.711     2.575
  1065   6 C      2.910    -0.038    28.939     8.821
  1066   1 H      0.926     0.055     2.254     2.348
  1067   6 C      2.921    -0.039    28.960     8.825
  1068   1 H      0.926     0.049     2.327     2.386
  1069   6 C      2.911    -0.044    29.085     8.843
  1070   1 H      0.926     0.059     2.207     2.323
  1071   6 C      2.917    -0.050    29.239     8.867
  1072   1 H      0.926     0.048     2.347     2.396
  1073   6 C      2.760     0.273    22.379     7.747
  1074   8 O      0.862    -0.505    23.902     6.555
  1075   7 N      2.685    -0.186    25.037     7.431
  1076   1 H      0.860     0.219     1.012     1.576
  1077   6 C      3.795     0.044    19.847     6.344
  1078   1 H      0.925     0.098     1.803     2.100
  1079   6 C      3.817    -0.108    22.555     6.759
  1080   1 H      0.925     0.078     2.002     2.213
  1081   1 H      0.924     0.106     1.729     2.056
  1082   6 C      2.749     0.292    22.044     7.688
  1083   8 O      0.861    -0.494    23.645     6.520
  1084   7 N      2.643    -0.288    27.425     7.778
  1085   1 H      0.860     0.240     0.921     1.504
  1086   1 H      0.860     0.233     0.951     1.528
  1087   6 C      2.757     0.263    22.564     7.779
  1088   8 O      0.857    -0.506    23.911     6.556
  1089   7 N      2.686    -0.193    25.181     7.453
  1090   1 H      0.860     0.226     0.981     1.552
  1091   6 C      3.804     0.030    20.073     6.378
  1092   1 H      0.925     0.096     1.822     2.111
  1093   6 C      3.812    -0.068    21.786     6.644
  1094   1 H      0.924     0.073     2.052     2.240
  1095   1 H      0.924     0.058     2.224     2.332
  1096   6 C      3.807    -0.107    22.546     6.759
  1097   1 H      0.925     0.089     1.892     2.151
  1098   1 H      0.924     0.091     1.865     2.136
  1099   6 C      2.747     0.285    22.167     7.709
  1100   8 O      0.879    -0.503    23.831     6.546
  1101   7 N      2.654    -0.286    27.375     7.771
  1102   1 H      0.860     0.253     0.874     1.464
  1103   1 H      0.860     0.214     1.035     1.594
  1104   6 C      2.764     0.262    22.585     7.783
  1105   8 O      0.864    -0.505    23.892     6.554
  1106   7 N      2.683    -0.184    24.981     7.423
  1107   1 H      0.860     0.212     1.045     1.601
  1108   6 C      3.793     0.043    19.860     6.346
  1109   1 H      0.925     0.078     1.998     2.211
  1110   6 C      3.799    -0.090    22.209     6.710
  1111   1 H      0.925     0.040     2.449     2.447
  1112   1 H      0.924     0.040     2.450     2.448
  1113   6 C      2.682     0.368    20.761     7.456
  1114   8 O      0.856    -0.599    26.092     6.848
  1115   8 O      0.856    -0.617    26.530     6.906
  1116   6 C      2.762     0.269    22.449     7.759
  1117   8 O      0.861    -0.514    24.102     6.582
  1118   7 N      2.690    -0.175    24.788     7.394
  1119   1 H      0.860     0.209     1.060     1.613
  1120   6 C      3.798     0.019    20.262     6.409
  1121   1 H      0.925     0.085     1.928     2.172
  1122   6 C      3.848    -0.022    20.938     6.509
  1123   1 H      0.925     0.035     2.510     2.478
  1124   6 C      3.750    -0.125    22.956     6.833
  1125   1 H      0.925     0.060     2.203     2.321
  1126   1 H      0.925     0.044     2.393     2.419
  1127   1 H      0.925     0.067     2.123     2.279
  1128   6 C      3.750    -0.124    22.952     6.832
  1129   1 H      0.925     0.037     2.496     2.470
  1130   1 H      0.925     0.057     2.233     2.337
  1131   1 H      0.924     0.062     2.173     2.305
  1132   6 C      2.764     0.266    22.512     7.770
  1133   8 O      0.860    -0.488    23.512     6.501
  1134   7 N      2.693    -0.173    24.752     7.389
  1135   1 H      0.860     0.211     1.053     1.608
  1136   6 C      3.809     0.040    19.890     6.348
  1137   1 H      0.925     0.073     2.057     2.243
  1138   6 C      3.801    -0.103    22.459     6.747
  1139   1 H      0.925     0.032     2.556     2.500
  1140   1 H      0.925     0.042     2.429     2.437
  1141   6 C      2.683     0.365    20.805     7.464
  1142   8 O      0.856    -0.628    26.826     6.944
  1143   8 O      0.856    -0.602    26.177     6.860
  1144   6 C      2.755     0.269    22.455     7.760
  1145   8 O      0.863    -0.492    23.604     6.514
  1146   7 N      2.694    -0.166    24.581     7.363
  1147   1 H      0.860     0.191     1.155     1.684
  1148   6 C      3.793     0.028    20.117     6.387
  1149   1 H      0.924     0.093     1.853     2.129
  1150   6 C      3.762    -0.137    23.186     6.864
  1151   1 H      0.924     0.080     1.980     2.201
  1152   1 H      0.924     0.088     1.897     2.154
  1153   1 H      0.925     0.055     2.258     2.350
  1154   6 C      2.759     0.264    22.554     7.777
  1155   8 O      0.860    -0.481    23.359     6.480
  1156   7 N      2.690    -0.186    25.028     7.430
  1157   1 H      0.860     0.207     1.069     1.620
  1158   6 C      3.796     0.033    20.024     6.372
  1159   1 H      0.925     0.083     1.953     2.185
  1160   6 C      3.759    -0.124    22.923     6.826
  1161   1 H      0.925     0.072     2.066     2.248
[...]
  2293  C   3.959        N 2291 0.981    C 2295 0.973    H 2294 0.945    C 2313 0.937
  2294  H   0.990        C 2293 0.945
  2295  C   3.988        C 2298 1.019    C 2293 0.973    H 2296 0.966    H 2297 0.964
  2296  H   0.996        C 2295 0.966
  2297  H   0.994        C 2295 0.964
  2298  C   3.984        C 2295 1.019    C 2301 0.998    H 2300 0.966    H 2299 0.963
  2299  H   0.993        C 2298 0.963
  2300  H   0.994        C 2298 0.966
  2301  C   3.959        C 2298 0.998    N 2304 0.989    H 2302 0.960    H 2303 0.957
  2302  H   0.995        C 2301 0.960
  2303  H   0.996        C 2301 0.957
  2304  N   3.425        C 2306 1.279    C 2301 0.989    H 2305 0.897
  2305  H   0.939        N 2304 0.897
  2306  C   3.978        N 2307 1.349    N 2310 1.322    N 2304 1.279
  2307  N   3.429        C 2306 1.349    H 2309 0.922    H 2308 0.914    N 2310 0.107
  2308  H   0.942        N 2307 0.914
  2309  H   0.951        N 2307 0.922
  2310  N   3.399        C 2306 1.322    H 2311 0.919    H 2312 0.879    N 2307 0.107
  2311  H   0.949        N 2310 0.919
  2312  H   0.930        N 2310 0.879
  2313  C   3.955        O 2314 1.626    N 2315 1.307    C 2293 0.937
  2314  O   1.971        C 2313 1.626    N 2315 0.202
  2315  N   3.475        C 2313 1.307    C 2317 0.969    H 2316 0.908    O 2314 0.202
  2316  H   0.952        N 2315 0.908
  2317  C   3.960        C 2319 1.000    N 2315 0.969    C 2323 0.954    H 2318 0.942
  2318  H   0.991        C 2317 0.942
  2319  C   3.980        C 2317 1.000    H 2322 0.978    H 2321 0.973    H 2320 0.972
  2320  H   0.994        C 2319 0.972
  2321  H   0.996        C 2319 0.973
  2322  H   0.994        C 2319 0.978
  2323  C   3.955        O 2324 1.576    N 2325 1.342    C 2317 0.954
  2324  O   1.895        C 2323 1.576    N 2325 0.198
  2325  N   3.491        C 2323 1.342    C 2327 0.956    H 2326 0.907    O 2324 0.198
  2326  H   0.954        N 2325 0.907
  2327  C   3.950        C 2329 0.984    N 2325 0.956    C 2345 0.951    H 2328 0.948
  2328  H   0.990        C 2327 0.948
  2329  C   3.978        C 2332 0.987    C 2327 0.984    H 2330 0.976    H 2331 0.970
  2330  H   0.996        C 2329 0.976
  2331  H   0.992        C 2329 0.970
  2332  C   3.985        C 2335 1.008    C 2329 0.987    H 2334 0.979    H 2333 0.975
  2333  H   0.993        C 2332 0.975
  2334  H   0.997        C 2332 0.979
  2335  C   3.983        C 2332 1.008    C 2338 1.003    H 2337 0.972    H 2336 0.970
  2336  H   0.994        C 2335 0.970
  2337  H   0.993        C 2335 0.972
  2338  C   3.900        C 2335 1.003    H 2339 0.964    H 2340 0.958    N 2341 0.953
  2339  H   0.985        C 2338 0.964
  2340  H   0.984        C 2338 0.958
  2341  N   3.654        C 2338 0.953    H 2344 0.897    H 2343 0.893    H 2342 0.892
  2342  H   0.913        N 2341 0.892
  2343  H   0.911        N 2341 0.893
  2344  H   0.913        N 2341 0.897
  2345  C   3.946        O 2346 1.598    N 2347 1.318    C 2327 0.951
  2346  O   1.948        C 2345 1.598    N 2347 0.198
  2347  N   3.468        C 2345 1.318    C 2349 0.972    H 2348 0.882    O 2346 0.198
  2348  H   0.947        N 2347 0.882
  2349  C   3.963        N 2347 0.972    C 2351 0.969    H 2350 0.952    C 2369 0.943
  2350  H   0.993        C 2349 0.952
  2351  C   3.983        C 2354 1.014    H 2352 0.971    H 2353 0.969    C 2349 0.969
  2352  H   0.996        C 2351 0.971
  2353  H   0.993        C 2351 0.969
  2354  C   3.988        C 2351 1.014    C 2357 0.988    H 2356 0.971    H 2355 0.964
  2355  H   0.994        C 2354 0.964
  2356  H   0.997        C 2354 0.971
  2357  C   3.953        N 2360 0.995    C 2354 0.988    H 2358 0.960    H 2359 0.959
  2358  H   0.993        C 2357 0.960
  2359  H   0.996        C 2357 0.959
  2360  N   3.428        C 2362 1.259    C 2357 0.995    H 2361 0.896
  2361  H   0.949        N 2360 0.896
  2362  C   3.979        N 2366 1.348    N 2363 1.339    N 2360 1.259
  2363  N   3.407        C 2362 1.339    H 2364 0.910    H 2365 0.909    N 2366 0.111
  2364  H   0.944        N 2363 0.910
  2365  H   0.938        N 2363 0.909
  2366  N   3.405        C 2362 1.348    H 2367 0.913    H 2368 0.862    N 2363 0.111
  2367  H   0.939        N 2366 0.913
  2368  H   0.934        N 2366 0.862
  2369  C   3.951        O 2370 1.563    N 2371 1.369    C 2349 0.943
  2370  O   1.916        C 2369 1.563    N 2371 0.194
  2371  N   3.513        C 2369 1.369    C 2373 0.964    H 2372 0.897    O 2370 0.194
  2372  H   0.950        N 2371 0.897
  2373  C   3.953        N 2371 0.964    C 2375 0.959    H 2374 0.953    C 2385 0.932
  2374  H   0.994        C 2373 0.953
  2375  C   3.986        C 2381 1.012    C 2377 1.005    H 2376 0.966    C 2373 0.959
  2376  H   0.997        C 2375 0.966
  2377  C   3.991        C 2375 1.005    H 2379 0.984    H 2380 0.983    H 2378 0.977
  2378  H   0.997        C 2377 0.977
  2379  H   0.998        C 2377 0.984
  2380  H   0.998        C 2377 0.983
  2381  C   3.987        C 2375 1.012    H 2384 0.982    H 2382 0.981    H 2383 0.978
  2382  H   0.997        C 2381 0.981
  2383  H   0.995        C 2381 0.978
  2384  H   0.997        C 2381 0.982
  2385  C   3.948        O 2386 1.592    N 2387 1.340    C 2373 0.932
  2386  O   1.932        C 2385 1.592    N 2387 0.197
  2387  N   3.482        C 2385 1.340    C 2389 0.951    H 2388 0.906    O 2386 0.197
  2388  H   0.948        N 2387 0.906
  2389  C   3.950        C 2391 0.964    C 2404 0.960    N 2387 0.951    H 2390 0.948
  2390  H   0.992        C 2389 0.948
  2391  C   3.981        C 2393 0.999    C 2397 0.996    C 2389 0.964    H 2392 0.962
  2392  H   0.995        C 2391 0.962
  2393  C   3.986        C 2391 0.999    H 2395 0.982    H 2396 0.981    H 2394 0.981
  2394  H   0.997        C 2393 0.981
  2395  H   0.995        C 2393 0.982
  2396  H   0.996        C 2393 0.981
  2397  C   3.992        C 2400 1.020    C 2391 0.996    H 2399 0.970    H 2398 0.970
  2398  H   0.997        C 2397 0.970
  2399  H   0.997        C 2397 0.970
  2400  C   3.993        C 2397 1.020    H 2403 0.984    H 2402 0.983    H 2401 0.980
  2401  H   0.997        C 2400 0.980
  2402  H   0.998        C 2400 0.983
  2403  H   0.998        C 2400 0.984
  2404  C   3.948        O 2405 1.605    N 2406 1.304    C 2389 0.960
  2405  O   1.938        C 2404 1.605    N 2406 0.193
  2406  N   3.469        C 2404 1.304    C 2408 0.988    H 2407 0.887    O 2405 0.193
  2407  H   0.946        N 2406 0.887
  2408  C   3.969        N 2406 0.988    C 2410 0.972    H 2409 0.938    C 2418 0.933
  2409  H   0.990        C 2408 0.938
  2410  C   3.967        O 2416 1.000    C 2412 0.992    C 2408 0.972    H 2411 0.961
  2411  H   0.999        C 2410 0.961
  2412  C   3.990        C 2410 0.992    H 2413 0.984    H 2414 0.982    H 2415 0.981
  2413  H   0.996        C 2412 0.984
  2414  H   0.999        C 2412 0.982
  2415  H   0.995        C 2412 0.981
  2416  O   1.936        C 2410 1.000    H 2417 0.865
  2417  H   0.882        O 2416 0.865
  2418  C   3.946        O 2419 1.614    N 2420 1.305    C 2408 0.933
  2419  O   1.969        C 2418 1.614    N 2420 0.194
  2420  N   3.485        C 2418 1.305    C 2422 0.992    H 2421 0.904    O 2419 0.194
  2421  H   0.957        N 2420 0.904
  2422  C   3.959        N 2420 0.992    C 2432 0.945    H 2423 0.941    C 2424 0.934
  2423  H   0.992        C 2422 0.941
  2424  C   3.957        C 2426 1.016    O 2430 0.994    H 2425 0.960    C 2422 0.934
  2425  H   0.999        C 2424 0.960
  2426  C   3.988        C 2424 1.016    H 2428 0.979    H 2427 0.979    H 2429 0.977
  2427  H   0.995        C 2426 0.979
  2428  H   0.998        C 2426 0.979
  2429  H   0.995        C 2426 0.977
  2430  O   1.944        C 2424 0.994    H 2431 0.856
  2431  H   0.896        O 2430 0.856
  2432  C   3.954        O 2433 1.634    N 2434 1.298    C 2422 0.945
  2433  O   1.951        C 2432 1.634    N 2434 0.204
  2434  N   3.454        C 2432 1.298    C 2436 0.949    H 2435 0.897    O 2433 0.204
  2435  H   0.949        N 2434 0.897
  2436  C   3.956        C 2438 0.974    C 2452 0.950    N 2434 0.949    H 2437 0.944
  2437  H   0.991        C 2436 0.944
  2438  C   3.982        C 2441 1.009    C 2436 0.974    H 2440 0.965    H 2439 0.952
  2439  H   0.993        C 2438 0.952
  2440  H   0.994        C 2438 0.965
  2441  C   3.987        C 2442 1.419    C 2450 1.408    C 2438 1.009    C 2446 0.106
  2442  C   3.990        C 2444 1.437    C 2441 1.419    H 2443 0.966    C 2448 0.112
  2443  H   0.999        C 2442 0.966
  2444  C   3.989        C 2446 1.441    C 2442 1.437    H 2445 0.966    C 2450 0.115
  2445  H   0.997        C 2444 0.966
  2446  C   3.989        C 2444 1.441    C 2448 1.438    H 2447 0.970    C 2441 0.106
  2447  H   0.998        C 2446 0.970
  2448  C   3.988        C 2446 1.438    C 2450 1.436    H 2449 0.966    C 2442 0.112
  2449  H   0.997        C 2448 0.966
  2450  C   3.987        C 2448 1.436    C 2441 1.408    H 2451 0.965    C 2444 0.115
  2451  H   0.998        C 2450 0.965
  2452  C   3.948        O 2453 1.602    N 2454 1.311    C 2436 0.950
  2453  O   1.968        C 2452 1.602    N 2454 0.191
  2454  N   3.478        C 2452 1.311    C 2456 0.976    H 2455 0.903    O 2453 0.191
  2455  H   0.954        N 2454 0.903
  2456  C   3.959        C 2458 0.986    N 2454 0.976    H 2457 0.951    C 2476 0.926
  2457  H   0.990        C 2456 0.951
  2458  C   3.983        C 2461 1.002    C 2456 0.986    H 2459 0.969    H 2460 0.960
  2459  H   0.996        C 2458 0.969
  2460  H   0.995        C 2458 0.960
  2461  C   3.984        C 2458 1.002    C 2464 0.992    H 2463 0.974    H 2462 0.973
  2462  H   0.992        C 2461 0.973
  2463  H   0.996        C 2461 0.974
  2464  C   3.945        C 2461 0.992    N 2467 0.970    H 2465 0.968    H 2466 0.968
  2465  H   0.992        C 2464 0.968
  2466  H   0.991        C 2464 0.968
  2467  N   3.467        C 2469 1.320    C 2464 0.970    H 2468 0.915    N 2473 0.112
  2468  H   0.951        N 2467 0.915
  2469  C   3.975        N 2473 1.356    N 2467 1.320    N 2470 1.270
  2470  N   3.336        C 2469 1.270    H 2471 0.920    H 2472 0.910
  2471  H   0.940        N 2470 0.920
  2472  H   0.937        N 2470 0.910
  2473  N   3.417        C 2469 1.356    H 2474 0.915    H 2475 0.864    N 2467 0.112
  2474  H   0.940        N 2473 0.915
  2475  H   0.942        N 2473 0.864
  2476  C   3.946        O 2477 1.639    N 2478 1.307    C 2456 0.926
  2477  O   1.956        C 2476 1.639    N 2478 0.202
  2478  N   3.462        C 2476 1.307    C 2480 0.971    H 2479 0.887    O 2477 0.202
  2479  H   0.942        N 2478 0.887
  2480  C   3.974        C 2482 0.996    N 2478 0.971    H 2481 0.940    C 2490 0.936
  2481  H   0.992        C 2480 0.940
  2482  C   3.958        C 2480 0.996    C 2484 0.995    O 2488 0.967    H 2483 0.956
  2483  H   0.998        C 2482 0.956
  2484  C   3.988        C 2482 0.995    H 2485 0.984    H 2487 0.979    H 2486 0.977
  2485  H   0.997        C 2484 0.984
  2486  H   0.997        C 2484 0.977
  2487  H   0.995        C 2484 0.979
  2488  O   1.925        C 2482 0.967    H 2489 0.883
  2489  H   0.907        O 2488 0.883
  2490  C   3.953        O 2491 1.647    N 2492 1.295    C 2480 0.936
  2491  O   1.956        C 2490 1.647    N 2492 0.198
  2492  N   3.460        C 2490 1.295    C 2494 0.983    H 2493 0.924    O 2491 0.198
  2493  H   0.956        N 2492 0.924
  2494  C   3.957        N 2492 0.983    C 2497 0.961    H 2495 0.952    H 2496 0.946
  2495  H   0.989        C 2494 0.952
  2496  H   0.988        C 2494 0.946
  2497  C   3.951        O 2498 1.625    N 2499 1.299    C 2494 0.961
  2498  O   1.936        C 2497 1.625    N 2499 0.192
  2499  N   3.484        C 2497 1.299    C 2501 1.001    H 2500 0.917    O 2498 0.192
  2500  H   0.955        N 2499 0.917
  2501  C   3.967        N 2499 1.001    H 2502 0.945    C 2503 0.940    C 2511 0.931
  2502  H   0.990        C 2501 0.945
  2503  C   3.949        C 2505 0.998    O 2509 0.979    H 2504 0.959    C 2501 0.940
  2504  H   0.998        C 2503 0.959
  2505  C   3.989        C 2503 0.998    H 2507 0.984    H 2508 0.983    H 2506 0.983
  2506  H   0.997        C 2505 0.983
  2507  H   0.996        C 2505 0.984
  2508  H   0.996        C 2505 0.983
  2509  O   1.924        C 2503 0.979    H 2510 0.880
  2510  H   0.895        O 2509 0.880
  2511  C   3.955        O 2512 1.657    N 2513 1.289    C 2501 0.931
  2512  O   1.987        C 2511 1.657    N 2513 0.196
  2513  N   3.455        C 2511 1.289    C 2515 0.981    H 2514 0.913    O 2512 0.196
  2514  H   0.955        N 2513 0.913
  2515  C   3.950        N 2513 0.981    C 2517 0.969    H 2516 0.933    C 2535 0.911
  2516  H   0.988        C 2515 0.933
  2517  C   3.985        C 2520 1.017    H 2519 0.970    C 2515 0.969    H 2518 0.954
  2518  H   0.993        C 2517 0.954
  2519  H   0.996        C 2517 0.970
  2520  C   3.975        C 2521 1.584    C 2534 1.203    C 2517 1.017
  2521  C   3.960        C 2520 1.584    N 2523 1.207    H 2522 0.965
  2522  H   0.995        C 2521 0.965
  2523  N   3.518        C 2521 1.207    C 2525 1.158    H 2524 0.925
  2524  H   0.954        N 2523 0.925
  2525  C   3.960        C 2526 1.389    C 2534 1.209    N 2523 1.158
  2526  C   3.982        C 2528 1.434    C 2525 1.389    H 2527 0.960    C 2532 0.108
  2527  H   0.997        C 2526 0.960
  2528  C   3.987        C 2526 1.434    C 2530 1.411    H 2529 0.971
  2529  H   0.998        C 2528 0.971
  2530  C   3.987        C 2532 1.456    C 2528 1.411    H 2531 0.969
  2531  H   0.999        C 2530 0.969
  2532  C   3.991        C 2530 1.456    C 2534 1.368    H 2533 0.964    C 2526 0.108
  2533  H   0.999        C 2532 0.964
  2534  C   3.984        C 2532 1.368    C 2525 1.209    C 2520 1.203
  2535  C   3.933        O 2536 1.695    N 2537 1.249    C 2515 0.911
  2536  O   2.016        C 2535 1.695    N 2537 0.191
  2537  N   3.415        C 2535 1.249    C 2539 0.962    H 2538 0.926    O 2536 0.191
  2538  H   0.960        N 2537 0.926
  2539  C   3.963        C 2541 0.984    N 2537 0.962    H 2540 0.953    C 2547 0.914
  2540  H   0.996        C 2539 0.953
  2541  C   3.984        C 2539 0.984    H 2543 0.974    H 2542 0.969    C 2544 0.921
  2542  H   0.998        C 2541 0.969
  2543  H   0.997        C 2541 0.974
  2544  C   3.938        O 2545 1.553    O 2546 1.434    C 2541 0.921
  2545  O   1.846        C 2544 1.553    O 2546 0.215
  2546  O   1.774        C 2544 1.434    O 2545 0.215
  2547  C   3.943        O 2548 1.660    N 2549 1.301    C 2539 0.914
  2548  O   1.979        C 2547 1.660    N 2549 0.197
  2549  N   3.446        C 2547 1.301    C 2551 0.950    H 2550 0.926    O 2548 0.197
  2550  H   0.958        N 2549 0.926
  2551  C   3.953        C 2553 0.991    C 2557 0.964    N 2549 0.950    H 2552 0.942
  2552  H   0.990        C 2551 0.942
  2553  C   3.977        C 2551 0.991    H 2555 0.982    H 2554 0.974    H 2556 0.973
  2554  H   0.991        C 2553 0.974
  2555  H   0.994        C 2553 0.982
  2556  H   0.994        C 2553 0.973
  2557  C   3.943        O 2558 1.668    N 2559 1.233    C 2551 0.964
  2558  O   1.974        C 2557 1.668    N 2559 0.184
  2559  N   3.433        C 2557 1.233    C 2561 0.983    H 2560 0.929    O 2558 0.184
  2560  H   0.966        N 2559 0.929
  2561  C   3.960        N 2559 0.983    C 2563 0.977    H 2562 0.946    C 2578 0.906
  2562  H   0.993        C 2561 0.946
  2563  C   3.987        C 2566 0.993    C 2561 0.977    H 2564 0.967    H 2565 0.962
  2564  H   0.996        C 2563 0.967
  2565  H   0.997        C 2563 0.962
  2566  C   3.979        C 2567 1.456    C 2576 1.335    C 2563 0.993    C 2571 0.111
  2567  C   3.989        C 2566 1.456    C 2569 1.431    H 2568 0.965
  2568  H   0.998        C 2567 0.965
  2569  C   3.986        C 2567 1.431    C 2571 1.385    H 2570 0.965    C 2576 0.107
  2570  H   0.995        C 2569 0.965
  2571  C   3.944        C 2569 1.385    C 2574 1.326    O 2572 1.078    C 2566 0.111
  2572  O   2.091        C 2571 1.078    H 2573 0.817
  2573  H   0.887        O 2572 0.817
  2574  C   3.988        C 2576 1.519    C 2571 1.326    H 2575 0.963
  2575  H   0.998        C 2574 0.963
  2576  C   3.988        C 2574 1.519    C 2566 1.335    H 2577 0.965    C 2569 0.107
  2577  H   0.999        C 2576 0.965
  2578  C   3.941        O 2579 1.637    N 2580 1.322    C 2561 0.906
  2579  O   1.961        C 2578 1.637    N 2580 0.202
  2580  N   3.464        C 2578 1.322    C 2582 0.948    H 2581 0.908    O 2579 0.202
  2581  H   0.959        N 2580 0.908
  2582  C   3.951        C 2584 0.985    H 2583 0.963    N 2580 0.948    C 2600 0.919
  2583  H   0.999        C 2582 0.963
  2584  C   3.990        C 2587 1.002    C 2582 0.985    H 2585 0.972    H 2586 0.968
  2585  H   0.998        C 2584 0.972
  2586  H   0.998        C 2584 0.968
  2587  C   3.993        C 2590 1.007    C 2584 1.002    H 2589 0.977    H 2588 0.976
  2588  H   0.997        C 2587 0.976
  2589  H   0.999        C 2587 0.977
  2590  C   3.986        C 2587 1.007    C 2593 1.002    H 2591 0.973    H 2592 0.972
  2591  H   0.995        C 2590 0.973
  2592  H   0.992        C 2590 0.972
  2593  C   3.927        C 2590 1.002    N 2596 0.970    H 2594 0.967    H 2595 0.964
  2594  H   0.989        C 2593 0.967
  2595  H   0.991        C 2593 0.964
  2596  N   3.649        C 2593 0.970    H 2598 0.893    H 2597 0.891    H 2599 0.850
  2597  H   0.910        N 2596 0.891
  2598  H   0.912        N 2596 0.893
  2599  H   0.908        N 2596 0.850
  2600  C   3.936        O 2601 1.518    O 2602 1.467    C 2582 0.919
  2601  O   1.816        C 2600 1.518    O 2602 0.222
  2602  O   1.759        C 2600 1.467    O 2601 0.222
  2603  O   2.114        C 2605 1.101    H 2604 0.805
  2604  H   0.881        O 2603 0.805
  2605  C   3.948        C 2606 1.393    C 2614 1.310    O 2603 1.101
  2606  C   3.989        C 2608 1.433    C 2605 1.393    H 2607 0.958
  2607  H   0.999        C 2606 0.958
  2608  C   3.990        C 2606 1.433    C 2610 1.425    H 2609 0.968    C 2614 0.113
  2609  H   0.999        C 2608 0.968
  2610  C   3.988        C 2612 1.431    C 2608 1.425    H 2611 0.969
  2611  H   0.999        C 2610 0.969
  2612  C   3.986        C 2614 1.441    C 2610 1.431    H 2613 0.962
  2613  H   0.996        C 2612 0.962
  2614  C   3.982        C 2612 1.441    C 2605 1.310    C 2615 1.012    C 2608 0.113
  2615  C   3.993        C 2614 1.012    H 2617 0.979    H 2618 0.976    H 2616 0.968
  2616  H   0.998        C 2615 0.968
  2617  H   0.998        C 2615 0.979
  2618  H   0.998        C 2615 0.976

molecular dipole:
                 x           y           z       tot (Debye)
 q only:      563.817     682.103     651.670
   full:      566.768     684.969     659.777    2814.019
molecular quadrupole (traceless):
                xx          xy          yy          xz          yz          zz
 q only:   -16631.620   66988.843   11866.163   64203.569   79570.992    4765.457
  q+dip:   -17042.170   67204.943   11350.040   65184.849   80624.376    5692.130
   full:   -17034.307   67196.299   11334.939   65184.883   80618.309    5699.369


           -------------------------------------------------
          | TOTAL ENERGY            -4108.346952776797 Eh   |
          | GRADIENT NORM               1.340842520483 Eh/α |
          | HOMO-LUMO GAP               1.443819806305 eV   |
           -------------------------------------------------

------------------------------------------------------------------------
 * finished run on 2020/06/10 at 11:52:07.174     
------------------------------------------------------------------------
 total:
 * wall-time:     0 d,  0 h,  7 min, 15.942 sec
 *  cpu-time:     0 d,  5 h, 24 min, 29.794 sec
 * ratio c/w:    44.661 speedup
 SCF:
 * wall-time:     0 d,  0 h,  6 min, 43.854 sec
 *  cpu-time:     0 d,  5 h, 11 min, 54.006 sec
 * ratio c/w:    46.339 speedup

