      -----------------------------------------------------------      
     |                   =====================                   |     
     |                           x T B                           |     
     |                   =====================                   |     
     |                         S. Grimme                         |     
     |          Mulliken Center for Theoretical Chemistry        |     
     |                    University of Bonn                     |     
      -----------------------------------------------------------      

   * xtb version 6.2.3 (d7bf61a) compiled by 'conda@06d140edd85e' on 2020-05-12

   xtb is free software: you can redistribute it and/or modify it under
   the terms of the GNU Lesser General Public License as published by
   the Free Software Foundation, either version 3 of the License, or
   (at your option) any later version.
   
   xtb is distributed in the hope that it will be useful,
   but WITHOUT ANY WARRANTY; without even the implied warranty of
   MERCHANTABILITY or FITNESS FOR A PARTICULAR PURPOSE.  See the
   GNU Lesser General Public License for more details.
   
   Cite this work as:
   * S. Grimme, C. Bannwarth, P. Shushkov, J. Chem. Theory Comput., 2017,
     13, 1989-2009. DOI: 10.1021/acs.jctc.7b00118
   * C. Bannwarth, S. Ehlert and S. Grimme., J. Chem. Theory Comput., 2019,
     15, 1652-1671. DOI: 10.1021/acs.jctc.8b01176
   * P. Pracht, E. Caldeweyher, S. Ehlert, S. Grimme, ChemRxiv, 2019, preprint.
     DOI: 10.26434/chemrxiv.8326202.v1
   
   for DFT-D4:
   * E. Caldeweyher, C. Bannwarth and S. Grimme, J. Chem. Phys., 2017,
     147, 034112. DOI: 10.1063/1.4993215
   * E. Caldeweyher, S. Ehlert, A. Hansen, H. Neugebauer, S. Spicher,
     C. Bannwarth and S. Grimme, J. Chem. Phys., 2019, 150, 154122.
     DOI: 10.1063/1.5090222
   
   for sTDA-xTB:
   * S. Grimme and C. Bannwarth, J. Chem. Phys., 2016, 145, 054103.
     DOI: 10.1063/1.4959605
   
   in the mass-spec context:
   * V. Asgeirsson, C. Bauer and S. Grimme, Chem. Sci., 2017, 8, 4879.
     DOI: 10.1039/c7sc00601b
   
   for metadynamics refer to:
   * S. Grimme, J. Chem. Theory Comput., 2019, 155, 2847-2862
     DOI: 10.1021/acs.jctc.9b00143
   
   with help from (in alphabetical order)
   C. Bannwarth, F. Bohle, G. Brandenburg, E. Caldeweyher, M. Checinski,
   S. Dohm, S. Ehlert, S. Ehrlich, F. März, H. Neugebauer, J. Pisarek,
   P. Pracht, P. Shushkov, and S. Spicher.
   
 * started run on 2020/06/11 at 10:37:52.685     

           -------------------------------------------------
          |                Calculation Setup                |
           -------------------------------------------------

          program call               : xtb complex_17581.xyz --chrg +9 --uhf 0 --gbsa water
          hostname                   : gold54.cluster.local
          coordinate file            : complex_17581.xyz
          omp threads                :                    64
          number of atoms            :                  2618
          number of electrons        :                  7234
          charge                     :                     9
          spin                       :                   0.0
          first test random number   :      0.11382574600597


molecular fragmentation (1/2 indicates fragments):
111111111111111111111111111111111111111111111111111111111111111111111111
111111111111111111111111111111111111111111111111111111111111111111111111
111111111111111111111111111111111111111111111111111111111111111111111111
111111111111111111111111111111111111111111111111111111111111111111111111
111111111111111111111111111111111111111111111111111111111111111111111111
111111111111111111111111111111111111111111111111111111111111111111111111
111111111111111111111111111111111111111111111111111111111111111111111111
111111111111111111111111111111111111111111111111111111111111111111111111
111111111111111111111111111111111111111111111111111111111111111111111111
111111111111111111111111111111111111111111111111111111111111111111111111
111111111111111111111111111111111111111111111111111111111111111111111111
111111111111111111111111111111111111111111111111111111111111111111111111
111111111111111111111111111111111111111111111111111111111111111111111111
111111111111111111111111111111111111111111111111111111111111111111111111
111111111111111111111111111111111111111111111111111111111111111111111111
111111111111111111111111111111111111111111111111111111111111111111111111
111111111111111111111111111111111111111111111111111111111111111111111111
111111111111111111111111111111111111111111111111111111111111111111111111
111111111111111111111111111111111111111111111111111111111111111111111111
111111111111111111111111111111111111111111111111111111111111111111111111
111111111111111111111111111111111111111111111111111111111111111111111111
111111111111111111111111111111111111111111111111111111111111111111111111
111111111111111111111111111111111111111111111111111111111111111111111111
111111111111111111111111111111111111111111111111111111111111111111111111
111111111111111111111111111111111111111111111111111111111111111111111111
111111111111111111111111111111111111111111111111111111111111111111111111
111111111111111111111111111111111111111111111111111111111111111111111111
111111111111111111111111111111111111111111111111111111111111111111111111
111111111111111111111111111111111111111111111111111111111111111111111111
111111111111111111111111111111111111111111111111111111111111111111111111
111111111111111111111111111111111111111111111111111111111111111111111111
111111111111111111111111111111111111111111111111111111111111111111111111
111111111111111111111111111111111111111111111111111111111111111111111111
111111111111111111111111111111111111111111111111111111111111111111111111
111111111111111111111111111111111111111111111111111111111111111111111111
111111111111111111111111111111111111111111111111111111111111111111111111
11111111112222222222222222
# atoms in fragment 1/2:  2602    16
 fragment masses (1/2) :    18371.93      108.14
CMA distance (Bohr)    :  19.618
constraining FC (au)   :  0.0500
########################################################################
[WARNING] Please study the warnings concerning your input carefully
-2- prog_main: XTBPATH is not set, using XTBHOME instead
-1- prog_main: XTBHOME is not set, using HOME instead
########################################################################
           ------------------------------------------------- 
          |                 G F N 2 - x T B                 |
          | Geometry, Frequencies, Noncovalent interactions |
          |            JCTC 2019 parametrisation            |
           ------------------------------------------------- 
             k(s)              :                1.8500
             k(p)              :                2.2300
             k(d)              :                2.2300
             k(f)              :                2.0000
             kEN (H0ij)        :               -2.0000
             D4 a1             :                0.5200
             D4 a2             :                5.0000
             D4 s6             :                1.0000
             D4 s8             :                2.7000
             D4 s9             :                5.0000
             alphaj            :                2.0000

  Z AO/shell   Hii/eV     exponent
  1     Wed Apr 25 08:07:45 CEST 2018   EN: 2.200 GM2: 0.406  GM3: 0.0800  RAES: 1.40
     1s    -10.707211    1.230000
  6     Wed Apr 25 08:07:45 CEST 2018   EN: 2.550 GM2: 0.538  GM3: 0.1500  RAES: 3.00
     2s    -13.970922    2.096432
     2p    -10.063292    1.800000
  7     Wed Apr 25 08:07:45 CEST 2018   EN: 3.040 GM2: 0.461  GM3:-0.0640  RAES: 1.90
     2s    -16.686243    2.339881
     2p    -12.523956    2.014332
  8     Wed Apr 25 08:07:45 CEST 2018   EN: 3.440 GM2: 0.452  GM3:-0.0517  RAES: 1.80
     2s    -20.229985    2.439742
     2p    -15.503117    2.137023
 16     Tue Apr 24 11:44:34 CEST 2018   EN: 2.580 GM2: 0.340  GM3:-0.0502  RAES: 3.10
     3s    -20.029654    1.981333
     3p    -11.377694    2.025643
     3d     -0.420282    1.702555

 Solvent             : water
 Using internal parameter file: .param_gbsa2_water
 Gsolv ref. state (COSMO-RS): gsolv [1 M gas/solution]
 temperature (mdtemp)       :    298.14999999999998     
 dielectric constant        :    80.200000000000003     
 rho                        :    1.0000000000000000     
 mass                       :    18.000000000000000     
 surface tension            :    15.568945408385856     
 probe radius               :   0.97531378999999996     
 Gshift (Eh)                :    1.8574431267947933E-003
 c1                         :    1.5524381700000001     
 soset                      :   0.13032636000000000     
 HB correction              :  T
           ------------------------------------------------- 
          |        Self-Consistent Charge Iterations        |
           ------------------------------------------------- 

          ...................................................
          :                      SETUP                      :
          :.................................................:
          :  # basis functions                6551          :
          :  # atomic orbitals                6545          :
          :  # shells                         3923          :
          :  # electrons                      7234          :
          :  max. iterations                   250          :
          :  Hamiltonian                  GFN2-xTB          :
          :  restarted?                      false          :
          :  GBSA solvation                   true          :
          :  PC potential                    false          :
          :  electronic temp.          300.0000000     K    :
          :  accuracy                    1.0000000          :
          :  -> integral cutoff          0.2500000E+02      :
          :  -> integral neglect         0.1000000E-07      :
          :  -> SCF convergence          0.1000000E-05 Eh   :
          :  -> wf. convergence          0.1000000E-03 e    :
          :  Broyden damping             0.4000000          :
          ...................................................

 iter      E             dE          RMSdq      gap      omega  full diag
   1  -4144.1321335 -0.414413E+04  0.427E+00    2.11       0.0  T
   2  -4156.3528766 -0.122207E+02  0.226E+00    2.47       1.0  T
   3  -4156.8203584 -0.467482E+00  0.119E+00    2.16       1.0  T
   4  -4156.8923047 -0.719463E-01  0.282E-01    1.72       1.0  T
   5  -4156.9864799 -0.941752E-01  0.141E-01    1.67       1.0  T
   6  -4156.9997698 -0.132899E-01  0.744E-02    1.80       1.0  T
   7  -4157.0022254 -0.245563E-02  0.408E-02    1.78       1.0  T
   8  -4157.0036610 -0.143553E-02  0.190E-02    1.74       1.0  T
   9  -4157.0039678 -0.306804E-03  0.116E-02    1.72       1.0  T
  10  -4157.0040858 -0.118068E-03  0.611E-03    1.70       1.0  T
  11  -4157.0041161 -0.302122E-04  0.315E-03    1.68       1.0  T
  12  -4157.0041260 -0.993678E-05  0.170E-03    1.68       1.1  T
  13  -4157.0041287 -0.266541E-05  0.922E-04    1.68       2.1  T
  14  -4157.0041294 -0.748688E-06  0.459E-04    1.67       4.3  T
  15  -4157.0041296 -0.179814E-06  0.236E-04    1.67       8.3  T

   *** convergence criteria satisfied after 15 iterations ***

         #    Occupation            Energy/Eh            Energy/eV
      -------------------------------------------------------------
         1        2.0000           -0.7546161             -20.5341
       ...           ...                  ...                  ...
      3611        2.0000           -0.3590431              -9.7701
      3612        2.0000           -0.3579254              -9.7396
      3613        2.0000           -0.3558700              -9.6837
      3614        2.0000           -0.3543026              -9.6411
      3615        2.0000           -0.3539711              -9.6320
      3616        2.0000           -0.3537052              -9.6248
      3617        2.0000           -0.3496911              -9.5156 (HOMO)
      3618                         -0.2882064              -7.8425 (LUMO)
      3619                         -0.2703503              -7.3566
      3620                         -0.2661844              -7.2432
      3621                         -0.2636243              -7.1736
      3622                         -0.2632525              -7.1635
       ...                                ...                  ...
      6545                          0.7801237              21.2282
      -------------------------------------------------------------
                  HL-Gap            0.0614846 Eh            1.6731 eV
             Fermi-level           -0.3189488 Eh           -8.6790 eV

 SCC (total)                   0 d,  0 h,  6 min, 27.531 sec
 SCC setup                      ...        0 min,  3.074 sec (  0.793%)
 Dispersion                     ...        0 min,  2.031 sec (  0.524%)
 integral evaluation            ...        0 min,  8.693 sec (  2.243%)
 zeroth order Hamiltonian       ...        0 min,  0.345 sec (  0.089%)
 iterations                     ...        5 min, 55.606 sec ( 91.762%)
 molecular gradient             ...        0 min, 17.242 sec (  4.449%)
 printout                       ...        0 min,  0.541 sec (  0.140%)

         :::::::::::::::::::::::::::::::::::::::::::::::::::::
         ::                     SUMMARY                     ::
         :::::::::::::::::::::::::::::::::::::::::::::::::::::
         :: total energy           -4108.476648131138 Eh    ::
         :: total w/o Gsasa/hb     -4108.077665360194 Eh    ::
         :: gradient norm              1.321838571796 Eh/a0 ::
         :: HOMO-LUMO gap              1.673081887508 eV    ::
         ::.................................................::
         :: SCC energy             -4157.071197165355 Eh    ::
         :: -> isotropic ES           14.243871402099 Eh    ::
         :: -> anisotropic ES         -0.786183462578 Eh    ::
         :: -> anisotropic XC          1.167038673016 Eh    ::
         :: -> dispersion             -3.934302738701 Eh    ::
         :: -> Gsolv                  -4.079346359235 Eh    ::
         ::    -> Gborn               -3.680363588290 Eh    ::
         ::    -> Gsasa               -0.068925022590 Eh    ::
         ::    -> Ghb                 -0.331915191482 Eh    ::
         ::    -> Gshift               0.001857443127 Eh    ::
         :: repulsion energy          48.044086817832 Eh    ::
         :: add. restraining           0.000000000000 Eh    ::
         :::::::::::::::::::::::::::::::::::::::::::::::::::::

           -------------------------------------------------
          |                Property Printout                |
           -------------------------------------------------

    * Orbital Energies and Occupations

         #    Occupation            Energy/Eh            Energy/eV
      -------------------------------------------------------------
         1        2.0000           -0.7546161             -20.5341
       ...           ...                  ...                  ...
      3605        2.0000           -0.3630690              -9.8796
      3606        2.0000           -0.3622107              -9.8563
      3607        2.0000           -0.3604859              -9.8093
      3608        2.0000           -0.3600823              -9.7983
      3609        2.0000           -0.3600251              -9.7968
      3610        2.0000           -0.3596648              -9.7870
      3611        2.0000           -0.3590431              -9.7701
      3612        2.0000           -0.3579254              -9.7396
      3613        2.0000           -0.3558700              -9.6837
      3614        2.0000           -0.3543026              -9.6411
      3615        2.0000           -0.3539711              -9.6320
      3616        2.0000           -0.3537052              -9.6248
      3617        2.0000           -0.3496911              -9.5156 (HOMO)
      3618                         -0.2882064              -7.8425 (LUMO)
      3619                         -0.2703503              -7.3566
      3620                         -0.2661844              -7.2432
      3621                         -0.2636243              -7.1736
      3622                         -0.2632525              -7.1635
      3623                         -0.2609459              -7.1007
      3624                         -0.2601979              -7.0803
      3625                         -0.2593073              -7.0561
      3626                         -0.2587046              -7.0397
      3627                         -0.2576418              -7.0108
      3628                         -0.2575419              -7.0081
       ...                                ...                  ...
      6545                          0.7801237              21.2282
      -------------------------------------------------------------
                  HL-Gap            0.0614846 Eh            1.6731 eV
             Fermi-level           -0.3189488 Eh           -8.6790 eV

     #   Z        covCN         q      C6AA      α(0)
     1   7 N      3.490    -0.145    24.124     7.295
     2   1 H      0.860     0.293     0.734     1.342
     3   1 H      0.860     0.303     0.705     1.315
     4   1 H      0.860     0.304     0.701     1.311
     5   6 C      3.787    -0.005    20.691     6.479
     6   1 H      0.925     0.107     1.720     2.051
     7   6 C      3.815    -0.095    22.305     6.722
     8   1 H      0.925     0.100     1.781     2.087
     9   1 H      0.925     0.095     1.830     2.116
    10   6 C      3.785    -0.021    20.958     6.521
    11   1 H      0.924     0.071     2.077     2.254
    12   1 H      0.925     0.069     2.100     2.266
    13  16 S      1.952    -0.213   150.131    20.622
    14   6 C      3.732    -0.067    21.888     6.678
    15   1 H      0.925     0.048     2.346     2.395
    16   1 H      0.925     0.065     2.147     2.291
    17   1 H      0.925     0.064     2.157     2.297
    18   6 C      2.751     0.268    22.482     7.764
    19   8 O      0.859    -0.457    22.852     6.409
    20   7 N      2.685    -0.140    24.033     7.281
    21   1 H      0.860     0.205     1.082     1.629
    22   6 C      3.760     0.011    20.435     6.444
    23   1 H      0.924     0.116     1.646     2.007
    24   6 C      3.799    -0.113    22.669     6.779
    25   1 H      0.925     0.093     1.849     2.126
    26   1 H      0.924     0.099     1.791     2.093
    27   6 C      2.743     0.280    22.256     7.725
    28   8 O      0.864    -0.503    23.838     6.546
    29   7 N      2.640    -0.280    27.227     7.750
    30   1 H      0.860     0.213     1.041     1.598
    31   1 H      0.860     0.242     0.915     1.498
    32   6 C      2.726     0.250    22.793     7.816
    33   8 O      0.857    -0.481    23.374     6.482
    34   7 N      2.678    -0.172    24.719     7.384
    35   1 H      0.860     0.226     0.984     1.554
    36   6 C      3.774     0.007    20.485     6.449
    37   1 H      0.925     0.092     1.860     2.133
    38   6 C      3.845    -0.041    21.280     6.562
    39   1 H      0.925     0.071     2.075     2.253
    40   6 C      3.752    -0.136    23.183     6.866
    41   1 H      0.925     0.068     2.104     2.268
    42   1 H      0.925     0.068     2.109     2.271
    43   1 H      0.925     0.046     2.369     2.407
    44   6 C      3.792    -0.076    21.959     6.673
    45   1 H      0.924     0.035     2.513     2.479
    46   1 H      0.924     0.054     2.273     2.358
    47   6 C      3.747    -0.120    22.859     6.820
    48   1 H      0.924     0.052     2.290     2.367
    49   1 H      0.924     0.036     2.502     2.474
    50   1 H      0.924     0.039     2.467     2.456
    51   6 C      2.736     0.266    22.502     7.767
    52   8 O      0.861    -0.493    23.627     6.517
    53   7 N      2.689    -0.177    24.826     7.400
    54   1 H      0.860     0.233     0.951     1.528
    55   6 C      3.783     0.028    20.127     6.391
    56   1 H      0.925     0.087     1.912     2.162
    57   6 C      3.818    -0.069    21.814     6.647
    58   1 H      0.925     0.068     2.113     2.273
    59   1 H      0.925     0.060     2.204     2.321
    60   6 C      2.956     0.016    27.663     8.627
    61   6 C      2.913    -0.048    29.199     8.861
    62   1 H      0.926     0.064     2.149     2.292
    63   6 C      2.896    -0.039    28.971     8.825
    64   1 H      0.926     0.050     2.320     2.382
    65   6 C      2.906    -0.033    28.820     8.803
    66   1 H      0.926     0.026     2.640     2.541
    67   6 C      2.901    -0.033    28.830     8.804
    68   1 H      0.926     0.014     2.832     2.631
    69   6 C      2.916    -0.047    29.164     8.856
    70   1 H      0.926     0.042     2.416     2.431
    71   6 C      2.744     0.247    22.856     7.828
    72   8 O      0.858    -0.470    23.123     6.447
    73   7 N      2.682    -0.189    25.101     7.441
    74   1 H      0.860     0.207     1.072     1.622
    75   6 C      3.777     0.018    20.291     6.418
    76   1 H      0.925     0.095     1.835     2.119
    77   6 C      3.800    -0.059    21.645     6.624
    78   1 H      0.925     0.052     2.295     2.369
    79   1 H      0.925     0.053     2.285     2.364
    80   6 C      3.800    -0.097    22.355     6.732
    81   1 H      0.924     0.039     2.469     2.457
    82   1 H      0.925     0.034     2.523     2.484
    83   6 C      2.688     0.355    20.968     7.494
    84   8 O      0.856    -0.616    26.526     6.905
    85   8 O      0.857    -0.653    27.469     7.027
    86   6 C      2.736     0.259    22.638     7.790
    87   8 O      0.861    -0.485    23.446     6.492
    88   7 N      2.690    -0.166    24.589     7.365
    89   1 H      0.860     0.226     0.983     1.553
    90   6 C      3.787     0.027    20.139     6.392
    91   1 H      0.924     0.080     1.980     2.200
    92   6 C      3.810    -0.085    22.110     6.693
    93   1 H      0.925     0.061     2.184     2.311
    94   1 H      0.925     0.080     1.979     2.200
    95   6 C      3.782    -0.024    21.021     6.531
    96   1 H      0.924     0.059     2.213     2.326
    97   1 H      0.925     0.038     2.476     2.461
    98  16 S      1.936    -0.181   148.739    20.527
    99   6 C      3.735    -0.074    22.011     6.696
   100   1 H      0.924     0.057     2.235     2.338
   101   1 H      0.925     0.067     2.118     2.276
   102   1 H      0.925     0.071     2.080     2.255
   103   6 C      2.751     0.266    22.516     7.770
   104   8 O      0.857    -0.493    23.640     6.519
   105   7 N      2.685    -0.168    24.645     7.373
   106   1 H      0.860     0.233     0.951     1.528
   107   6 C      3.798     0.019    20.257     6.408
   108   1 H      0.925     0.085     1.928     2.172
   109   6 C      3.809    -0.081    22.048     6.684
   110   1 H      0.925     0.055     2.264     2.353
   111   1 H      0.924     0.073     2.053     2.241
   112   6 C      3.842    -0.023    20.955     6.512
   113   1 H      0.924     0.051     2.303     2.373
   114   6 C      3.761    -0.118    22.811     6.808
   115   1 H      0.924     0.038     2.471     2.458
   116   1 H      0.925     0.053     2.288     2.366
   117   1 H      0.925     0.050     2.326     2.385
   118   6 C      3.753    -0.124    22.945     6.831
   119   1 H      0.925     0.033     2.542     2.493
   120   1 H      0.924     0.029     2.595     2.519
   121   1 H      0.925     0.051     2.310     2.377
   122   6 C      2.751     0.269    22.460     7.760
   123   8 O      0.860    -0.515    24.111     6.583
   124   7 N      2.687    -0.173    24.750     7.389
   125   1 H      0.860     0.206     1.077     1.626
   126   6 C      3.787     0.010    20.429     6.438
   127   1 H      0.925     0.090     1.883     2.146
   128   6 C      3.793    -0.089    22.208     6.711
   129   1 H      0.925     0.079     1.986     2.204
   130   1 H      0.925     0.078     1.999     2.211
   131   6 C      3.793    -0.086    22.155     6.703
   132   1 H      0.925     0.069     2.095     2.263
   133   1 H      0.925     0.071     2.077     2.254
   134   6 C      3.733    -0.021    21.039     6.547
   135   1 H      0.924     0.087     1.908     2.160
   136   1 H      0.925     0.083     1.945     2.181
   137   7 N      2.690    -0.143    24.090     7.290
   138   1 H      0.860     0.225     0.989     1.558
   139   6 C      2.732     0.229    23.192     7.884
   140   7 N      2.653    -0.248    26.453     7.639
   141   1 H      0.860     0.253     0.873     1.463
   142   1 H      0.860     0.241     0.921     1.503
   143   7 N      2.649    -0.290    27.481     7.786
   144   1 H      0.860     0.262     0.837     1.433
   145   1 H      0.860     0.219     1.013     1.576
   146   6 C      2.758     0.276    22.332     7.739
   147   8 O      0.859    -0.474    23.224     6.461
   148   7 N      2.685    -0.164    24.558     7.360
   149   1 H      0.860     0.210     1.054     1.608
   150   6 C      3.785    -0.001    20.615     6.467
   151   1 H      0.924     0.084     1.935     2.175
   152   6 C      3.834    -0.021    20.931     6.509
   153   1 H      0.925     0.047     2.355     2.400
   154   6 C      3.754    -0.122    22.899     6.823
   155   1 H      0.925     0.055     2.261     2.351
   156   1 H      0.924     0.048     2.339     2.392
   157   1 H      0.925     0.049     2.333     2.388
   158   6 C      3.792    -0.059    21.647     6.626
   159   1 H      0.924     0.029     2.601     2.522
   160   1 H      0.924     0.042     2.426     2.436
   161   6 C      3.748    -0.109    22.654     6.789
   162   1 H      0.924     0.047     2.358     2.401
   163   1 H      0.924     0.047     2.359     2.402
   164   1 H      0.925     0.034     2.536     2.490
   165   6 C      2.744     0.271    22.418     7.753
   166   8 O      0.865    -0.483    23.404     6.486
   167   7 N      2.693    -0.227    25.961     7.567
   168   1 H      0.860     0.234     0.947     1.525
   169   6 C      3.773     0.021    20.243     6.411
   170   1 H      0.924     0.077     2.007     2.216
   171   6 C      3.804    -0.087    22.166     6.703
   172   1 H      0.924     0.017     2.785     2.610
   173   1 H      0.925     0.046     2.372     2.409
   174   6 C      2.688     0.364    20.821     7.468
   175   8 O      0.857    -0.584    25.721     6.800
   176   8 O      0.857    -0.593    25.951     6.830
   177   6 C      2.729     0.275    22.353     7.740
   178   8 O      0.857    -0.451    22.736     6.393
   179   7 N      2.684    -0.193    25.199     7.455
   180   1 H      0.860     0.194     1.135     1.669
   181   6 C      3.777     0.022    20.238     6.409
   182   1 H      0.924     0.085     1.930     2.173
   183   6 C      3.800    -0.054    21.536     6.607
   184   1 H      0.925     0.044     2.401     2.423
   185   1 H      0.925     0.045     2.386     2.416
   186   6 C      3.801    -0.084    22.112     6.695
   187   1 H      0.924     0.026     2.638     2.540
   188   1 H      0.925     0.017     2.774     2.605
   189   6 C      2.688     0.355    20.968     7.494
   190   8 O      0.856    -0.675    28.036     7.099
   191   8 O      0.856    -0.615    26.488     6.900
   192   6 C      2.741     0.277    22.318     7.735
   193   8 O      0.864    -0.485    23.463     6.494
   194   7 N      2.685    -0.174    24.776     7.393
   195   1 H      0.860     0.221     1.003     1.569
   196   6 C      3.722    -0.033    21.268     6.586
   197   1 H      0.925     0.095     1.835     2.118
   198   1 H      0.924     0.096     1.822     2.111
   199   6 C      2.733     0.273    22.384     7.746
   200   8 O      0.860    -0.474    23.222     6.461
   201   7 N      2.685    -0.173    24.736     7.387
   202   1 H      0.860     0.212     1.047     1.603
   203   6 C      3.785     0.022    20.222     6.405
   204   1 H      0.925     0.055     2.253     2.347
   205   6 C      3.819    -0.085    22.111     6.692
   206   1 H      0.924     0.073     2.052     2.240
   207   1 H      0.924     0.067     2.124     2.279
   208   6 C      3.851    -0.021    20.908     6.504
   209   1 H      0.925     0.040     2.450     2.448
   210   6 C      3.759    -0.124    22.919     6.825
   211   1 H      0.925     0.059     2.216     2.328
   212   1 H      0.925     0.046     2.366     2.405
   213   1 H      0.924     0.016     2.797     2.615
   214   6 C      3.766    -0.133    23.087     6.848
   215   1 H      0.925     0.055     2.255     2.348
   216   1 H      0.925     0.056     2.249     2.345
   217   1 H      0.925     0.055     2.258     2.350
   218   6 C      2.747     0.268    22.467     7.761
   219   8 O      0.857    -0.486    23.472     6.496
   220   7 N      2.684    -0.154    24.327     7.325
   221   1 H      0.860     0.200     1.105     1.647
   222   6 C      3.783     0.017    20.301     6.418
   223   1 H      0.924     0.088     1.903     2.157
   224   6 C      3.814    -0.086    22.121     6.694
   225   1 H      0.925     0.090     1.883     2.146
   226   1 H      0.925     0.068     2.107     2.270
   227   6 C      3.803    -0.085    22.128     6.697
   228   1 H      0.925     0.047     2.362     2.403
   229   1 H      0.924     0.081     1.973     2.196
   230   6 C      3.741    -0.037    21.310     6.586
   231   1 H      0.925     0.108     1.712     2.046
   232   1 H      0.924     0.071     2.078     2.254
   233   7 N      2.708    -0.143    24.088     7.289
   234   1 H      0.860     0.265     0.828     1.425
   235   6 C      2.739     0.241    22.958     7.845
   236   7 N      2.697    -0.248    26.465     7.640
   237   1 H      0.860     0.241     0.920     1.503
   238   1 H      0.860     0.220     1.008     1.573
   239   7 N      2.715    -0.270    26.983     7.715
   240   1 H      0.860     0.239     0.927     1.509
   241   1 H      0.860     0.269     0.812     1.411
   242   6 C      2.759     0.250    22.798     7.819
   243   8 O      0.859    -0.504    23.863     6.550
   244   7 N      2.686    -0.152    24.279     7.318
   245   1 H      0.860     0.213     1.042     1.599
   246   6 C      3.784     0.007    20.470     6.445
   247   1 H      0.925     0.098     1.802     2.099
   248   6 C      3.800    -0.085    22.120     6.696
   249   1 H      0.924     0.083     1.950     2.184
   250   1 H      0.925     0.056     2.250     2.346
   251   6 C      3.850    -0.014    20.783     6.484
   252   1 H      0.924     0.041     2.438     2.442
   253   6 C      3.777    -0.123    22.891     6.817
   254   1 H      0.924     0.048     2.350     2.397
   255   1 H      0.924     0.055     2.253     2.347
   256   1 H      0.924     0.039     2.460     2.453
   257   6 C      3.773    -0.118    22.791     6.802
   258   1 H      0.925     0.037     2.486     2.466
   259   1 H      0.925     0.029     2.602     2.523
   260   1 H      0.924     0.041     2.439     2.442
   261   6 C      2.745     0.262    22.586     7.782
   262   8 O      0.861    -0.485    23.461     6.494
   263   7 N      2.689    -0.155    24.360     7.330
   264   1 H      0.860     0.200     1.107     1.648
   265   6 C      3.787     0.013    20.363     6.427
   266   1 H      0.925     0.089     1.890     2.150
   267   6 C      3.802    -0.085    22.112     6.695
   268   1 H      0.925     0.059     2.206     2.322
   269   1 H      0.925     0.057     2.240     2.341
   270   6 C      3.799    -0.084    22.105     6.694
   271   1 H      0.924     0.070     2.091     2.261
   272   1 H      0.925     0.074     2.039     2.233
   273   6 C      3.801    -0.096    22.338     6.729
   274   1 H      0.924     0.068     2.108     2.270
   275   1 H      0.925     0.073     2.057     2.243
   276   6 C      3.733    -0.065    21.835     6.670
   277   1 H      0.925     0.139     1.470     1.896
   278   1 H      0.925     0.131     1.530     1.935
   279   7 N      3.490    -0.142    24.055     7.284
   280   1 H      0.860     0.294     0.731     1.339
   281   1 H      0.860     0.298     0.719     1.328
   282   1 H      0.860     0.293     0.735     1.343
   283   6 C      2.753     0.269    22.465     7.761
   284   8 O      0.862    -0.539    24.673     6.660
   285   7 N      2.680    -0.151    24.262     7.316
   286   1 H      0.860     0.237     0.936     1.515
   287   6 C      3.780     0.005    20.509     6.452
   288   1 H      0.924     0.061     2.188     2.313
   289   6 C      3.843    -0.034    21.157     6.543
   290   1 H      0.925     0.088     1.899     2.155
   291   6 C      3.755    -0.127    22.993     6.837
   292   1 H      0.925     0.055     2.263     2.352
   293   1 H      0.925     0.074     2.046     2.237
   294   1 H      0.925     0.028     2.613     2.528
   295   6 C      3.802    -0.089    22.190     6.707
   296   1 H      0.925     0.060     2.205     2.322
   297   1 H      0.924     0.035     2.511     2.478
   298   6 C      3.752    -0.129    23.039     6.845
   299   1 H      0.924     0.069     2.099     2.266
   300   1 H      0.924     0.038     2.482     2.464
   301   1 H      0.925     0.045     2.386     2.416
   302   6 C      2.743     0.280    22.256     7.724
   303   8 O      0.858    -0.481    23.358     6.480
   304   7 N      2.691    -0.169    24.666     7.376
   305   1 H      0.860     0.218     1.017     1.580
   306   6 C      3.787     0.021    20.229     6.406
   307   1 H      0.924     0.114     1.664     2.017
   308   6 C      3.824    -0.093    22.258     6.714
   309   1 H      0.925     0.097     1.816     2.107
   310   1 H      0.925     0.077     2.010     2.217
   311   6 C      2.964    -0.001    28.041     8.686
   312   6 C      2.909    -0.057    29.404     8.892
   313   1 H      0.926     0.076     2.023     2.224
   314   6 C      2.906    -0.074    29.856     8.959
   315   1 H      0.926     0.019     2.744     2.591
   316   6 C      2.828     0.148    24.776     8.156
   317   8 O      1.660    -0.431    21.459     6.254
   318   1 H      0.805     0.295     0.735     1.347
   319   6 C      2.917    -0.064    29.590     8.920
   320   1 H      0.926     0.031     2.566     2.505
   321   6 C      2.901    -0.051    29.268     8.870
   322   1 H      0.926     0.086     1.920     2.167
   323   6 C      2.747     0.252    22.756     7.811
   324   8 O      0.858    -0.498    23.735     6.532
   325   7 N      2.688    -0.159    24.432     7.341
   326   1 H      0.860     0.216     1.026     1.587
   327   6 C      3.797     0.020    20.235     6.405
   328   1 H      0.924     0.080     1.979     2.200
   329   6 C      3.798    -0.075    21.945     6.670
   330   1 H      0.924     0.047     2.361     2.403
   331   1 H      0.925     0.069     2.092     2.262
   332   6 C      3.796    -0.080    22.034     6.684
   333   1 H      0.924     0.078     1.996     2.209
   334   1 H      0.924     0.059     2.207     2.323
   335   6 C      3.784    -0.094    22.307     6.728
   336   1 H      0.925     0.062     2.180     2.309
   337   1 H      0.924     0.087     1.908     2.160
   338   6 C      3.713    -0.064    21.863     6.681
   339   1 H      0.924     0.132     1.517     1.926
   340   1 H      0.925     0.141     1.451     1.884
   341   7 N      3.485    -0.132    23.853     7.254
   342   1 H      0.860     0.285     0.758     1.364
   343   1 H      0.860     0.299     0.717     1.326
   344   1 H      0.860     0.288     0.751     1.358
   345   6 C      2.756     0.269    22.452     7.759
   346   8 O      0.861    -0.526    24.356     6.617
   347   7 N      2.702    -0.184    24.991     7.425
   348   1 H      0.860     0.231     0.961     1.536
   349   6 C      3.792     0.047    19.789     6.335
   350   1 H      0.925     0.041     2.438     2.442
   351   6 C      3.816    -0.093    22.257     6.714
   352   1 H      0.924     0.045     2.380     2.413
   353   1 H      0.925     0.052     2.297     2.370
   354   6 C      2.688     0.353    21.013     7.502
   355   8 O      0.856    -0.641    27.136     6.984
   356   8 O      0.855    -0.645    27.244     6.998
   357   6 C      2.744     0.272    22.404     7.750
   358   8 O      0.861    -0.473    23.191     6.457
   359   7 N      2.681    -0.184    24.991     7.425
   360   1 H      0.860     0.185     1.185     1.705
   361   6 C      3.784     0.004    20.532     6.454
   362   1 H      0.925     0.099     1.796     2.096
   363   6 C      3.733     0.133    18.511     6.141
   364   1 H      0.925     0.012     2.866     2.647
   365   6 C      3.761    -0.126    22.964     6.831
   366   1 H      0.925     0.083     1.953     2.185
   367   1 H      0.925     0.045     2.382     2.414
   368   1 H      0.925     0.071     2.079     2.255
   369   8 O      1.666    -0.448    21.806     6.304
   370   1 H      0.808     0.325     0.651     1.267
   371   6 C      2.741     0.271    22.420     7.753
   372   8 O      0.861    -0.476    23.265     6.467
   373   7 N      2.683    -0.214    25.663     7.524
   374   1 H      0.860     0.195     1.131     1.666
   375   6 C      3.781     0.031    20.075     6.383
   376   1 H      0.925     0.083     1.949     2.183
   377   6 C      3.810    -0.038    21.251     6.562
   378   1 H      0.925     0.033     2.540     2.493
   379   1 H      0.925     0.035     2.520     2.482
   380   6 C      3.804    -0.089    22.197     6.707
   381   1 H      0.925     0.042     2.422     2.434
   382   1 H      0.925     0.046     2.377     2.411
   383   6 C      2.692     0.365    20.805     7.465
   384   8 O      0.856    -0.661    27.671     7.053
   385   8 O      0.858    -0.606    26.264     6.871
   386   6 C      2.744     0.277    22.309     7.734
   387   8 O      0.860    -0.467    23.062     6.439
   388   7 N      2.681    -0.190    25.118     7.443
   389   1 H      0.860     0.190     1.159     1.686
   390   6 C      3.736    -0.038    21.339     6.592
   391   1 H      0.925     0.118     1.627     1.995
   392   1 H      0.925     0.112     1.676     2.025
   393   6 C      2.745     0.269    22.462     7.760
   394   8 O      0.859    -0.437    22.432     6.350
   395   7 N      2.688    -0.164    24.557     7.360
   396   1 H      0.860     0.167     1.288     1.778
   397   6 C      3.793     0.018    20.275     6.412
   398   1 H      0.924     0.093     1.847     2.125
   399   6 C      3.819    -0.076    21.933     6.665
   400   1 H      0.924     0.075     2.033     2.230
   401   1 H      0.925     0.038     2.476     2.461
   402   6 C      2.974     0.003    27.942     8.671
   403   6 C      2.919    -0.050    29.252     8.869
   404   1 H      0.926     0.034     2.531     2.488
   405   6 C      2.911    -0.058    29.434     8.896
   406   1 H      0.926     0.051     2.311     2.377
   407   6 C      2.829     0.141    24.916     8.179
   408   8 O      1.655    -0.451    21.870     6.313
   409   1 H      0.805     0.347     0.594     1.211
   410   6 C      2.932    -0.062    29.547     8.915
   411   1 H      0.926     0.055     2.258     2.350
   412   6 C      2.921    -0.038    28.941     8.822
   413   1 H      0.926     0.059     2.215     2.328
   414   6 C      2.746     0.273    22.382     7.747
   415   8 O      0.858    -0.480    23.348     6.478
   416   7 N      2.687    -0.167    24.617     7.369
   417   1 H      0.860     0.219     1.013     1.576
   418   6 C      3.788     0.014    20.350     6.425
   419   1 H      0.924     0.100     1.789     2.092
   420   6 C      3.814    -0.084    22.089     6.690
   421   1 H      0.924     0.073     2.050     2.239
   422   1 H      0.924     0.056     2.240     2.341
   423   6 C      2.960    -0.007    28.189     8.709
   424   6 C      2.901    -0.044    29.096     8.844
   425   1 H      0.926     0.044     2.400     2.423
   426   6 C      2.902    -0.079    29.983     8.978
   427   1 H      0.926     0.057     2.230     2.335
   428   6 C      2.834     0.130    25.144     8.217
   429   8 O      1.658    -0.421    21.252     6.223
   430   1 H      0.807     0.346     0.597     1.214
   431   6 C      2.901    -0.064    29.597     8.920
   432   1 H      0.925     0.086     1.917     2.165
   433   6 C      2.907    -0.048    29.183     8.858
   434   1 H      0.926     0.059     2.205     2.322
   435   6 C      2.745     0.264    22.548     7.775
   436   8 O      0.857    -0.503    23.841     6.546
   437   7 N      2.697    -0.169    24.647     7.373
   438   1 H      0.860     0.250     0.885     1.474
   439   6 C      3.796     0.019    20.260     6.409
   440   1 H      0.924     0.071     2.069     2.250
   441   6 C      3.747     0.141    18.368     6.113
   442   1 H      0.924     0.017     2.783     2.609
   443   6 C      3.752    -0.107    22.610     6.781
   444   1 H      0.925     0.036     2.497     2.471
   445   1 H      0.925     0.035     2.511     2.478
   446   1 H      0.924     0.044     2.400     2.423
   447   8 O      1.660    -0.476    22.386     6.387
   448   1 H      0.805     0.319     0.665     1.281
   449   6 C      2.768     0.253    22.747     7.811
   450   8 O      0.857    -0.454    22.798     6.402
   451   7 N      2.688    -0.159    24.431     7.341
   452   1 H      0.860     0.211     1.050     1.605
   453   6 C      3.796     0.020    20.241     6.406
   454   1 H      0.924     0.083     1.950     2.184
   455   6 C      3.850    -0.034    21.150     6.541
   456   1 H      0.924     0.075     2.036     2.231
   457   6 C      3.757    -0.122    22.892     6.822
   458   1 H      0.925     0.024     2.666     2.553
   459   1 H      0.925     0.064     2.155     2.296
   460   1 H      0.924     0.046     2.371     2.408
   461   6 C      3.792    -0.077    21.972     6.675
   462   1 H      0.924     0.050     2.322     2.383
   463   1 H      0.924     0.030     2.591     2.517
   464   6 C      3.741    -0.134    23.147     6.864
   465   1 H      0.925     0.073     2.057     2.243
   466   1 H      0.925     0.063     2.165     2.301
   467   1 H      0.925     0.051     2.312     2.378
   468   6 C      2.745     0.261    22.597     7.784
   469   8 O      0.858    -0.529    24.431     6.627
   470   7 N      2.680    -0.157    24.388     7.334
   471   1 H      0.860     0.231     0.962     1.536
   472   6 C      3.737    -0.048    21.520     6.620
   473   1 H      0.925     0.069     2.100     2.266
   474   1 H      0.924     0.117     1.634     1.999
   475   6 C      2.756     0.276    22.323     7.737
   476   8 O      0.861    -0.467    23.075     6.440
   477   7 N      2.702    -0.166    24.589     7.365
   478   1 H      0.860     0.214     1.040     1.597
   479   6 C      3.817     0.024    20.153     6.389
   480   1 H      0.924     0.068     2.107     2.270
   481   6 C      3.850    -0.025    20.988     6.516
   482   1 H      0.925     0.051     2.303     2.373
   483   6 C      3.757    -0.108    22.624     6.781
   484   1 H      0.925     0.062     2.172     2.305
   485   1 H      0.925     0.040     2.448     2.447
   486   1 H      0.925     0.019     2.754     2.595
   487   6 C      3.801    -0.072    21.869     6.658
   488   1 H      0.925     0.049     2.327     2.386
   489   1 H      0.924     0.041     2.442     2.444
   490   6 C      3.747    -0.119    22.839     6.817
   491   1 H      0.925     0.048     2.344     2.394
   492   1 H      0.924     0.057     2.229     2.335
   493   1 H      0.924     0.043     2.411     2.428
   494   6 C      2.757     0.264    22.551     7.776
   495   8 O      0.857    -0.494    23.645     6.519
   496   7 N      2.688    -0.167    24.618     7.369
   497   1 H      0.860     0.212     1.047     1.603
   498   6 C      3.740    -0.011    20.848     6.515
   499   1 H      0.924     0.086     1.914     2.164
   500   1 H      0.924     0.090     1.879     2.144
   501   6 C      2.746     0.270    22.443     7.757
   502   8 O      0.862    -0.524    24.329     6.613
   503   7 N      2.687    -0.146    24.170     7.302
   504   1 H      0.860     0.217     1.025     1.586
   505   6 C      3.790     0.037    19.963     6.363
   506   1 H      0.925     0.058     2.220     2.330
   507   6 C      3.802    -0.082    22.071     6.689
   508   1 H      0.925     0.117     1.635     2.000
   509   1 H      0.925     0.093     1.847     2.125
   510   6 C      3.049     0.045    26.954     8.515
   511   7 N      2.743    -0.040    22.011     6.968
   512   1 H      0.860     0.258     0.854     1.447
   513   6 C      2.988     0.075    26.309     8.414
   514   1 H      0.926     0.140     1.458     1.888
   515   7 N      2.762    -0.005    21.354     6.863
   516   1 H      0.860     0.254     0.867     1.459
   517   6 C      2.963    -0.011    28.290     8.724
   518   1 H      0.926     0.139     1.465     1.893
   519   6 C      2.747     0.278    22.300     7.732
   520   8 O      0.859    -0.455    22.800     6.402
   521   7 N      2.682    -0.181    24.924     7.415
   522   1 H      0.860     0.197     1.124     1.661
   523   6 C      3.785     0.027    20.140     6.392
   524   1 H      0.924     0.071     2.077     2.254
   525   6 C      3.806    -0.074    21.907     6.663
   526   1 H      0.925     0.052     2.297     2.370
   527   1 H      0.925     0.052     2.296     2.370
   528   6 C      3.848    -0.013    20.767     6.482
   529   1 H      0.924     0.026     2.639     2.541
   530   6 C      3.764    -0.125    22.941     6.827
   531   1 H      0.924     0.040     2.443     2.444
   532   1 H      0.924     0.059     2.207     2.323
   533   1 H      0.925     0.048     2.344     2.394
   534   6 C      3.763    -0.126    22.966     6.831
   535   1 H      0.924     0.064     2.149     2.293
   536   1 H      0.924     0.035     2.515     2.480
   537   1 H      0.925     0.054     2.274     2.358
   538   6 C      2.750     0.277    22.314     7.735
   539   8 O      0.866    -0.513    24.066     6.577
   540   7 N      2.696    -0.176    24.799     7.396
   541   1 H      0.860     0.222     1.001     1.567
   542   6 C      3.799     0.021    20.224     6.403
   543   1 H      0.925     0.083     1.949     2.183
   544   6 C      3.820    -0.083    22.066     6.685
   545   1 H      0.925     0.060     2.195     2.317
   546   1 H      0.924     0.065     2.140     2.288
   547   6 C      3.846    -0.028    21.033     6.524
   548   1 H      0.924     0.033     2.541     2.493
   549   6 C      3.758    -0.128    23.001     6.838
   550   1 H      0.925     0.062     2.172     2.305
   551   1 H      0.925     0.044     2.393     2.419
   552   1 H      0.924     0.064     2.151     2.293
   553   6 C      3.749    -0.129    23.035     6.845
   554   1 H      0.925     0.060     2.196     2.317
   555   1 H      0.925     0.057     2.230     2.335
   556   1 H      0.925     0.015     2.805     2.619
   557   6 C      2.754     0.284    22.183     7.712
   558   8 O      0.863    -0.483    23.405     6.486
   559   7 N      2.686    -0.190    25.128     7.445
   560   1 H      0.860     0.212     1.047     1.603
   561   6 C      3.779    -0.008    20.740     6.488
   562   1 H      0.925     0.067     2.114     2.273
   563   6 C      3.724     0.112    18.849     6.200
   564   1 H      0.925     0.025     2.663     2.552
   565   6 C      3.750    -0.131    23.084     6.852
   566   1 H      0.925     0.077     2.010     2.217
   567   1 H      0.925     0.055     2.259     2.351
   568   1 H      0.925     0.064     2.155     2.296
   569   8 O      1.657    -0.478    22.413     6.391
   570   1 H      0.806     0.343     0.605     1.222
   571   6 C      2.746     0.286    22.148     7.706
   572   8 O      0.859    -0.403    21.737     6.251
   573   7 N      2.685    -0.195    25.228     7.460
   574   1 H      0.860     0.211     1.053     1.608
   575   6 C      3.792     0.016    20.312     6.418
   576   1 H      0.925     0.089     1.884     2.147
   577   6 C      3.809    -0.090    22.214     6.709
   578   1 H      0.924     0.078     2.000     2.211
   579   1 H      0.924     0.070     2.091     2.261
   580   6 C      3.799    -0.076    21.958     6.672
   581   1 H      0.925     0.051     2.309     2.376
   582   1 H      0.925     0.050     2.321     2.383
   583   6 C      3.799    -0.100    22.407     6.740
   584   1 H      0.924     0.074     2.042     2.235
   585   1 H      0.924     0.076     2.021     2.223
   586   6 C      3.729    -0.056    21.689     6.648
   587   1 H      0.925     0.126     1.564     1.956
   588   1 H      0.924     0.122     1.595     1.975
   589   7 N      3.491    -0.139    23.993     7.275
   590   1 H      0.860     0.292     0.738     1.346
   591   1 H      0.860     0.303     0.705     1.315
   592   1 H      0.860     0.303     0.705     1.315
   593   6 C      2.752     0.263    22.570     7.779
   594   8 O      0.860    -0.508    23.967     6.564
   595   7 N      2.686    -0.176    24.816     7.399
   596   1 H      0.860     0.215     1.030     1.590
   597   6 C      3.786     0.024    20.192     6.400
   598   1 H      0.925     0.082     1.959     2.189
   599   6 C      3.682     0.077    19.486     6.321
   600   1 H      0.924     0.054     2.274     2.358
   601   1 H      0.925     0.050     2.317     2.381
   602   8 O      1.659    -0.476    22.374     6.385
   603   1 H      0.805     0.357     0.573     1.189
   604   6 C      2.753     0.268    22.484     7.765
   605   8 O      0.857    -0.491    23.581     6.511
   606   7 N      2.734    -0.101    23.211     7.155
   607   6 C      3.825    -0.014    20.803     6.490
   608   1 H      0.925     0.065     2.143     2.289
   609   1 H      0.925     0.064     2.155     2.296
   610   6 C      3.815    -0.077    21.949     6.668
   611   1 H      0.925     0.077     2.011     2.218
   612   1 H      0.924     0.062     2.173     2.306
   613   6 C      3.854    -0.076    21.918     6.659
   614   1 H      0.925     0.073     2.051     2.240
   615   1 H      0.925     0.070     2.080     2.256
   616   6 C      3.841     0.017    20.252     6.402
   617   1 H      0.925     0.086     1.916     2.165
   618   6 C      2.758     0.263    22.574     7.780
   619   8 O      0.859    -0.490    23.575     6.510
   620   7 N      2.685    -0.155    24.357     7.330
   621   1 H      0.860     0.212     1.047     1.603
   622   6 C      3.790     0.005    20.508     6.449
   623   1 H      0.925     0.099     1.799     2.097
   624   6 C      3.671     0.053    19.915     6.396
   625   1 H      0.925     0.051     2.305     2.374
   626   1 H      0.925     0.064     2.158     2.297
   627   8 O      1.650    -0.483    22.527     6.407
   628   1 H      0.805     0.339     0.613     1.230
   629   6 C      2.734     0.258    22.658     7.793
   630   8 O      0.856    -0.447    22.645     6.380
   631   7 N      2.689    -0.182    24.948     7.418
   632   1 H      0.860     0.218     1.020     1.582
   633   6 C      3.791     0.016    20.311     6.418
   634   1 H      0.924     0.101     1.774     2.083
   635   6 C      3.817    -0.089    22.176     6.702
   636   1 H      0.925     0.056     2.242     2.341
   637   1 H      0.925     0.077     2.011     2.218
   638   6 C      3.849    -0.029    21.052     6.526
   639   1 H      0.925     0.059     2.205     2.322
   640   6 C      3.770    -0.135    23.135     6.854
   641   1 H      0.925     0.053     2.289     2.366
   642   1 H      0.925     0.039     2.467     2.456
   643   1 H      0.924     0.074     2.043     2.235
   644   6 C      3.771    -0.142    23.275     6.875
   645   1 H      0.925     0.049     2.327     2.385
   646   1 H      0.925     0.067     2.116     2.275
   647   1 H      0.925     0.043     2.413     2.429
   648   6 C      2.753     0.251    22.780     7.815
   649   8 O      0.859    -0.481    23.359     6.480
   650   7 N      2.682    -0.171    24.703     7.382
   651   1 H      0.860     0.218     1.019     1.581
   652   6 C      3.780     0.022    20.231     6.408
   653   1 H      0.924     0.121     1.606     1.982
   654   6 C      3.803    -0.116    22.724     6.787
   655   1 H      0.925     0.080     1.979     2.200
   656   1 H      0.925     0.114     1.659     2.014
   657   6 C      2.741     0.295    21.989     7.678
   658   8 O      0.861    -0.488    23.521     6.502
   659   7 N      2.637    -0.290    27.474     7.785
   660   1 H      0.860     0.220     1.008     1.573
   661   1 H      0.860     0.237     0.935     1.514
   662   6 C      2.747     0.270    22.429     7.755
   663   8 O      0.862    -0.500    23.779     6.538
   664   7 N      2.686    -0.177    24.843     7.403
   665   1 H      0.860     0.213     1.041     1.598
   666   6 C      3.784     0.017    20.307     6.419
   667   1 H      0.925     0.070     2.085     2.258
   668   6 C      3.749    -0.139    23.237     6.875
   669   1 H      0.925     0.083     1.951     2.184
   670   1 H      0.924     0.084     1.938     2.177
   671   1 H      0.925     0.059     2.205     2.322
   672   6 C      2.745     0.273    22.387     7.747
   673   8 O      0.859    -0.504    23.875     6.551
   674   7 N      2.682    -0.180    24.899     7.411
   675   1 H      0.860     0.230     0.965     1.539
   676   6 C      3.779     0.006    20.503     6.451
   677   1 H      0.925     0.061     2.189     2.314
   678   6 C      3.736    -0.139    23.268     6.884
   679   1 H      0.925     0.099     1.796     2.096
   680   1 H      0.925     0.075     2.037     2.232
   681   1 H      0.924     0.082     1.961     2.190
   682   6 C      2.747     0.279    22.279     7.729
   683   8 O      0.867    -0.494    23.655     6.521
   684   7 N      2.693    -0.192    25.172     7.452
   685   1 H      0.860     0.234     0.950     1.527
   686   6 C      3.785     0.004    20.525     6.453
   687   1 H      0.925     0.099     1.797     2.096
   688   6 C      3.797    -0.085    22.123     6.697
   689   1 H      0.924     0.064     2.156     2.296
   690   1 H      0.925     0.064     2.151     2.294
   691   6 C      3.791    -0.095    22.316     6.728
   692   1 H      0.925     0.094     1.842     2.123
   693   1 H      0.924     0.077     2.015     2.220
   694   6 C      3.795    -0.107    22.540     6.760
   695   1 H      0.924     0.074     2.046     2.237
   696   1 H      0.924     0.081     1.970     2.195
   697   6 C      3.729    -0.074    22.012     6.698
   698   1 H      0.925     0.144     1.433     1.872
   699   1 H      0.925     0.121     1.609     1.984
   700   7 N      3.491    -0.126    23.736     7.236
   701   1 H      0.860     0.310     0.684     1.296
   702   1 H      0.860     0.287     0.752     1.359
   703   1 H      0.860     0.289     0.747     1.354
   704   6 C      2.747     0.284    22.188     7.713
   705   8 O      0.863    -0.480    23.348     6.479
   706   7 N      2.683    -0.213    25.647     7.521
   707   1 H      0.860     0.220     1.011     1.575
   708   6 C      3.789     0.023    20.195     6.400
   709   1 H      0.925     0.072     2.068     2.249
   710   6 C      3.694     0.092    19.216     6.272
   711   1 H      0.925     0.040     2.446     2.446
   712   1 H      0.925     0.032     2.563     2.504
   713   8 O      1.661    -0.471    22.266     6.370
   714   1 H      0.806     0.356     0.575     1.191
   715   6 C      2.756     0.262    22.585     7.782
   716   8 O      0.862    -0.510    24.003     6.569
   717   7 N      2.694    -0.197    25.286     7.468
   718   1 H      0.860     0.223     0.997     1.564
   719   6 C      3.789     0.045    19.832     6.343
   720   1 H      0.924     0.058     2.227     2.334
   721   6 C      3.805    -0.059    21.625     6.620
   722   1 H      0.924     0.058     2.227     2.334
   723   1 H      0.924     0.052     2.292     2.367
   724   6 C      3.798    -0.100    22.413     6.741
   725   1 H      0.924     0.030     2.584     2.514
   726   1 H      0.925     0.078     2.002     2.213
   727   6 C      2.687     0.367    20.784     7.461
   728   8 O      0.858    -0.669    27.875     7.079
   729   8 O      0.858    -0.669    27.883     7.080
   730   6 C      2.747     0.276    22.332     7.738
   731   8 O      0.859    -0.497    23.726     6.531
   732   7 N      2.680    -0.207    25.505     7.501
   733   1 H      0.860     0.212     1.048     1.604
   734   6 C      3.786     0.027    20.140     6.392
   735   1 H      0.925     0.081     1.965     2.192
   736   6 C      3.804    -0.084    22.109     6.694
   737   1 H      0.925     0.053     2.279     2.361
   738   1 H      0.925     0.095     1.831     2.116
   739   6 C      3.848    -0.022    20.940     6.509
   740   1 H      0.925     0.036     2.502     2.474
   741   6 C      3.765    -0.125    22.947     6.828
   742   1 H      0.924     0.058     2.223     2.331
   743   1 H      0.924     0.020     2.732     2.585
   744   1 H      0.924     0.056     2.245     2.343
   745   6 C      3.765    -0.138    23.195     6.865
   746   1 H      0.925     0.071     2.076     2.253
   747   1 H      0.925     0.050     2.315     2.379
   748   1 H      0.925     0.074     2.042     2.235
   749   6 C      2.755     0.272    22.399     7.750
   750   8 O      0.860    -0.518    24.195     6.595
   751   7 N      2.713    -0.182    24.931     7.416
   752   1 H      0.860     0.208     1.067     1.618
   753   6 C      3.793     0.044    19.840     6.343
   754   1 H      0.925     0.076     2.020     2.223
   755   6 C      3.839    -0.082    22.034     6.678
   756   1 H      0.925     0.026     2.651     2.546
   757   1 H      0.924     0.049     2.339     2.391
   758   6 C      2.691     0.357    20.940     7.489
   759   8 O      0.857    -0.615    26.486     6.900
   760   8 O      0.856    -0.679    28.152     7.114
   761   6 C      2.753     0.273    22.377     7.746
   762   8 O      0.860    -0.524    24.332     6.613
   763   7 N      2.693    -0.162    24.513     7.353
   764   1 H      0.860     0.202     1.098     1.642
   765   6 C      3.799     0.028    20.109     6.385
   766   1 H      0.924     0.090     1.879     2.144
   767   6 C      3.812    -0.079    21.998     6.676
   768   1 H      0.924     0.083     1.952     2.185
   769   1 H      0.925     0.058     2.225     2.333
   770   6 C      3.805    -0.070    21.830     6.651
   771   1 H      0.925     0.044     2.401     2.423
   772   1 H      0.925     0.050     2.316     2.380
   773   6 C      3.803    -0.087    22.158     6.702
   774   1 H      0.924     0.075     2.035     2.231
   775   1 H      0.925     0.078     2.002     2.213
   776   6 C      3.736    -0.052    21.591     6.631
   777   1 H      0.924     0.111     1.689     2.032
   778   1 H      0.925     0.120     1.617     1.988
   779   7 N      3.486    -0.150    24.231     7.311
   780   1 H      0.860     0.306     0.696     1.307
   781   1 H      0.860     0.299     0.717     1.326
   782   1 H      0.860     0.312     0.680     1.292
   783   6 C      2.753     0.264    22.545     7.775
   784   8 O      0.857    -0.504    23.866     6.550
   785   7 N      2.689    -0.171    24.701     7.381
   786   1 H      0.860     0.208     1.065     1.616
   787   6 C      3.783     0.024    20.196     6.401
   788   1 H      0.924     0.087     1.906     2.159
   789   6 C      3.753    -0.119    22.842     6.815
   790   1 H      0.925     0.060     2.204     2.322
   791   1 H      0.925     0.064     2.158     2.297
   792   1 H      0.924     0.070     2.085     2.258
   793   6 C      2.740     0.269    22.464     7.760
   794   8 O      0.860    -0.467    23.068     6.439
   795   7 N      2.679    -0.182    24.936     7.416
   796   1 H      0.860     0.179     1.217     1.728
   797   6 C      3.777     0.006    20.494     6.450
   798   1 H      0.925     0.101     1.777     2.085
   799   6 C      3.844    -0.010    20.722     6.475
   800   1 H      0.924     0.026     2.645     2.543
   801   6 C      3.755    -0.106    22.573     6.774
   802   1 H      0.925     0.062     2.181     2.309
   803   1 H      0.925     0.043     2.404     2.425
   804   1 H      0.925     0.036     2.504     2.475
   805   6 C      3.802    -0.074    21.910     6.664
   806   1 H      0.924     0.066     2.125     2.280
   807   1 H      0.925     0.052     2.301     2.372
   808   6 C      3.751    -0.115    22.769     6.805
   809   1 H      0.924     0.041     2.437     2.441
   810   1 H      0.925     0.052     2.291     2.367
   811   1 H      0.925     0.034     2.529     2.487
   812   6 C      2.746     0.270    22.432     7.755
   813   8 O      0.859    -0.479    23.324     6.475
   814   7 N      2.685    -0.161    24.479     7.348
   815   1 H      0.860     0.187     1.175     1.698
   816   6 C      3.734    -0.031    21.223     6.575
   817   1 H      0.924     0.114     1.663     2.017
   818   1 H      0.924     0.094     1.841     2.122
   819   6 C      2.744     0.266    22.510     7.768
   820   8 O      0.856    -0.516    24.143     6.588
   821   7 N      2.681    -0.137    23.975     7.272
   822   1 H      0.860     0.197     1.123     1.660
   823   6 C      3.786     0.021    20.242     6.408
   824   1 H      0.925     0.074     2.040     2.233
   825   6 C      3.798    -0.083    22.080     6.691
   826   1 H      0.924     0.064     2.155     2.296
   827   1 H      0.925     0.066     2.134     2.284
   828   6 C      3.797    -0.068    21.809     6.650
   829   1 H      0.924     0.052     2.293     2.368
   830   1 H      0.924     0.051     2.304     2.374
   831   6 C      3.738    -0.014    20.912     6.525
   832   1 H      0.925     0.065     2.137     2.286
   833   1 H      0.925     0.072     2.067     2.248
   834   7 N      2.705    -0.153    24.310     7.323
   835   1 H      0.860     0.241     0.919     1.502
   836   6 C      2.737     0.244    22.916     7.838
   837   7 N      2.692    -0.273    27.050     7.724
   838   1 H      0.860     0.245     0.901     1.487
   839   1 H      0.860     0.232     0.958     1.533
   840   7 N      2.701    -0.257    26.664     7.669
   841   1 H      0.860     0.245     0.901     1.487
   842   1 H      0.860     0.253     0.872     1.462
   843   6 C      2.756     0.282    22.226     7.720
   844   8 O      0.859    -0.486    23.470     6.495
   845   7 N      2.696    -0.169    24.646     7.373
   846   1 H      0.860     0.204     1.084     1.631
   847   6 C      3.780     0.029    20.110     6.388
   848   1 H      0.925     0.069     2.098     2.265
   849   6 C      3.803    -0.108    22.557     6.762
   850   1 H      0.924     0.082     1.962     2.190
   851   1 H      0.924     0.055     2.253     2.348
   852   6 C      2.739     0.299    21.927     7.667
   853   8 O      0.874    -0.491    23.570     6.510
   854   7 N      2.651    -0.269    26.965     7.712
   855   1 H      0.860     0.263     0.835     1.431
   856   1 H      0.860     0.222     1.000     1.566
   857   6 C      2.748     0.277    22.318     7.736
   858   8 O      0.862    -0.436    22.419     6.348
   859   7 N      2.686    -0.182    24.949     7.418
   860   1 H      0.860     0.205     1.082     1.629
   861   6 C      3.803     0.008    20.449     6.438
   862   1 H      0.925     0.087     1.910     2.161
   863   6 C      3.780    -0.026    21.055     6.537
   864   1 H      0.925     0.108     1.711     2.046
   865   1 H      0.925     0.074     2.046     2.237
   866  16 S      1.924    -0.305   154.262    20.904
   867   1 H      0.923     0.175     1.237     1.739
   868   6 C      2.751     0.265    22.534     7.773
   869   8 O      0.860    -0.476    23.255     6.466
   870   7 N      2.690    -0.154    24.330     7.326
   871   1 H      0.860     0.208     1.065     1.617
   872   6 C      3.799     0.025    20.148     6.391
   873   1 H      0.925     0.110     1.698     2.038
   874   6 C      3.819    -0.097    22.331     6.725
   875   1 H      0.924     0.086     1.916     2.165
   876   1 H      0.924     0.089     1.890     2.150
   877   6 C      2.749     0.296    21.986     7.678
   878   8 O      0.861    -0.480    23.340     6.477
   879   7 N      2.645    -0.303    27.815     7.833
   880   1 H      0.860     0.240     0.923     1.505
   881   1 H      0.860     0.219     1.012     1.576
   882   6 C      2.745     0.257    22.669     7.796
   883   8 O      0.864    -0.476    23.267     6.467
   884   7 N      2.684    -0.163    24.519     7.354
   885   1 H      0.860     0.190     1.161     1.688
   886   6 C      3.730    -0.060    21.754     6.658
   887   1 H      0.925     0.138     1.474     1.899
   888   1 H      0.924     0.118     1.634     1.999
   889   6 C      2.746     0.276    22.324     7.736
   890   8 O      0.862    -0.450    22.698     6.388
   891   7 N      2.688    -0.175    24.799     7.396
   892   1 H      0.860     0.209     1.061     1.614
   893   6 C      3.799     0.012    20.385     6.429
   894   1 H      0.925     0.086     1.916     2.164
   895   6 C      3.851    -0.016    20.821     6.490
   896   1 H      0.925     0.069     2.101     2.267
   897   6 C      3.750    -0.118    22.815     6.812
   898   1 H      0.924     0.032     2.561     2.503
   899   1 H      0.925     0.049     2.328     2.386
   900   1 H      0.925     0.048     2.347     2.396
   901   6 C      3.755    -0.120    22.854     6.817
   902   1 H      0.925     0.057     2.235     2.338
   903   1 H      0.925     0.053     2.282     2.362
   904   1 H      0.924     0.031     2.570     2.507
   905   6 C      2.749     0.260    22.616     7.787
   906   8 O      0.857    -0.503    23.848     6.547
   907   7 N      2.684    -0.169    24.664     7.376
   908   1 H      0.860     0.230     0.967     1.541
   909   6 C      3.777    -0.001    20.615     6.469
   910   1 H      0.924     0.070     2.091     2.261
   911   6 C      3.838    -0.019    20.890     6.502
   912   1 H      0.924     0.041     2.440     2.443
   913   6 C      3.753    -0.119    22.835     6.814
   914   1 H      0.925     0.044     2.400     2.423
   915   1 H      0.925     0.039     2.460     2.453
   916   1 H      0.924     0.053     2.288     2.366
   917   6 C      3.800    -0.067    21.786     6.646
   918   1 H      0.925     0.032     2.561     2.502
   919   1 H      0.925     0.053     2.281     2.362
   920   6 C      3.750    -0.121    22.883     6.822
   921   1 H      0.924     0.049     2.329     2.386
   922   1 H      0.924     0.047     2.353     2.399
   923   1 H      0.924     0.037     2.484     2.465
   924   6 C      2.746     0.278    22.297     7.732
   925   8 O      0.859    -0.488    23.521     6.502
   926   7 N      2.685    -0.171    24.706     7.382
   927   1 H      0.860     0.227     0.977     1.549
   928   6 C      3.770    -0.008    20.761     6.493
   929   1 H      0.924     0.082     1.959     2.189
   930   6 C      3.719     0.127    18.619     6.163
   931   1 H      0.925     0.017     2.782     2.608
   932   6 C      3.751    -0.135    23.156     6.862
   933   1 H      0.925     0.057     2.237     2.339
   934   1 H      0.925     0.057     2.238     2.339
   935   1 H      0.925     0.061     2.187     2.313
   936   8 O      1.661    -0.484    22.547     6.410
   937   1 H      0.806     0.324     0.652     1.268
   938   6 C      2.747     0.266    22.514     7.769
   939   8 O      0.858    -0.464    23.000     6.430
   940   7 N      2.690    -0.174    24.766     7.391
   941   1 H      0.860     0.203     1.091     1.636
   942   6 C      3.806     0.017    20.285     6.412
   943   1 H      0.924     0.096     1.823     2.111
   944   6 C      3.813    -0.097    22.335     6.727
   945   1 H      0.925     0.065     2.147     2.291
   946   1 H      0.924     0.091     1.873     2.140
   947   6 C      3.810    -0.073    21.884     6.659
   948   1 H      0.925     0.070     2.088     2.260
   949   1 H      0.925     0.049     2.335     2.389
   950   6 C      3.806    -0.101    22.431     6.742
   951   1 H      0.924     0.091     1.869     2.138
   952   1 H      0.924     0.091     1.872     2.140
   953   6 C      3.738    -0.062    21.770     6.658
   954   1 H      0.925     0.116     1.648     2.008
   955   1 H      0.925     0.114     1.663     2.016
   956   7 N      3.489    -0.151    24.255     7.315
   957   1 H      0.860     0.301     0.711     1.321
   958   1 H      0.860     0.305     0.698     1.309
   959   1 H      0.860     0.299     0.715     1.325
   960   6 C      2.756     0.259    22.642     7.792
   961   8 O      0.857    -0.490    23.564     6.508
   962   7 N      2.687    -0.179    24.881     7.408
   963   1 H      0.860     0.226     0.981     1.551
   964   6 C      3.785     0.017    20.310     6.419
   965   1 H      0.925     0.072     2.068     2.249
   966   6 C      3.801    -0.109    22.578     6.765
   967   1 H      0.925     0.061     2.190     2.314
   968   1 H      0.925     0.042     2.424     2.435
   969   6 C      2.686     0.375    20.649     7.437
   970   8 O      0.858    -0.612    26.405     6.890
   971   8 O      0.856    -0.644    27.224     6.995
   972   6 C      2.747     0.264    22.544     7.775
   973   8 O      0.858    -0.483    23.419     6.488
   974   7 N      2.689    -0.176    24.813     7.398
   975   1 H      0.860     0.200     1.107     1.648
   976   6 C      3.809     0.027    20.110     6.383
   977   1 H      0.924     0.080     1.976     2.198
   978   6 C      3.812    -0.056    21.575     6.611
   979   1 H      0.925     0.046     2.369     2.407
   980   1 H      0.925     0.071     2.070     2.250
   981   6 C      3.810    -0.098    22.351     6.730
   982   1 H      0.924     0.045     2.387     2.416
   983   1 H      0.925     0.041     2.440     2.443
   984   6 C      2.688     0.366    20.800     7.464
   985   8 O      0.858    -0.573    25.470     6.766
   986   8 O      0.857    -0.626    26.754     6.935
   987   6 C      2.749     0.267    22.487     7.765
   988   8 O      0.859    -0.465    23.013     6.432
   989   7 N      2.680    -0.201    25.375     7.481
   990   1 H      0.860     0.213     1.044     1.600
   991   6 C      3.785     0.023    20.209     6.403
   992   1 H      0.924     0.092     1.858     2.132
   993   6 C      3.757    -0.136    23.164     6.862
   994   1 H      0.925     0.096     1.826     2.113
   995   1 H      0.925     0.071     2.080     2.255
   996   1 H      0.925     0.067     2.117     2.275
   997   6 C      2.762     0.267    22.488     7.766
   998   8 O      0.861    -0.519    24.206     6.596
   999   7 N      2.686    -0.178    24.862     7.405
  1000   1 H      0.860     0.236     0.940     1.519
  1001   6 C      3.783     0.023    20.208     6.404
  1002   1 H      0.925     0.079     1.991     2.207
  1003   6 C      3.792    -0.059    21.645     6.625
  1004   1 H      0.924     0.046     2.374     2.410
  1005   1 H      0.925     0.052     2.300     2.372
  1006   6 C      3.796    -0.102    22.443     6.746
  1007   1 H      0.925     0.041     2.430     2.438
  1008   1 H      0.925     0.061     2.192     2.315
  1009   6 C      2.681     0.357    20.938     7.488
  1010   8 O      0.858    -0.622    26.675     6.925
  1011   8 O      0.859    -0.604    26.211     6.864
  1012   6 C      2.748     0.264    22.538     7.774
  1013   8 O      0.859    -0.512    24.050     6.575
  1014   7 N      2.693    -0.173    24.749     7.389
  1015   1 H      0.860     0.202     1.095     1.639
  1016   6 C      3.789     0.013    20.368     6.428
  1017   1 H      0.925     0.081     1.970     2.195
  1018   6 C      3.806    -0.094    22.281     6.720
  1019   1 H      0.924     0.067     2.120     2.277
  1020   1 H      0.925     0.092     1.863     2.135
  1021   6 C      3.800    -0.078    21.993     6.677
  1022   1 H      0.925     0.063     2.159     2.298
  1023   1 H      0.925     0.049     2.329     2.387
  1024   6 C      3.796    -0.101    22.437     6.745
  1025   1 H      0.925     0.093     1.850     2.127
  1026   1 H      0.925     0.100     1.782     2.087
  1027   6 C      3.731    -0.060    21.743     6.656
  1028   1 H      0.925     0.106     1.732     2.058
  1029   1 H      0.925     0.108     1.712     2.046
  1030   7 N      3.488    -0.146    24.154     7.299
  1031   1 H      0.860     0.311     0.681     1.293
  1032   1 H      0.860     0.298     0.718     1.328
  1033   1 H      0.860     0.303     0.706     1.316
  1034   6 C      2.749     0.263    22.569     7.779
  1035   8 O      0.857    -0.507    23.934     6.559
  1036   7 N      2.689    -0.176    24.811     7.398
  1037   1 H      0.860     0.236     0.941     1.520
  1038   6 C      3.794     0.018    20.276     6.412
  1039   1 H      0.925     0.076     2.023     2.224
  1040   6 C      3.811    -0.090    22.202     6.707
  1041   1 H      0.925     0.057     2.237     2.339
  1042   1 H      0.925     0.082     1.956     2.187
  1043   6 C      3.851    -0.015    20.804     6.487
  1044   1 H      0.925     0.011     2.878     2.653
  1045   6 C      3.760    -0.127    22.980     6.834
  1046   1 H      0.924     0.064     2.155     2.296
  1047   1 H      0.925     0.034     2.526     2.485
  1048   1 H      0.925     0.043     2.411     2.428
  1049   6 C      3.759    -0.131    23.066     6.847
  1050   1 H      0.925     0.040     2.454     2.450
  1051   1 H      0.925     0.064     2.151     2.293
  1052   1 H      0.925     0.054     2.275     2.359
  1053   6 C      2.746     0.290    22.086     7.695
  1054   8 O      0.859    -0.500    23.781     6.538
  1055   7 N      2.682    -0.210    25.582     7.512
  1056   1 H      0.860     0.233     0.951     1.528
  1057   6 C      3.773     0.023    20.218     6.407
  1058   1 H      0.925     0.060     2.200     2.319
  1059   6 C      3.807    -0.072    21.874     6.658
  1060   1 H      0.925     0.063     2.167     2.302
  1061   1 H      0.925     0.080     1.979     2.200
  1062   6 C      2.949     0.005    27.907     8.664
  1063   6 C      2.945    -0.036    28.903     8.817
  1064   1 H      0.926     0.011     2.874     2.651
  1065   6 C      2.900    -0.035    28.881     8.812
  1066   1 H      0.926     0.054     2.273     2.358
  1067   6 C      2.934    -0.033    28.817     8.804
  1068   1 H      0.926     0.039     2.467     2.456
  1069   6 C      2.901    -0.044    29.096     8.844
  1070   1 H      0.926     0.067     2.120     2.277
  1071   6 C      2.928    -0.047    29.170     8.857
  1072   1 H      0.926     0.042     2.423     2.434
  1073   6 C      2.748     0.289    22.102     7.698
  1074   8 O      0.869    -0.494    23.644     6.520
  1075   7 N      2.697    -0.176    24.803     7.397
  1076   1 H      0.860     0.202     1.098     1.642
  1077   6 C      3.796     0.047    19.798     6.336
  1078   1 H      0.924     0.082     1.959     2.189
  1079   6 C      3.813    -0.116    22.700     6.781
  1080   1 H      0.925     0.076     2.024     2.225
  1081   1 H      0.924     0.104     1.752     2.070
  1082   6 C      2.742     0.292    22.054     7.689
  1083   8 O      0.860    -0.514    24.100     6.582
  1084   7 N      2.644    -0.277    27.152     7.739
  1085   1 H      0.860     0.256     0.861     1.453
  1086   1 H      0.860     0.243     0.912     1.496
  1087   6 C      2.748     0.280    22.257     7.725
  1088   8 O      0.859    -0.501    23.813     6.543
  1089   7 N      2.679    -0.207    25.505     7.501
  1090   1 H      0.860     0.240     0.925     1.506
  1091   6 C      3.775     0.021    20.249     6.412
  1092   1 H      0.925     0.067     2.113     2.273
  1093   6 C      3.795    -0.059    21.642     6.624
  1094   1 H      0.924     0.058     2.220     2.330
  1095   1 H      0.925     0.070     2.090     2.261
  1096   6 C      3.798    -0.107    22.542     6.760
  1097   1 H      0.925     0.089     1.887     2.148
  1098   1 H      0.924     0.079     1.991     2.207
  1099   6 C      2.739     0.270    22.438     7.756
  1100   8 O      0.857    -0.527    24.396     6.622
  1101   7 N      2.639    -0.279    27.219     7.749
  1102   1 H      0.860     0.252     0.877     1.467
  1103   1 H      0.860     0.243     0.909     1.494
  1104   6 C      2.744     0.279    22.270     7.727
  1105   8 O      0.878    -0.513    24.059     6.577
  1106   7 N      2.707    -0.170    24.669     7.377
  1107   1 H      0.860     0.200     1.108     1.649
  1108   6 C      3.792     0.048    19.781     6.334
  1109   1 H      0.924     0.080     1.975     2.198
  1110   6 C      3.811    -0.087    22.159     6.700
  1111   1 H      0.925     0.045     2.388     2.417
  1112   1 H      0.925     0.046     2.372     2.408
  1113   6 C      2.690     0.366    20.786     7.461
  1114   8 O      0.857    -0.594    25.979     6.834
  1115   8 O      0.856    -0.648    27.329     7.009
  1116   6 C      2.757     0.254    22.721     7.806
  1117   8 O      0.858    -0.506    23.909     6.556
  1118   7 N      2.691    -0.176    24.800     7.396
  1119   1 H      0.860     0.211     1.052     1.607
  1120   6 C      3.790     0.038    19.948     6.361
  1121   1 H      0.925     0.073     2.054     2.241
  1122   6 C      3.845    -0.019    20.886     6.501
  1123   1 H      0.924     0.036     2.501     2.473
  1124   6 C      3.751    -0.124    22.950     6.832
  1125   1 H      0.925     0.073     2.052     2.240
  1126   1 H      0.925     0.046     2.371     2.408
  1127   1 H      0.924     0.064     2.152     2.294
  1128   6 C      3.748    -0.122    22.904     6.826
  1129   1 H      0.925     0.056     2.248     2.345
  1130   1 H      0.924     0.067     2.124     2.279
  1131   1 H      0.925     0.035     2.517     2.481
  1132   6 C      2.737     0.257    22.665     7.795
  1133   8 O      0.858    -0.480    23.344     6.478
  1134   7 N      2.691    -0.210    25.563     7.509
  1135   1 H      0.860     0.214     1.036     1.594
  1136   6 C      3.787     0.045    19.832     6.343
  1137   1 H      0.925     0.058     2.217     2.329
  1138   6 C      3.815    -0.086    22.120     6.694
  1139   1 H      0.925     0.030     2.580     2.512
  1140   1 H      0.925     0.042     2.418     2.431
  1141   6 C      2.690     0.369    20.738     7.453
  1142   8 O      0.856    -0.623    26.695     6.927
  1143   8 O      0.859    -0.639    27.085     6.978
  1144   6 C      2.747     0.268    22.481     7.764
  1145   8 O      0.858    -0.457    22.849     6.409
  1146   7 N      2.689    -0.174    24.760     7.390
  1147   1 H      0.860     0.197     1.123     1.660
  1148   6 C      3.785     0.012    20.383     6.431
  1149   1 H      0.924     0.089     1.892     2.151
  1150   6 C      3.748    -0.137    23.210     6.871
  1151   1 H      0.925     0.075     2.029     2.228
  1152   1 H      0.925     0.077     2.013     2.219
  1153   1 H      0.925     0.059     2.212     2.326
  1154   6 C      2.747     0.263    22.569     7.779
  1155   8 O      0.858    -0.479    23.317     6.474
  1156   7 N      2.689    -0.175    24.793     7.395
  1157   1 H      0.860     0.208     1.068     1.619
  1158   6 C      3.784     0.020    20.260     6.412
  1159   1 H      0.925     0.088     1.901     2.156
  1160   6 C      3.759    -0.120    22.854     6.815
  1161   1 H      0.924     0.056     2.248     2.345
[...]
  2300  H   0.994        C 2298 0.971
  2301  C   3.949        C 2298 1.015    N 2304 0.966    H 2303 0.962    H 2302 0.961
  2302  H   0.995        C 2301 0.961
  2303  H   0.996        C 2301 0.962
  2304  N   3.445        C 2306 1.311    C 2301 0.966    H 2305 0.895    N 2310 0.103
  2305  H   0.942        N 2304 0.895
  2306  C   3.976        N 2310 1.331    N 2304 1.311    N 2307 1.307
  2307  N   3.399        C 2306 1.307    H 2309 0.923    H 2308 0.907    N 2310 0.102
  2308  H   0.954        N 2307 0.907
  2309  H   0.950        N 2307 0.923
  2310  N   3.393        C 2306 1.331    H 2311 0.930    H 2312 0.854    N 2304 0.103    N 2307 0.102
  2311  H   0.957        N 2310 0.930
  2312  H   0.927        N 2310 0.854
  2313  C   3.951        O 2314 1.629    N 2315 1.318    C 2293 0.920
  2314  O   1.975        C 2313 1.629    N 2315 0.203
  2315  N   3.488        C 2313 1.318    C 2317 0.981    H 2316 0.910    O 2314 0.203
  2316  H   0.954        N 2315 0.910
  2317  C   3.947        N 2315 0.981    C 2319 0.975    H 2318 0.944    C 2323 0.932
  2318  H   0.991        C 2317 0.944
  2319  C   3.980        H 2321 0.984    H 2320 0.981    H 2322 0.980    C 2317 0.975
  2320  H   0.996        C 2319 0.981
  2321  H   0.996        C 2319 0.984
  2322  H   0.994        C 2319 0.980
  2323  C   3.951        O 2324 1.638    N 2325 1.297    C 2317 0.932
  2324  O   1.987        C 2323 1.638    N 2325 0.196
  2325  N   3.471        C 2323 1.297    C 2327 0.991    H 2326 0.900    O 2324 0.196
  2326  H   0.949        N 2325 0.900
  2327  C   3.957        N 2325 0.991    C 2329 0.972    H 2328 0.941    C 2345 0.927
  2328  H   0.990        C 2327 0.941
  2329  C   3.978        C 2332 1.005    H 2330 0.976    C 2327 0.972    H 2331 0.964
  2330  H   0.996        C 2329 0.976
  2331  H   0.991        C 2329 0.964
  2332  C   3.986        C 2329 1.005    C 2335 1.004    H 2334 0.978    H 2333 0.972
  2333  H   0.994        C 2332 0.972
  2334  H   0.997        C 2332 0.978
  2335  C   3.980        C 2332 1.004    C 2338 1.000    H 2336 0.974    H 2337 0.969
  2336  H   0.995        C 2335 0.974
  2337  H   0.992        C 2335 0.969
  2338  C   3.903        C 2335 1.000    N 2341 0.966    H 2340 0.962    H 2339 0.959
  2339  H   0.985        C 2338 0.959
  2340  H   0.988        C 2338 0.962
  2341  N   3.664        C 2338 0.966    H 2342 0.896    H 2344 0.896    H 2343 0.889
  2342  H   0.913        N 2341 0.896
  2343  H   0.908        N 2341 0.889
  2344  H   0.911        N 2341 0.896
  2345  C   3.930        O 2346 1.580    N 2347 1.316    C 2327 0.927
  2346  O   1.979        C 2345 1.580    N 2347 0.189
  2347  N   3.481        C 2345 1.316    C 2349 0.967    H 2348 0.923    O 2346 0.189
  2348  H   0.958        N 2347 0.923
  2349  C   3.962        C 2351 0.977    N 2347 0.967    C 2369 0.953    H 2350 0.943
  2350  H   0.990        C 2349 0.943
  2351  C   3.984        C 2354 1.011    C 2349 0.977    H 2353 0.966    H 2352 0.966
  2352  H   0.995        C 2351 0.966
  2353  H   0.994        C 2351 0.966
  2354  C   3.977        C 2351 1.011    C 2357 0.978    H 2356 0.969    H 2355 0.969
  2355  H   0.989        C 2354 0.969
  2356  H   0.992        C 2354 0.969
  2357  C   3.945        N 2360 0.979    C 2354 0.978    H 2359 0.973    H 2358 0.967
  2358  H   0.992        C 2357 0.967
  2359  H   0.994        C 2357 0.973
  2360  N   3.491        C 2362 1.342    C 2357 0.979    H 2361 0.903    N 2366 0.109
  2361  H   0.946        N 2360 0.903
  2362  C   3.979        N 2360 1.342    N 2366 1.329    N 2363 1.277
  2363  N   3.357        C 2362 1.277    H 2364 0.918    H 2365 0.917
  2364  H   0.949        N 2363 0.918
  2365  H   0.944        N 2363 0.917
  2366  N   3.403        C 2362 1.329    H 2367 0.917    H 2368 0.874    N 2360 0.109
  2367  H   0.944        N 2366 0.917
  2368  H   0.943        N 2366 0.874
  2369  C   3.947        O 2370 1.587    N 2371 1.316    C 2349 0.953
  2370  O   1.960        C 2369 1.587    N 2371 0.196
  2371  N   3.474        C 2369 1.316    C 2373 0.967    H 2372 0.902    O 2370 0.196
  2372  H   0.948        N 2371 0.902
  2373  C   3.955        N 2371 0.967    C 2385 0.958    C 2375 0.952    H 2374 0.951
  2374  H   0.992        C 2373 0.951
  2375  C   3.984        C 2381 1.009    C 2377 1.007    H 2376 0.958    C 2373 0.952
  2376  H   0.996        C 2375 0.958
  2377  C   3.989        C 2375 1.007    H 2378 0.984    H 2379 0.982    H 2380 0.981
  2378  H   0.998        C 2377 0.984
  2379  H   0.997        C 2377 0.982
  2380  H   0.996        C 2377 0.981
  2381  C   3.991        C 2375 1.009    H 2384 0.985    H 2383 0.981    H 2382 0.980
  2382  H   0.996        C 2381 0.980
  2383  H   0.997        C 2381 0.981
  2384  H   0.999        C 2381 0.985
  2385  C   3.947        O 2386 1.652    N 2387 1.255    C 2373 0.958
  2386  O   1.983        C 2385 1.652    N 2387 0.194
  2387  N   3.426        C 2385 1.255    C 2389 0.975    H 2388 0.897    O 2386 0.194
  2388  H   0.950        N 2387 0.897
  2389  C   3.955        N 2387 0.975    C 2404 0.956    C 2391 0.953    H 2390 0.944
  2390  H   0.993        C 2389 0.944
  2391  C   3.980        C 2393 1.010    C 2397 0.986    H 2392 0.964    C 2389 0.953
  2392  H   0.996        C 2391 0.964
  2393  C   3.987        C 2391 1.010    H 2394 0.982    H 2396 0.980    H 2395 0.973
  2394  H   0.997        C 2393 0.982
  2395  H   0.995        C 2393 0.973
  2396  H   0.997        C 2393 0.980
  2397  C   3.992        C 2400 1.018    C 2391 0.986    H 2398 0.977    H 2399 0.974
  2398  H   0.998        C 2397 0.977
  2399  H   0.998        C 2397 0.974
  2400  C   3.991        C 2397 1.018    H 2402 0.985    H 2401 0.983    H 2403 0.976
  2401  H   0.996        C 2400 0.983
  2402  H   0.997        C 2400 0.985
  2403  H   0.997        C 2400 0.976
  2404  C   3.945        O 2405 1.591    N 2406 1.310    C 2389 0.956
  2405  O   1.930        C 2404 1.591    N 2406 0.187
  2406  N   3.452        C 2404 1.310    C 2408 0.980    H 2407 0.863    O 2405 0.187
  2407  H   0.944        N 2406 0.863
  2408  C   3.966        N 2406 0.980    C 2418 0.958    H 2409 0.949    C 2410 0.928
  2409  H   0.990        C 2408 0.949
  2410  C   3.965        C 2412 1.014    O 2416 1.011    H 2411 0.956    C 2408 0.928
  2411  H   0.999        C 2410 0.956
  2412  C   3.987        C 2410 1.014    H 2414 0.981    H 2415 0.977    H 2413 0.975
  2413  H   0.993        C 2412 0.975
  2414  H   0.999        C 2412 0.981
  2415  H   0.996        C 2412 0.977
  2416  O   1.946        C 2410 1.011    H 2417 0.826
  2417  H   0.881        O 2416 0.826
  2418  C   3.944        O 2419 1.586    N 2420 1.304    C 2408 0.958
  2419  O   1.956        C 2418 1.586    N 2420 0.188
  2420  N   3.467        C 2418 1.304    C 2422 0.978    H 2421 0.892    O 2419 0.188
  2421  H   0.951        N 2420 0.892
  2422  C   3.959        N 2420 0.978    H 2423 0.950    C 2424 0.944    C 2432 0.944
  2423  H   0.991        C 2422 0.950
  2424  C   3.955        O 2430 1.006    C 2426 0.994    H 2425 0.962    C 2422 0.944
  2425  H   0.999        C 2424 0.962
  2426  C   3.987        C 2424 0.994    H 2427 0.983    H 2428 0.982    H 2429 0.981
  2427  H   0.995        C 2426 0.983
  2428  H   0.998        C 2426 0.982
  2429  H   0.994        C 2426 0.981
  2430  O   1.958        C 2424 1.006    H 2431 0.852
  2431  H   0.895        O 2430 0.852
  2432  C   3.949        O 2433 1.672    N 2434 1.248    C 2422 0.944
  2433  O   2.002        C 2432 1.672    N 2434 0.197
  2434  N   3.431        C 2432 1.248    C 2436 0.984    H 2435 0.908    O 2433 0.197
  2435  H   0.956        N 2434 0.908
  2436  C   3.952        N 2434 0.984    C 2438 0.959    H 2437 0.946    C 2452 0.942
  2437  H   0.992        C 2436 0.946
  2438  C   3.980        C 2441 1.018    H 2440 0.964    C 2436 0.959    H 2439 0.955
  2439  H   0.994        C 2438 0.955
  2440  H   0.994        C 2438 0.964
  2441  C   3.984        C 2442 1.403    C 2450 1.403    C 2438 1.018    C 2446 0.116
  2442  C   3.989        C 2444 1.459    C 2441 1.403    H 2443 0.962    C 2448 0.103
  2443  H   0.998        C 2442 0.962
  2444  C   3.989        C 2442 1.459    C 2446 1.422    H 2445 0.968    C 2450 0.113
  2445  H   0.997        C 2444 0.968
  2446  C   3.984        C 2448 1.443    C 2444 1.422    H 2447 0.972    C 2441 0.116
  2447  H   0.998        C 2446 0.972
  2448  C   3.987        C 2446 1.443    C 2450 1.442    H 2449 0.969    C 2442 0.103
  2449  H   0.998        C 2448 0.969
  2450  C   3.986        C 2448 1.442    C 2441 1.403    H 2451 0.969    C 2444 0.113
  2451  H   0.998        C 2450 0.969
  2452  C   3.944        O 2453 1.589    N 2454 1.322    C 2436 0.942
  2453  O   1.965        C 2452 1.589    N 2454 0.187
  2454  N   3.482        C 2452 1.322    C 2456 0.984    H 2455 0.891    O 2453 0.187
  2455  H   0.943        N 2454 0.891
  2456  C   3.961        N 2454 0.984    C 2458 0.973    H 2457 0.944    C 2476 0.933
  2457  H   0.990        C 2456 0.944
  2458  C   3.979        C 2461 1.005    C 2456 0.973    H 2460 0.970    H 2459 0.967
  2459  H   0.994        C 2458 0.967
  2460  H   0.995        C 2458 0.970
  2461  C   3.986        C 2464 1.015    C 2458 1.005    H 2462 0.965    H 2463 0.965
  2462  H   0.992        C 2461 0.965
  2463  H   0.995        C 2461 0.965
  2464  C   3.955        C 2461 1.015    N 2467 0.969    H 2466 0.962    H 2465 0.950
  2465  H   0.994        C 2464 0.950
  2466  H   0.995        C 2464 0.962
  2467  N   3.431        C 2469 1.289    C 2464 0.969    H 2468 0.917    N 2473 0.104
  2468  H   0.948        N 2467 0.917
  2469  C   3.978        N 2473 1.359    N 2470 1.307    N 2467 1.289
  2470  N   3.388        C 2469 1.307    H 2471 0.918    H 2472 0.892    N 2473 0.109
  2471  H   0.943        N 2470 0.918
  2472  H   0.944        N 2470 0.892
  2473  N   3.417        C 2469 1.359    H 2475 0.907    H 2474 0.902    N 2470 0.109    N 2467 0.104
  2474  H   0.929        N 2473 0.902
  2475  H   0.933        N 2473 0.907
  2476  C   3.947        O 2477 1.624    N 2478 1.313    C 2456 0.933
  2477  O   1.935        C 2476 1.624    N 2478 0.194
  2478  N   3.474        C 2476 1.313    C 2480 0.987    H 2479 0.890    O 2477 0.194
  2479  H   0.949        N 2478 0.890
  2480  C   3.968        N 2478 0.987    C 2482 0.951    H 2481 0.951    C 2490 0.934
  2481  H   0.993        C 2480 0.951
  2482  C   3.960        C 2484 1.010    O 2488 0.987    H 2483 0.962    C 2480 0.951
  2483  H   0.998        C 2482 0.962
  2484  C   3.985        C 2482 1.010    H 2487 0.980    H 2485 0.976    H 2486 0.972
  2485  H   0.997        C 2484 0.976
  2486  H   0.995        C 2484 0.972
  2487  H   0.997        C 2484 0.980
  2488  O   1.926        C 2482 0.987    H 2489 0.831
  2489  H   0.885        O 2488 0.831
  2490  C   3.950        O 2491 1.652    N 2492 1.292    C 2480 0.934
  2491  O   1.961        C 2490 1.652    N 2492 0.201
  2492  N   3.451        C 2490 1.292    C 2494 0.974    H 2493 0.916    O 2491 0.201
  2493  H   0.955        N 2492 0.916
  2494  C   3.951        N 2492 0.974    C 2497 0.955    H 2495 0.952    H 2496 0.950
  2495  H   0.986        C 2494 0.952
  2496  H   0.987        C 2494 0.950
  2497  C   3.943        O 2498 1.661    N 2499 1.261    C 2494 0.955
  2498  O   1.974        C 2497 1.661    N 2499 0.193
  2499  N   3.446        C 2497 1.261    C 2501 0.998    H 2500 0.914    O 2498 0.193
  2500  H   0.951        N 2499 0.914
  2501  C   3.975        N 2499 0.998    C 2503 0.956    H 2502 0.946    C 2511 0.937
  2502  H   0.992        C 2501 0.946
  2503  C   3.948        O 2509 0.997    C 2505 0.977    H 2504 0.959    C 2501 0.956
  2504  H   0.998        C 2503 0.959
  2505  C   3.986        H 2506 0.987    H 2508 0.987    H 2507 0.985    C 2503 0.977
  2506  H   0.996        C 2505 0.987
  2507  H   0.995        C 2505 0.985
  2508  H   0.996        C 2505 0.987
  2509  O   1.961        C 2503 0.997    H 2510 0.874
  2510  H   0.896        O 2509 0.874
  2511  C   3.949        O 2512 1.645    N 2513 1.278    C 2501 0.937
  2512  O   1.961        C 2511 1.645    N 2513 0.186
  2513  N   3.448        C 2511 1.278    C 2515 0.986    H 2514 0.923    O 2512 0.186
  2514  H   0.958        N 2513 0.923
  2515  C   3.956        N 2513 0.986    C 2517 0.974    H 2516 0.935    C 2535 0.913
  2516  H   0.990        C 2515 0.935
  2517  C   3.982        C 2520 1.012    C 2515 0.974    H 2519 0.968    H 2518 0.959
  2518  H   0.995        C 2517 0.959
  2519  H   0.997        C 2517 0.968
  2520  C   3.972        C 2521 1.586    C 2534 1.192    C 2517 1.012
  2521  C   3.959        C 2520 1.586    N 2523 1.222    H 2522 0.964
  2522  H   0.996        C 2521 0.964
  2523  N   3.524        C 2521 1.222    C 2525 1.134    H 2524 0.933
  2524  H   0.960        N 2523 0.933
  2525  C   3.957        C 2526 1.341    C 2534 1.290    N 2523 1.134
  2526  C   3.986        C 2528 1.503    C 2525 1.341    H 2527 0.965    C 2532 0.108
  2527  H   0.997        C 2526 0.965
  2528  C   3.985        C 2526 1.503    C 2530 1.331    H 2529 0.973
  2529  H   0.998        C 2528 0.973
  2530  C   3.988        C 2532 1.552    C 2528 1.331    H 2531 0.967
  2531  H   0.998        C 2530 0.967
  2532  C   3.991        C 2530 1.552    C 2534 1.283    H 2533 0.968    C 2526 0.108
  2533  H   1.000        C 2532 0.968
  2534  C   3.982        C 2525 1.290    C 2532 1.283    C 2520 1.192
  2535  C   3.928        O 2536 1.622    N 2537 1.301    C 2515 0.913
  2536  O   1.964        C 2535 1.622    N 2537 0.187
  2537  N   3.460        C 2535 1.301    C 2539 0.974    H 2538 0.910    O 2536 0.187
  2538  H   0.952        N 2537 0.910
  2539  C   3.966        N 2537 0.974    C 2541 0.963    C 2547 0.957    H 2540 0.949
  2540  H   0.996        C 2539 0.949
  2541  C   3.985        H 2542 0.977    H 2543 0.963    C 2539 0.963    C 2544 0.945
  2542  H   0.997        C 2541 0.977
  2543  H   0.996        C 2541 0.963
  2544  C   3.937        O 2545 1.522    O 2546 1.451    C 2541 0.945
  2545  O   1.810        C 2544 1.522    O 2546 0.221
  2546  O   1.739        C 2544 1.451    O 2545 0.221
  2547  C   3.941        O 2548 1.619    N 2549 1.272    C 2539 0.957
  2548  O   1.921        C 2547 1.619    N 2549 0.185
  2549  N   3.449        C 2547 1.272    C 2551 0.979    H 2550 0.916    O 2548 0.185
  2550  H   0.958        N 2549 0.916
  2551  C   3.952        C 2553 0.985    N 2549 0.979    C 2557 0.948    H 2552 0.935
  2552  H   0.994        C 2551 0.935
  2553  C   3.973        C 2551 0.985    H 2555 0.978    H 2556 0.978    H 2554 0.970
  2554  H   0.994        C 2553 0.970
  2555  H   0.992        C 2553 0.978
  2556  H   0.991        C 2553 0.978
  2557  C   3.950        O 2558 1.629    N 2559 1.293    C 2551 0.948
  2558  O   1.938        C 2557 1.629    N 2559 0.195
  2559  N   3.432        C 2557 1.293    C 2561 0.943    H 2560 0.905    O 2558 0.195
  2560  H   0.958        N 2559 0.905
  2561  C   3.952        C 2563 0.993    H 2562 0.946    N 2559 0.943    C 2578 0.939
  2562  H   0.993        C 2561 0.946
  2563  C   3.985        C 2566 0.998    C 2561 0.993    H 2565 0.961    H 2564 0.950
  2564  H   0.993        C 2563 0.950
  2565  H   0.996        C 2563 0.961
  2566  C   3.980        C 2576 1.423    C 2567 1.383    C 2563 0.998
  2567  C   3.988        C 2569 1.477    C 2566 1.383    H 2568 0.968    C 2574 0.103
  2568  H   0.999        C 2567 0.968
  2569  C   3.983        C 2567 1.477    C 2571 1.341    H 2570 0.957    C 2576 0.108
  2570  H   0.993        C 2569 0.957
  2571  C   3.940        C 2574 1.383    C 2569 1.341    O 2572 1.086
  2572  O   2.110        C 2571 1.086    H 2573 0.840
  2573  H   0.892        O 2572 0.840
  2574  C   3.984        C 2576 1.428    C 2571 1.383    H 2575 0.959    C 2567 0.103
  2575  H   0.998        C 2574 0.959
  2576  C   3.987        C 2574 1.428    C 2566 1.423    H 2577 0.967    C 2569 0.108
  2577  H   0.998        C 2576 0.967
  2578  C   3.945        O 2579 1.595    N 2580 1.315    C 2561 0.939
  2579  O   1.912        C 2578 1.595    N 2580 0.200
  2580  N   3.491        C 2578 1.315    C 2582 0.982    H 2581 0.925    O 2579 0.200
  2581  H   0.963        N 2580 0.925
  2582  C   3.946        N 2580 0.982    C 2584 0.966    H 2583 0.963    C 2600 0.888
  2583  H   0.997        C 2582 0.963
  2584  C   3.982        C 2587 1.010    H 2585 0.972    H 2586 0.967    C 2582 0.966
  2585  H   1.000        C 2584 0.972
  2586  H   0.997        C 2584 0.967
  2587  C   3.990        C 2584 1.010    C 2590 1.005    H 2588 0.972    H 2589 0.970
  2588  H   0.999        C 2587 0.972
  2589  H   0.995        C 2587 0.970
  2590  C   3.985        C 2593 1.014    C 2587 1.005    H 2592 0.970    H 2591 0.963
  2591  H   0.992        C 2590 0.963
  2592  H   0.996        C 2590 0.970
  2593  C   3.901        C 2590 1.014    H 2594 0.958    H 2595 0.957    N 2596 0.951
  2594  H   0.984        C 2593 0.958
  2595  H   0.981        C 2593 0.957
  2596  N   3.654        C 2593 0.951    H 2599 0.898    H 2598 0.895    H 2597 0.888
  2597  H   0.909        N 2596 0.888
  2598  H   0.916        N 2596 0.895
  2599  H   0.924        N 2596 0.898
  2600  C   3.932        O 2602 1.539    O 2601 1.465    C 2582 0.888
  2601  O   1.772        C 2600 1.465    O 2602 0.222
  2602  O   1.836        C 2600 1.539    O 2601 0.222
  2603  O   2.125        C 2605 1.117    H 2604 0.791
  2604  H   0.879        O 2603 0.791
  2605  C   3.945        C 2614 1.365    C 2606 1.320    O 2603 1.117
  2606  C   3.983        C 2608 1.478    C 2605 1.320    H 2607 0.959    C 2612 0.110
  2607  H   0.998        C 2606 0.959
  2608  C   3.990        C 2606 1.478    C 2610 1.404    H 2609 0.967    C 2614 0.102
  2609  H   0.999        C 2608 0.967
  2610  C   3.989        C 2612 1.468    C 2608 1.404    H 2611 0.968
  2611  H   0.999        C 2610 0.968
  2612  C   3.989        C 2610 1.468    C 2614 1.381    H 2613 0.969    C 2606 0.110
  2613  H   0.999        C 2612 0.969
  2614  C   3.984        C 2612 1.381    C 2605 1.365    C 2615 1.029    C 2608 0.102
  2615  C   3.986        C 2614 1.029    H 2618 0.975    H 2617 0.970    H 2616 0.968
  2616  H   0.998        C 2615 0.968
  2617  H   0.998        C 2615 0.970
  2618  H   0.999        C 2615 0.975

molecular dipole:
                 x           y           z       tot (Debye)
 q only:      577.120     682.110     691.517
   full:      578.951     681.141     698.693    2883.856
molecular quadrupole (traceless):
                xx          xy          yy          xz          yz          zz
 q only:   -17058.119   67717.537    6939.387   70223.703   82437.899   10118.732
  q+dip:   -17357.014   67337.473    5952.709   70979.712   82970.998   11404.305
   full:   -17344.900   67329.873    5935.747   70982.681   82966.462   11409.153


           -------------------------------------------------
          | TOTAL ENERGY            -4108.476648131138 Eh   |
          | GRADIENT NORM               1.321838571796 Eh/α |
          | HOMO-LUMO GAP               1.673081887508 eV   |
           -------------------------------------------------
########################################################################
[WARNING] Runtime exception occurred
-2- restart_readRestart: Dimension missmatch in restart file.
-1- restart_readRestart: Number of electron missmatch in restart file.
########################################################################

------------------------------------------------------------------------
 * finished run on 2020/06/11 at 10:44:48.223     
------------------------------------------------------------------------
 total:
 * wall-time:     0 d,  0 h,  6 min, 55.538 sec
 *  cpu-time:     0 d,  5 h,  5 min, 27.561 sec
 * ratio c/w:    44.106 speedup
 SCF:
 * wall-time:     0 d,  0 h,  6 min, 27.592 sec
 *  cpu-time:     0 d,  4 h, 56 min, 57.469 sec
 * ratio c/w:    45.970 speedup

