      -----------------------------------------------------------      
     |                   =====================                   |     
     |                           x T B                           |     
     |                   =====================                   |     
     |                         S. Grimme                         |     
     |          Mulliken Center for Theoretical Chemistry        |     
     |                    University of Bonn                     |     
      -----------------------------------------------------------      

   * xtb version 6.2.3 (d7bf61a) compiled by 'conda@06d140edd85e' on 2020-05-12

   xtb is free software: you can redistribute it and/or modify it under
   the terms of the GNU Lesser General Public License as published by
   the Free Software Foundation, either version 3 of the License, or
   (at your option) any later version.
   
   xtb is distributed in the hope that it will be useful,
   but WITHOUT ANY WARRANTY; without even the implied warranty of
   MERCHANTABILITY or FITNESS FOR A PARTICULAR PURPOSE.  See the
   GNU Lesser General Public License for more details.
   
   Cite this work as:
   * S. Grimme, C. Bannwarth, P. Shushkov, J. Chem. Theory Comput., 2017,
     13, 1989-2009. DOI: 10.1021/acs.jctc.7b00118
   * C. Bannwarth, S. Ehlert and S. Grimme., J. Chem. Theory Comput., 2019,
     15, 1652-1671. DOI: 10.1021/acs.jctc.8b01176
   * P. Pracht, E. Caldeweyher, S. Ehlert, S. Grimme, ChemRxiv, 2019, preprint.
     DOI: 10.26434/chemrxiv.8326202.v1
   
   for DFT-D4:
   * E. Caldeweyher, C. Bannwarth and S. Grimme, J. Chem. Phys., 2017,
     147, 034112. DOI: 10.1063/1.4993215
   * E. Caldeweyher, S. Ehlert, A. Hansen, H. Neugebauer, S. Spicher,
     C. Bannwarth and S. Grimme, J. Chem. Phys., 2019, 150, 154122.
     DOI: 10.1063/1.5090222
   
   for sTDA-xTB:
   * S. Grimme and C. Bannwarth, J. Chem. Phys., 2016, 145, 054103.
     DOI: 10.1063/1.4959605
   
   in the mass-spec context:
   * V. Asgeirsson, C. Bauer and S. Grimme, Chem. Sci., 2017, 8, 4879.
     DOI: 10.1039/c7sc00601b
   
   for metadynamics refer to:
   * S. Grimme, J. Chem. Theory Comput., 2019, 155, 2847-2862
     DOI: 10.1021/acs.jctc.9b00143
   
   with help from (in alphabetical order)
   C. Bannwarth, F. Bohle, G. Brandenburg, E. Caldeweyher, M. Checinski,
   S. Dohm, S. Ehlert, S. Ehrlich, F. März, H. Neugebauer, J. Pisarek,
   P. Pracht, P. Shushkov, and S. Spicher.
   
 * started run on 2020/05/28 at 18:50:39.064     

           -------------------------------------------------
          |                Calculation Setup                |
           -------------------------------------------------

          program call               : xtb complex_25561.xyz --chrg +9 --uhf 0 --gbsa water
          hostname                   : gold61.cluster.local
          coordinate file            : complex_25561.xyz
          omp threads                :                    64
          number of atoms            :                  2618
          number of electrons        :                  7234
          charge                     :                     9
          spin                       :                   0.0
          first test random number   :      0.84384709210687


molecular fragmentation (1/2 indicates fragments):
111111111111111111111111111111111111111111111111111111111111111111111111
111111111111111111111111111111111111111111111111111111111111111111111111
111111111111111111111111111111111111111111111111111111111111111111111111
111111111111111111111111111111111111111111111111111111111111111111111111
111111111111111111111111111111111111111111111111111111111111111111111111
111111111111111111111111111111111111111111111111111111111111111111111111
111111111111111111111111111111111111111111111111111111111111111111111111
111111111111111111111111111111111111111111111111111111111111111111111111
111111111111111111111111111111111111111111111111111111111111111111111111
111111111111111111111111111111111111111111111111111111111111111111111111
111111111111111111111111111111111111111111111111111111111111111111111111
111111111111111111111111111111111111111111111111111111111111111111111111
111111111111111111111111111111111111111111111111111111111111111111111111
111111111111111111111111111111111111111111111111111111111111111111111111
111111111111111111111111111111111111111111111111111111111111111111111111
111111111111111111111111111111111111111111111111111111111111111111111111
111111111111111111111111111111111111111111111111111111111111111111111111
111111111111111111111111111111111111111111111111111111111111111111111111
111111111111111111111111111111111111111111111111111111111111111111111111
111111111111111111111111111111111111111111111111111111111111111111111111
111111111111111111111111111111111111111111111111111111111111111111111111
111111111111111111111111111111111111111111111111111111111111111111111111
111111111111111111111111111111111111111111111111111111111111111111111111
111111111111111111111111111111111111111111111111111111111111111111111111
111111111111111111111111111111111111111111111111111111111111111111111111
111111111111111111111111111111111111111111111111111111111111111111111111
111111111111111111111111111111111111111111111111111111111111111111111111
111111111111111111111111111111111111111111111111111111111111111111111111
111111111111111111111111111111111111111111111111111111111111111111111111
111111111111111111111111111111111111111111111111111111111111111111111111
111111111111111111111111111111111111111111111111111111111111111111111111
111111111111111111111111111111111111111111111111111111111111111111111111
111111111111111111111111111111111111111111111111111111111111111111111111
111111111111111111111111111111111111111111111111111111111111111111111111
111111111111111111111111111111111111111111111111111111111111111111111111
111111111111111111111111111111111111111111111111111111111111111111111111
11111111112222222222222222
# atoms in fragment 1/2:  2602    16
 fragment masses (1/2) :    18371.93      108.14
CMA distance (Bohr)    :  19.929
constraining FC (au)   :  0.0500
########################################################################
[WARNING] Please study the warnings concerning your input carefully
-2- prog_main: XTBPATH is not set, using XTBHOME instead
-1- prog_main: XTBHOME is not set, using HOME instead
########################################################################
           ------------------------------------------------- 
          |                 G F N 2 - x T B                 |
          | Geometry, Frequencies, Noncovalent interactions |
          |            JCTC 2019 parametrisation            |
           ------------------------------------------------- 
             k(s)              :                1.8500
             k(p)              :                2.2300
             k(d)              :                2.2300
             k(f)              :                2.0000
             kEN (H0ij)        :               -2.0000
             D4 a1             :                0.5200
             D4 a2             :                5.0000
             D4 s6             :                1.0000
             D4 s8             :                2.7000
             D4 s9             :                5.0000
             alphaj            :                2.0000

  Z AO/shell   Hii/eV     exponent
  1     Wed Apr 25 08:07:45 CEST 2018   EN: 2.200 GM2: 0.406  GM3: 0.0800  RAES: 1.40
     1s    -10.707211    1.230000
  6     Wed Apr 25 08:07:45 CEST 2018   EN: 2.550 GM2: 0.538  GM3: 0.1500  RAES: 3.00
     2s    -13.970922    2.096432
     2p    -10.063292    1.800000
  7     Wed Apr 25 08:07:45 CEST 2018   EN: 3.040 GM2: 0.461  GM3:-0.0640  RAES: 1.90
     2s    -16.686243    2.339881
     2p    -12.523956    2.014332
  8     Wed Apr 25 08:07:45 CEST 2018   EN: 3.440 GM2: 0.452  GM3:-0.0517  RAES: 1.80
     2s    -20.229985    2.439742
     2p    -15.503117    2.137023
 16     Tue Apr 24 11:44:34 CEST 2018   EN: 2.580 GM2: 0.340  GM3:-0.0502  RAES: 3.10
     3s    -20.029654    1.981333
     3p    -11.377694    2.025643
     3d     -0.420282    1.702555

 Solvent             : water
 Using internal parameter file: .param_gbsa2_water
 Gsolv ref. state (COSMO-RS): gsolv [1 M gas/solution]
 temperature (mdtemp)       :    298.14999999999998     
 dielectric constant        :    80.200000000000003     
 rho                        :    1.0000000000000000     
 mass                       :    18.000000000000000     
 surface tension            :    15.568945408385856     
 probe radius               :   0.97531378999999996     
 Gshift (Eh)                :    1.8574431267947933E-003
 c1                         :    1.5524381700000001     
 soset                      :   0.13032636000000000     
 HB correction              :  T
           ------------------------------------------------- 
          |        Self-Consistent Charge Iterations        |
           ------------------------------------------------- 

          ...................................................
          :                      SETUP                      :
          :.................................................:
          :  # basis functions                6551          :
          :  # atomic orbitals                6545          :
          :  # shells                         3923          :
          :  # electrons                      7234          :
          :  max. iterations                   250          :
          :  Hamiltonian                  GFN2-xTB          :
          :  restarted?                      false          :
          :  GBSA solvation                   true          :
          :  PC potential                    false          :
          :  electronic temp.          300.0000000     K    :
          :  accuracy                    1.0000000          :
          :  -> integral cutoff          0.2500000E+02      :
          :  -> integral neglect         0.1000000E-07      :
          :  -> SCF convergence          0.1000000E-05 Eh   :
          :  -> wf. convergence          0.1000000E-03 e    :
          :  Broyden damping             0.4000000          :
          ...................................................

 iter      E             dE          RMSdq      gap      omega  full diag
   1  -4144.2584817 -0.414426E+04  0.428E+00    1.81       0.0  T
   2  -4156.4963499 -0.122379E+02  0.226E+00    2.35       1.0  T
   3  -4156.9754249 -0.479075E+00  0.119E+00    2.01       1.0  T
   4  -4157.0530639 -0.776390E-01  0.286E-01    1.84       1.0  T
   5  -4157.1521457 -0.990818E-01  0.141E-01    1.65       1.0  T
   6  -4157.1656237 -0.134780E-01  0.742E-02    1.71       1.0  T
   7  -4157.1680611 -0.243744E-02  0.388E-02    1.64       1.0  T
   8  -4157.1692256 -0.116447E-02  0.176E-02    1.59       1.0  T
   9  -4157.1694010 -0.175381E-03  0.107E-02    1.56       1.0  T
  10  -4157.1694935 -0.925395E-04  0.565E-03    1.53       1.0  T
  11  -4157.1695213 -0.277834E-04  0.274E-03    1.52       1.0  T
  12  -4157.1695278 -0.651985E-05  0.150E-03    1.51       1.3  T
  13  -4157.1695298 -0.199139E-05  0.825E-04    1.51       2.4  T
  14  -4157.1695304 -0.605591E-06  0.432E-04    1.51       4.5  T
  15  -4157.1695306 -0.181956E-06  0.230E-04    1.51       8.5  T

   *** convergence criteria satisfied after 15 iterations ***

         #    Occupation            Energy/Eh            Energy/eV
      -------------------------------------------------------------
         1        2.0000           -0.7632107             -20.7680
       ...           ...                  ...                  ...
      3611        2.0000           -0.3585403              -9.7564
      3612        2.0000           -0.3582824              -9.7494
      3613        2.0000           -0.3582707              -9.7490
      3614        2.0000           -0.3582289              -9.7479
      3615        2.0000           -0.3544911              -9.6462
      3616        2.0000           -0.3543618              -9.6427
      3617        2.0000           -0.3485606              -9.4848 (HOMO)
      3618                         -0.2932322              -7.9793 (LUMO)
      3619                         -0.2815587              -7.6616
      3620                         -0.2754956              -7.4966
      3621                         -0.2743483              -7.4654
      3622                         -0.2730080              -7.4289
       ...                                ...                  ...
      6545                          0.8222911              22.3757
      -------------------------------------------------------------
                  HL-Gap            0.0553285 Eh            1.5056 eV
             Fermi-level           -0.3208964 Eh           -8.7320 eV

 SCC (total)                   0 d,  0 h,  6 min, 44.066 sec
 SCC setup                      ...        0 min,  3.188 sec (  0.789%)
 Dispersion                     ...        0 min,  2.036 sec (  0.504%)
 integral evaluation            ...        0 min, 11.977 sec (  2.964%)
 zeroth order Hamiltonian       ...        0 min,  0.348 sec (  0.086%)
 iterations                     ...        6 min,  8.227 sec ( 91.131%)
 molecular gradient             ...        0 min, 17.440 sec (  4.316%)
 printout                       ...        0 min,  0.849 sec (  0.210%)

         :::::::::::::::::::::::::::::::::::::::::::::::::::::
         ::                     SUMMARY                     ::
         :::::::::::::::::::::::::::::::::::::::::::::::::::::
         :: total energy           -4108.348755269620 Eh    ::
         :: total w/o Gsasa/hb     -4107.946498529427 Eh    ::
         :: gradient norm              1.374145393367 Eh/a0 ::
         :: HOMO-LUMO gap              1.505564520894 eV    ::
         ::.................................................::
         :: SCC energy             -4157.233209290134 Eh    ::
         :: -> isotropic ES           14.316533886930 Eh    ::
         :: -> anisotropic ES         -0.751267851563 Eh    ::
         :: -> anisotropic XC          1.163194672133 Eh    ::
         :: -> dispersion             -3.923227157203 Eh    ::
         :: -> Gsolv                  -4.199612968691 Eh    ::
         ::    -> Gborn               -3.797356228499 Eh    ::
         ::    -> Gsasa               -0.065536141426 Eh    ::
         ::    -> Ghb                 -0.338578041893 Eh    ::
         ::    -> Gshift               0.001857443127 Eh    ::
         :: repulsion energy          48.334491587442 Eh    ::
         :: add. restraining           0.000000000000 Eh    ::
         :::::::::::::::::::::::::::::::::::::::::::::::::::::

           -------------------------------------------------
          |                Property Printout                |
           -------------------------------------------------

    * Orbital Energies and Occupations

         #    Occupation            Energy/Eh            Energy/eV
      -------------------------------------------------------------
         1        2.0000           -0.7632107             -20.7680
       ...           ...                  ...                  ...
      3605        2.0000           -0.3633000              -9.8859
      3606        2.0000           -0.3624182              -9.8619
      3607        2.0000           -0.3623252              -9.8594
      3608        2.0000           -0.3614357              -9.8352
      3609        2.0000           -0.3610765              -9.8254
      3610        2.0000           -0.3592672              -9.7762
      3611        2.0000           -0.3585403              -9.7564
      3612        2.0000           -0.3582824              -9.7494
      3613        2.0000           -0.3582707              -9.7490
      3614        2.0000           -0.3582289              -9.7479
      3615        2.0000           -0.3544911              -9.6462
      3616        2.0000           -0.3543618              -9.6427
      3617        2.0000           -0.3485606              -9.4848 (HOMO)
      3618                         -0.2932322              -7.9793 (LUMO)
      3619                         -0.2815587              -7.6616
      3620                         -0.2754956              -7.4966
      3621                         -0.2743483              -7.4654
      3622                         -0.2730080              -7.4289
      3623                         -0.2705345              -7.3616
      3624                         -0.2652733              -7.2185
      3625                         -0.2646180              -7.2006
      3626                         -0.2629382              -7.1549
      3627                         -0.2616165              -7.1189
      3628                         -0.2613068              -7.1105
       ...                                ...                  ...
      6545                          0.8222911              22.3757
      -------------------------------------------------------------
                  HL-Gap            0.0553285 Eh            1.5056 eV
             Fermi-level           -0.3208964 Eh           -8.7320 eV

     #   Z        covCN         q      C6AA      α(0)
     1   7 N      3.496    -0.138    23.972     7.272
     2   1 H      0.860     0.309     0.688     1.299
     3   1 H      0.860     0.299     0.716     1.326
     4   1 H      0.860     0.310     0.684     1.295
     5   6 C      3.795    -0.044    21.365     6.582
     6   1 H      0.925     0.127     1.560     1.953
     7   6 C      3.847    -0.103    22.422     6.735
     8   1 H      0.924     0.112     1.679     2.027
     9   1 H      0.925     0.109     1.708     2.044
    10   6 C      3.807    -0.022    20.954     6.516
    11   1 H      0.925     0.078     2.002     2.213
    12   1 H      0.925     0.065     2.141     2.288
    13  16 S      1.985    -0.205   149.783    20.599
    14   6 C      3.745    -0.048    21.505     6.615
    15   1 H      0.925     0.046     2.370     2.407
    16   1 H      0.925     0.020     2.738     2.588
    17   1 H      0.925     0.040     2.443     2.444
    18   6 C      2.763     0.271    22.414     7.753
    19   8 O      0.863    -0.413    21.947     6.281
    20   7 N      2.692    -0.176    24.809     7.398
    21   1 H      0.860     0.231     0.961     1.535
    22   6 C      3.808     0.022    20.204     6.399
    23   1 H      0.924     0.093     1.854     2.129
    24   6 C      3.814    -0.121    22.808     6.797
    25   1 H      0.924     0.075     2.030     2.228
    26   1 H      0.925     0.106     1.730     2.057
    27   6 C      2.739     0.282    22.217     7.717
    28   8 O      0.863    -0.477    23.275     6.468
    29   7 N      2.639    -0.284    27.334     7.765
    30   1 H      0.860     0.238     0.930     1.510
    31   1 H      0.860     0.230     0.966     1.540
    32   6 C      2.759     0.271    22.429     7.755
    33   8 O      0.860    -0.518    24.183     6.593
    34   7 N      2.689    -0.157    24.399     7.336
    35   1 H      0.860     0.235     0.943     1.522
    36   6 C      3.789     0.002    20.558     6.458
    37   1 H      0.924     0.090     1.882     2.146
    38   6 C      3.857    -0.036    21.183     6.546
    39   1 H      0.925     0.082     1.960     2.189
    40   6 C      3.770    -0.138    23.188     6.862
    41   1 H      0.925     0.035     2.516     2.480
    42   1 H      0.924     0.065     2.146     2.291
    43   1 H      0.925     0.070     2.083     2.257
    44   6 C      3.821    -0.069    21.806     6.645
    45   1 H      0.925     0.040     2.447     2.446
    46   1 H      0.925     0.060     2.198     2.319
    47   6 C      3.755    -0.122    22.894     6.823
    48   1 H      0.925     0.036     2.502     2.474
    49   1 H      0.925     0.041     2.432     2.439
    50   1 H      0.925     0.061     2.189     2.314
    51   6 C      2.740     0.277    22.315     7.734
    52   8 O      0.857    -0.475    23.234     6.463
    53   7 N      2.681    -0.208    25.530     7.504
    54   1 H      0.860     0.224     0.992     1.560
    55   6 C      3.784     0.029    20.111     6.388
    56   1 H      0.924     0.076     2.019     2.222
    57   6 C      3.817    -0.068    21.798     6.645
    58   1 H      0.924     0.050     2.323     2.384
    59   1 H      0.925     0.058     2.227     2.334
    60   6 C      2.965     0.009    27.825     8.652
    61   6 C      2.909    -0.050    29.233     8.866
    62   1 H      0.926     0.080     1.980     2.201
    63   6 C      2.926    -0.037    28.918     8.819
    64   1 H      0.926     0.070     2.084     2.257
    65   6 C      2.907    -0.034    28.839     8.806
    66   1 H      0.926     0.040     2.450     2.448
    67   6 C      2.920    -0.033    28.834     8.806
    68   1 H      0.926     0.010     2.895     2.661
    69   6 C      2.913    -0.045    29.120     8.849
    70   1 H      0.926     0.026     2.639     2.540
    71   6 C      2.752     0.266    22.516     7.770
    72   8 O      0.860    -0.503    23.846     6.547
    73   7 N      2.706    -0.189    25.091     7.439
    74   1 H      0.860     0.218     1.020     1.582
    75   6 C      3.817     0.037    19.946     6.356
    76   1 H      0.925     0.070     2.084     2.258
    77   6 C      3.817    -0.072    21.868     6.655
    78   1 H      0.924     0.055     2.255     2.348
    79   1 H      0.925     0.065     2.140     2.288
    80   6 C      3.801    -0.094    22.284     6.721
    81   1 H      0.924     0.046     2.366     2.406
    82   1 H      0.925     0.027     2.630     2.536
    83   6 C      2.690     0.376    20.628     7.433
    84   8 O      0.858    -0.645    27.259     7.000
    85   8 O      0.857    -0.610    26.365     6.884
    86   6 C      2.761     0.280    22.262     7.727
    87   8 O      0.862    -0.481    23.372     6.482
    88   7 N      2.718    -0.191    25.143     7.447
    89   1 H      0.860     0.225     0.989     1.558
    90   6 C      3.793     0.033    20.034     6.374
    91   1 H      0.925     0.075     2.029     2.227
    92   6 C      3.835    -0.081    22.018     6.676
    93   1 H      0.925     0.057     2.240     2.340
    94   1 H      0.925     0.093     1.852     2.128
    95   6 C      3.791    -0.021    20.964     6.521
    96   1 H      0.924     0.043     2.409     2.427
    97   1 H      0.924     0.016     2.798     2.616
    98  16 S      1.957    -0.144   147.118    20.414
    99   6 C      3.744    -0.066    21.843     6.667
   100   1 H      0.925     0.075     2.032     2.229
   101   1 H      0.925     0.063     2.166     2.301
   102   1 H      0.925     0.041     2.433     2.439
   103   6 C      2.745     0.258    22.649     7.793
   104   8 O      0.859    -0.488    23.519     6.502
   105   7 N      2.695    -0.194    25.204     7.456
   106   1 H      0.860     0.221     1.006     1.571
   107   6 C      3.795     0.029    20.094     6.383
   108   1 H      0.925     0.076     2.025     2.225
   109   6 C      3.810    -0.084    22.088     6.690
   110   1 H      0.924     0.042     2.416     2.431
   111   1 H      0.925     0.061     2.192     2.315
   112   6 C      3.842    -0.021    20.915     6.506
   113   1 H      0.925     0.060     2.200     2.319
   114   6 C      3.757    -0.120    22.853     6.816
   115   1 H      0.925     0.059     2.207     2.323
   116   1 H      0.924     0.033     2.549     2.497
   117   1 H      0.925     0.048     2.341     2.393
   118   6 C      3.751    -0.118    22.822     6.813
   119   1 H      0.925     0.045     2.384     2.414
   120   1 H      0.924     0.033     2.543     2.494
   121   1 H      0.924     0.051     2.302     2.373
   122   6 C      2.751     0.278    22.304     7.733
   123   8 O      0.859    -0.517    24.161     6.590
   124   7 N      2.679    -0.181    24.923     7.414
   125   1 H      0.860     0.194     1.137     1.670
   126   6 C      3.781     0.025    20.173     6.398
   127   1 H      0.925     0.080     1.976     2.198
   128   6 C      3.801    -0.065    21.742     6.639
   129   1 H      0.925     0.053     2.287     2.365
   130   1 H      0.925     0.059     2.210     2.325
   131   6 C      3.807    -0.086    22.135     6.698
   132   1 H      0.925     0.064     2.148     2.292
   133   1 H      0.925     0.078     2.003     2.213
   134   6 C      3.737    -0.013    20.886     6.522
   135   1 H      0.924     0.089     1.887     2.148
   136   1 H      0.925     0.082     1.959     2.189
   137   7 N      2.719    -0.188    25.067     7.436
   138   1 H      0.860     0.223     0.998     1.565
   139   6 C      2.736     0.262    22.580     7.780
   140   7 N      2.755    -0.301    27.751     7.824
   141   1 H      0.861     0.270     0.810     1.410
   142   1 H      0.860     0.220     1.011     1.575
   143   7 N      2.733    -0.316    28.134     7.878
   144   1 H      0.860     0.252     0.874     1.465
   145   1 H      0.860     0.224     0.990     1.558
   146   6 C      2.744     0.272    22.401     7.750
   147   8 O      0.858    -0.479    23.335     6.477
   148   7 N      2.679    -0.180    24.891     7.410
   149   1 H      0.860     0.210     1.056     1.610
   150   6 C      3.792     0.021    20.238     6.406
   151   1 H      0.925     0.098     1.802     2.099
   152   6 C      3.853    -0.019    20.885     6.500
   153   1 H      0.925     0.060     2.198     2.318
   154   6 C      3.759    -0.122    22.888     6.820
   155   1 H      0.925     0.051     2.309     2.377
   156   1 H      0.925     0.051     2.308     2.376
   157   1 H      0.925     0.054     2.274     2.358
   158   6 C      3.798    -0.051    21.499     6.602
   159   1 H      0.924     0.028     2.614     2.528
   160   1 H      0.924     0.046     2.373     2.409
   161   6 C      3.752    -0.091    22.299     6.734
   162   1 H      0.925     0.031     2.576     2.510
   163   1 H      0.925     0.038     2.476     2.460
   164   1 H      0.925     0.029     2.597     2.520
   165   6 C      2.755     0.275    22.343     7.740
   166   8 O      0.865    -0.485    23.451     6.493
   167   7 N      2.694    -0.231    26.049     7.580
   168   1 H      0.860     0.200     1.106     1.648
   169   6 C      3.797     0.035    19.998     6.368
   170   1 H      0.925     0.087     1.909     2.161
   171   6 C      3.817    -0.092    22.234     6.711
   172   1 H      0.925     0.020     2.735     2.586
   173   1 H      0.925     0.053     2.288     2.366
   174   6 C      2.689     0.362    20.851     7.473
   175   8 O      0.857    -0.613    26.435     6.893
   176   8 O      0.857    -0.557    25.078     6.714
   177   6 C      2.756     0.272    22.412     7.752
   178   8 O      0.860    -0.496    23.685     6.525
   179   7 N      2.700    -0.169    24.665     7.376
   180   1 H      0.860     0.206     1.078     1.627
   181   6 C      3.786     0.020    20.260     6.411
   182   1 H      0.924     0.089     1.889     2.149
   183   6 C      3.808    -0.049    21.450     6.593
   184   1 H      0.925     0.034     2.529     2.487
   185   1 H      0.925     0.029     2.601     2.522
   186   6 C      3.790    -0.094    22.303     6.726
   187   1 H      0.925     0.021     2.711     2.575
   188   1 H      0.924     0.005     2.971     2.695
   189   6 C      2.683     0.361    20.879     7.478
   190   8 O      0.856    -0.623    26.700     6.928
   191   8 O      0.856    -0.638    27.061     6.975
   192   6 C      2.735     0.266    22.515     7.769
   193   8 O      0.860    -0.462    22.954     6.424
   194   7 N      2.679    -0.150    24.244     7.313
   195   1 H      0.860     0.192     1.150     1.680
   196   6 C      3.736    -0.041    21.386     6.599
   197   1 H      0.924     0.108     1.717     2.049
   198   1 H      0.924     0.117     1.637     2.001
   199   6 C      2.752     0.268    22.471     7.762
   200   8 O      0.857    -0.503    23.842     6.547
   201   7 N      2.688    -0.173    24.742     7.388
   202   1 H      0.860     0.223     0.996     1.563
   203   6 C      3.803     0.006    20.477     6.442
   204   1 H      0.925     0.074     2.041     2.234
   205   6 C      3.807    -0.084    22.101     6.692
   206   1 H      0.925     0.067     2.119     2.276
   207   1 H      0.924     0.052     2.298     2.371
   208   6 C      3.852    -0.009    20.703     6.471
   209   1 H      0.925     0.047     2.359     2.402
   210   6 C      3.768    -0.122    22.879     6.817
   211   1 H      0.925     0.042     2.423     2.434
   212   1 H      0.925     0.014     2.819     2.626
   213   1 H      0.924     0.058     2.224     2.332
   214   6 C      3.776    -0.124    22.894     6.817
   215   1 H      0.925     0.060     2.199     2.319
   216   1 H      0.925     0.043     2.404     2.425
   217   1 H      0.925     0.042     2.418     2.432
   218   6 C      2.751     0.285    22.167     7.709
   219   8 O      0.861    -0.436    22.403     6.346
   220   7 N      2.692    -0.187    25.056     7.434
   221   1 H      0.860     0.189     1.161     1.688
   222   6 C      3.775     0.010    20.433     6.441
   223   1 H      0.924     0.091     1.874     2.141
   224   6 C      3.800    -0.087    22.153     6.701
   225   1 H      0.925     0.079     1.991     2.206
   226   1 H      0.925     0.070     2.089     2.260
   227   6 C      3.796    -0.092    22.259     6.718
   228   1 H      0.924     0.076     2.024     2.225
   229   1 H      0.925     0.096     1.826     2.113
   230   6 C      3.740    -0.036    21.300     6.585
   231   1 H      0.925     0.094     1.839     2.121
   232   1 H      0.925     0.082     1.962     2.191
   233   7 N      2.700    -0.136    23.940     7.267
   234   1 H      0.860     0.212     1.047     1.602
   235   6 C      2.738     0.225    23.261     7.897
   236   7 N      2.658    -0.250    26.497     7.645
   237   1 H      0.860     0.247     0.893     1.480
   238   1 H      0.860     0.266     0.824     1.422
   239   7 N      2.664    -0.236    26.185     7.600
   240   1 H      0.860     0.241     0.918     1.501
   241   1 H      0.860     0.208     1.066     1.617
   242   6 C      2.744     0.261    22.601     7.784
   243   8 O      0.859    -0.487    23.503     6.500
   244   7 N      2.682    -0.168    24.628     7.370
   245   1 H      0.860     0.223     0.996     1.563
   246   6 C      3.785     0.002    20.564     6.459
   247   1 H      0.925     0.086     1.923     2.168
   248   6 C      3.813    -0.089    22.188     6.704
   249   1 H      0.925     0.084     1.935     2.175
   250   1 H      0.924     0.075     2.026     2.226
   251   6 C      3.853    -0.016    20.831     6.491
   252   1 H      0.925     0.042     2.424     2.435
   253   6 C      3.778    -0.123    22.875     6.814
   254   1 H      0.925     0.042     2.425     2.435
   255   1 H      0.925     0.050     2.323     2.384
   256   1 H      0.924     0.046     2.372     2.409
   257   6 C      3.757    -0.116    22.766     6.803
   258   1 H      0.925     0.039     2.460     2.453
   259   1 H      0.924     0.046     2.368     2.407
   260   1 H      0.924     0.031     2.574     2.509
   261   6 C      2.746     0.271    22.428     7.754
   262   8 O      0.859    -0.465    23.019     6.433
   263   7 N      2.693    -0.179    24.874     7.407
   264   1 H      0.860     0.206     1.078     1.626
   265   6 C      3.780     0.007    20.487     6.448
   266   1 H      0.925     0.089     1.887     2.148
   267   6 C      3.790    -0.086    22.145     6.702
   268   1 H      0.924     0.059     2.211     2.325
   269   1 H      0.924     0.066     2.128     2.281
   270   6 C      3.786    -0.081    22.065     6.691
   271   1 H      0.924     0.061     2.184     2.311
   272   1 H      0.924     0.060     2.197     2.318
   273   6 C      3.801    -0.101    22.418     6.741
   274   1 H      0.925     0.084     1.943     2.180
   275   1 H      0.925     0.085     1.932     2.173
   276   6 C      3.732    -0.053    21.611     6.635
   277   1 H      0.924     0.124     1.581     1.966
   278   1 H      0.925     0.121     1.607     1.983
   279   7 N      3.489    -0.147    24.169     7.302
   280   1 H      0.860     0.299     0.717     1.327
   281   1 H      0.860     0.295     0.728     1.336
   282   1 H      0.860     0.298     0.720     1.329
   283   6 C      2.747     0.267    22.498     7.767
   284   8 O      0.859    -0.499    23.767     6.536
   285   7 N      2.680    -0.183    24.964     7.421
   286   1 H      0.860     0.228     0.972     1.544
   287   6 C      3.790     0.014    20.355     6.425
   288   1 H      0.925     0.053     2.287     2.365
   289   6 C      3.847    -0.036    21.180     6.546
   290   1 H      0.924     0.053     2.281     2.362
   291   6 C      3.753    -0.138    23.220     6.871
   292   1 H      0.924     0.072     2.066     2.248
   293   1 H      0.925     0.066     2.125     2.280
   294   1 H      0.925     0.058     2.221     2.331
   295   6 C      3.809    -0.069    21.806     6.647
   296   1 H      0.925     0.026     2.650     2.546
   297   1 H      0.924     0.034     2.526     2.486
   298   6 C      3.750    -0.125    22.966     6.835
   299   1 H      0.924     0.047     2.358     2.401
   300   1 H      0.925     0.037     2.484     2.465
   301   1 H      0.925     0.068     2.108     2.271
   302   6 C      2.747     0.284    22.190     7.713
   303   8 O      0.859    -0.510    24.016     6.570
   304   7 N      2.697    -0.153    24.314     7.323
   305   1 H      0.860     0.221     1.006     1.571
   306   6 C      3.787     0.013    20.377     6.429
   307   1 H      0.925     0.116     1.648     2.007
   308   6 C      3.816    -0.100    22.391     6.735
   309   1 H      0.924     0.104     1.747     2.067
   310   1 H      0.925     0.087     1.908     2.160
   311   6 C      2.950     0.006    27.887     8.661
   312   6 C      2.914    -0.058    29.436     8.897
   313   1 H      0.926     0.057     2.236     2.338
   314   6 C      2.891    -0.089    30.227     9.014
   315   1 H      0.926     0.038     2.472     2.459
   316   6 C      2.834     0.133    25.093     8.209
   317   8 O      1.658    -0.437    21.582     6.271
   318   1 H      0.805     0.302     0.715     1.328
   319   6 C      2.895    -0.062    29.541     8.911
   320   1 H      0.926     0.059     2.213     2.326
   321   6 C      2.917    -0.040    28.995     8.830
   322   1 H      0.926     0.073     2.050     2.239
   323   6 C      2.745     0.259    22.636     7.790
   324   8 O      0.857    -0.473    23.198     6.458
   325   7 N      2.684    -0.172    24.712     7.383
   326   1 H      0.860     0.216     1.029     1.589
   327   6 C      3.803     0.028    20.104     6.383
   328   1 H      0.925     0.060     2.197     2.318
   329   6 C      3.807    -0.074    21.908     6.663
   330   1 H      0.925     0.046     2.366     2.406
   331   1 H      0.924     0.076     2.019     2.222
   332   6 C      3.805    -0.078    21.994     6.676
   333   1 H      0.924     0.073     2.053     2.241
   334   1 H      0.925     0.043     2.409     2.427
   335   6 C      3.795    -0.092    22.264     6.719
   336   1 H      0.924     0.065     2.139     2.287
   337   1 H      0.924     0.095     1.829     2.115
   338   6 C      3.730    -0.055    21.657     6.643
   339   1 H      0.925     0.138     1.475     1.899
   340   1 H      0.924     0.115     1.651     2.010
   341   7 N      3.483    -0.142    24.074     7.287
   342   1 H      0.860     0.295     0.730     1.338
   343   1 H      0.860     0.308     0.689     1.300
   344   1 H      0.860     0.290     0.744     1.351
   345   6 C      2.758     0.276    22.334     7.739
   346   8 O      0.859    -0.499    23.753     6.534
   347   7 N      2.699    -0.195    25.227     7.460
   348   1 H      0.860     0.215     1.034     1.593
   349   6 C      3.785     0.037    19.960     6.364
   350   1 H      0.924     0.055     2.254     2.348
   351   6 C      3.809    -0.095    22.309     6.723
   352   1 H      0.924     0.036     2.496     2.471
   353   1 H      0.925     0.057     2.238     2.339
   354   6 C      2.684     0.357    20.939     7.488
   355   8 O      0.858    -0.597    26.046     6.842
   356   8 O      0.857    -0.671    27.926     7.085
   357   6 C      2.752     0.273    22.379     7.746
   358   8 O      0.860    -0.486    23.476     6.496
   359   7 N      2.686    -0.171    24.706     7.382
   360   1 H      0.860     0.186     1.180     1.701
   361   6 C      3.772     0.008    20.472     6.447
   362   1 H      0.924     0.111     1.691     2.034
   363   6 C      3.713     0.110    18.897     6.211
   364   1 H      0.924     0.029     2.606     2.525
   365   6 C      3.751    -0.129    23.035     6.845
   366   1 H      0.925     0.073     2.049     2.239
   367   1 H      0.924     0.043     2.415     2.430
   368   1 H      0.925     0.096     1.824     2.112
   369   8 O      1.652    -0.464    22.138     6.352
   370   1 H      0.805     0.315     0.676     1.292
   371   6 C      2.737     0.254    22.718     7.804
   372   8 O      0.858    -0.502    23.837     6.546
   373   7 N      2.686    -0.175    24.788     7.394
   374   1 H      0.860     0.201     1.102     1.644
   375   6 C      3.784     0.032    20.050     6.378
   376   1 H      0.925     0.081     1.970     2.195
   377   6 C      3.801    -0.048    21.442     6.593
   378   1 H      0.924     0.028     2.611     2.527
   379   1 H      0.925     0.049     2.326     2.385
   380   6 C      3.800    -0.098    22.367     6.734
   381   1 H      0.924     0.046     2.374     2.409
   382   1 H      0.925     0.056     2.244     2.343
   383   6 C      2.690     0.368    20.756     7.456
   384   8 O      0.857    -0.625    26.744     6.934
   385   8 O      0.860    -0.591    25.898     6.823
   386   6 C      2.746     0.268    22.465     7.761
   387   8 O      0.858    -0.467    23.072     6.440
   388   7 N      2.676    -0.176    24.823     7.400
   389   1 H      0.860     0.195     1.130     1.665
   390   6 C      3.738    -0.038    21.342     6.592
   391   1 H      0.924     0.119     1.620     1.990
   392   1 H      0.924     0.108     1.712     2.046
   393   6 C      2.743     0.269    22.457     7.759
   394   8 O      0.857    -0.436    22.407     6.347
   395   7 N      2.683    -0.162    24.512     7.353
   396   1 H      0.860     0.173     1.254     1.755
   397   6 C      3.788     0.029    20.098     6.385
   398   1 H      0.925     0.074     2.044     2.236
   399   6 C      3.804    -0.073    21.886     6.660
   400   1 H      0.925     0.063     2.160     2.299
   401   1 H      0.924     0.035     2.512     2.479
   402   6 C      2.956    -0.008    28.229     8.715
   403   6 C      2.906    -0.042    29.046     8.837
   404   1 H      0.926     0.023     2.682     2.561
   405   6 C      2.910    -0.063    29.556     8.915
   406   1 H      0.926     0.054     2.269     2.355
   407   6 C      2.828     0.137    24.994     8.192
   408   8 O      1.660    -0.410    21.042     6.192
   409   1 H      0.805     0.356     0.575     1.191
   410   6 C      2.902    -0.073    29.825     8.955
   411   1 H      0.926     0.066     2.134     2.284
   412   6 C      2.897    -0.036    28.904     8.815
   413   1 H      0.926     0.052     2.296     2.369
   414   6 C      2.754     0.266    22.503     7.768
   415   8 O      0.864    -0.545    24.802     6.677
   416   7 N      2.691    -0.148    24.206     7.307
   417   1 H      0.860     0.213     1.041     1.598
   418   6 C      3.785     0.015    20.346     6.425
   419   1 H      0.925     0.083     1.953     2.185
   420   6 C      3.808    -0.077    21.960     6.671
   421   1 H      0.925     0.071     2.076     2.253
   422   1 H      0.924     0.060     2.194     2.317
   423   6 C      2.958    -0.002    28.069     8.690
   424   6 C      2.929    -0.041    29.025     8.835
   425   1 H      0.926     0.029     2.600     2.521
   426   6 C      2.913    -0.086    30.159     9.005
   427   1 H      0.926     0.050     2.314     2.379
   428   6 C      2.834     0.142    24.893     8.176
   429   8 O      1.661    -0.397    20.792     6.156
   430   1 H      0.805     0.347     0.596     1.212
   431   6 C      2.904    -0.070    29.744     8.942
   432   1 H      0.926     0.085     1.932     2.174
   433   6 C      2.932    -0.044    29.089     8.845
   434   1 H      0.925     0.052     2.299     2.371
   435   6 C      2.748     0.285    22.167     7.709
   436   8 O      0.866    -0.477    23.270     6.468
   437   7 N      2.694    -0.206    25.477     7.497
   438   1 H      0.860     0.248     0.890     1.478
   439   6 C      3.787     0.012    20.394     6.432
   440   1 H      0.924     0.076     2.020     2.223
   441   6 C      3.725     0.121    18.702     6.175
   442   1 H      0.924     0.028     2.615     2.529
   443   6 C      3.760    -0.102    22.491     6.761
   444   1 H      0.924     0.046     2.368     2.406
   445   1 H      0.925     0.032     2.561     2.503
   446   1 H      0.925     0.043     2.405     2.425
   447   8 O      1.658    -0.486    22.586     6.416
   448   1 H      0.805     0.299     0.723     1.335
   449   6 C      2.747     0.258    22.649     7.793
   450   8 O      0.859    -0.453    22.778     6.399
   451   7 N      2.692    -0.170    24.669     7.377
   452   1 H      0.860     0.213     1.041     1.598
   453   6 C      3.801     0.009    20.432     6.436
   454   1 H      0.925     0.089     1.885     2.147
   455   6 C      3.854    -0.031    21.093     6.532
   456   1 H      0.925     0.074     2.045     2.237
   457   6 C      3.753    -0.134    23.136     6.859
   458   1 H      0.925     0.037     2.489     2.467
   459   1 H      0.925     0.045     2.377     2.411
   460   1 H      0.925     0.068     2.111     2.272
   461   6 C      3.803    -0.090    22.209     6.709
   462   1 H      0.925     0.043     2.413     2.429
   463   1 H      0.925     0.073     2.050     2.239
   464   6 C      3.747    -0.123    22.930     6.830
   465   1 H      0.925     0.036     2.508     2.477
   466   1 H      0.924     0.059     2.209     2.324
   467   1 H      0.925     0.057     2.236     2.338
   468   6 C      2.759     0.270    22.432     7.756
   469   8 O      0.858    -0.505    23.902     6.555
   470   7 N      2.692    -0.141    24.058     7.285
   471   1 H      0.860     0.247     0.896     1.482
   472   6 C      3.746    -0.033    21.225     6.572
   473   1 H      0.925     0.068     2.108     2.270
   474   1 H      0.925     0.117     1.641     2.003
   475   6 C      2.746     0.270    22.434     7.756
   476   8 O      0.862    -0.430    22.282     6.329
   477   7 N      2.692    -0.190    25.117     7.443
   478   1 H      0.860     0.186     1.183     1.704
   479   6 C      3.777     0.017    20.312     6.421
   480   1 H      0.925     0.087     1.911     2.162
   481   6 C      3.833    -0.014    20.803     6.489
   482   1 H      0.925     0.041     2.438     2.442
   483   6 C      3.746    -0.106    22.597     6.781
   484   1 H      0.925     0.017     2.777     2.606
   485   1 H      0.924     0.051     2.313     2.378
   486   1 H      0.925     0.048     2.349     2.397
   487   6 C      3.804    -0.075    21.933     6.667
   488   1 H      0.925     0.053     2.287     2.365
   489   1 H      0.925     0.069     2.097     2.264
   490   6 C      3.748    -0.118    22.819     6.813
   491   1 H      0.924     0.030     2.589     2.516
   492   1 H      0.925     0.028     2.622     2.532
   493   1 H      0.925     0.060     2.203     2.321
   494   6 C      2.744     0.265    22.534     7.773
   495   8 O      0.860    -0.495    23.666     6.522
   496   7 N      2.681    -0.179    24.871     7.407
   497   1 H      0.860     0.203     1.091     1.636
   498   6 C      3.734    -0.004    20.739     6.499
   499   1 H      0.924     0.079     1.995     2.209
   500   1 H      0.925     0.088     1.902     2.157
   501   6 C      2.743     0.276    22.328     7.737
   502   8 O      0.861    -0.536    24.592     6.649
   503   7 N      2.681    -0.161    24.491     7.350
   504   1 H      0.860     0.227     0.977     1.548
   505   6 C      3.772     0.020    20.270     6.416
   506   1 H      0.925     0.059     2.211     2.325
   507   6 C      3.809    -0.081    22.032     6.682
   508   1 H      0.924     0.118     1.628     1.995
   509   1 H      0.924     0.088     1.896     2.153
   510   6 C      3.098     0.057    26.600     8.452
   511   7 N      2.790    -0.027    21.762     6.928
   512   1 H      0.860     0.255     0.865     1.457
   513   6 C      3.058     0.072    26.341     8.417
   514   1 H      0.926     0.133     1.509     1.921
   515   7 N      2.773    -0.019    21.620     6.906
   516   1 H      0.860     0.254     0.869     1.460
   517   6 C      3.038    -0.022    28.513     8.758
   518   1 H      0.926     0.140     1.462     1.891
   519   6 C      2.737     0.272    22.410     7.751
   520   8 O      0.857    -0.428    22.256     6.325
   521   7 N      2.686    -0.172    24.722     7.385
   522   1 H      0.860     0.202     1.094     1.639
   523   6 C      3.792     0.027    20.132     6.390
   524   1 H      0.925     0.063     2.164     2.301
   525   6 C      3.798    -0.077    21.970     6.674
   526   1 H      0.924     0.048     2.342     2.393
   527   1 H      0.925     0.044     2.396     2.421
   528   6 C      3.843    -0.012    20.758     6.481
   529   1 H      0.924     0.052     2.300     2.372
   530   6 C      3.753    -0.112    22.705     6.795
   531   1 H      0.925     0.063     2.167     2.302
   532   1 H      0.924     0.023     2.682     2.561
   533   1 H      0.925     0.043     2.413     2.429
   534   6 C      3.751    -0.117    22.797     6.809
   535   1 H      0.925     0.029     2.598     2.520
   536   1 H      0.925     0.048     2.340     2.392
   537   1 H      0.924     0.053     2.279     2.361
   538   6 C      2.750     0.279    22.282     7.729
   539   8 O      0.861    -0.498    23.733     6.532
   540   7 N      2.686    -0.179    24.883     7.409
   541   1 H      0.860     0.220     1.012     1.575
   542   6 C      3.790     0.018    20.276     6.413
   543   1 H      0.925     0.083     1.946     2.181
   544   6 C      3.803    -0.079    22.006     6.679
   545   1 H      0.924     0.050     2.324     2.384
   546   1 H      0.925     0.066     2.129     2.282
   547   6 C      3.831    -0.029    21.074     6.532
   548   1 H      0.925     0.039     2.459     2.452
   549   6 C      3.744    -0.129    23.059     6.850
   550   1 H      0.925     0.067     2.118     2.276
   551   1 H      0.925     0.067     2.123     2.278
   552   1 H      0.924     0.047     2.359     2.402
   553   6 C      3.742    -0.119    22.863     6.822
   554   1 H      0.924     0.035     2.515     2.480
   555   1 H      0.924     0.068     2.113     2.273
   556   1 H      0.925     0.020     2.731     2.584
   557   6 C      2.745     0.269    22.449     7.758
   558   8 O      0.859    -0.526    24.358     6.617
   559   7 N      2.686    -0.162    24.515     7.354
   560   1 H      0.860     0.225     0.988     1.557
   561   6 C      3.788     0.013    20.369     6.428
   562   1 H      0.924     0.070     2.091     2.261
   563   6 C      3.722     0.114    18.820     6.195
   564   1 H      0.924     0.023     2.689     2.564
   565   6 C      3.747    -0.130    23.064     6.850
   566   1 H      0.924     0.062     2.172     2.304
   567   1 H      0.925     0.085     1.928     2.171
   568   1 H      0.924     0.042     2.416     2.431
   569   8 O      1.654    -0.477    22.411     6.391
   570   1 H      0.805     0.343     0.605     1.222
   571   6 C      2.753     0.273    22.387     7.748
   572   8 O      0.860    -0.487    23.502     6.500
   573   7 N      2.692    -0.167    24.607     7.367
   574   1 H      0.860     0.216     1.030     1.590
   575   6 C      3.791     0.009    20.439     6.438
   576   1 H      0.924     0.088     1.903     2.157
   577   6 C      3.807    -0.092    22.242     6.714
   578   1 H      0.925     0.082     1.957     2.188
   579   1 H      0.925     0.075     2.029     2.227
   580   6 C      3.789    -0.079    22.023     6.684
   581   1 H      0.925     0.050     2.325     2.385
   582   1 H      0.925     0.055     2.254     2.348
   583   6 C      3.809    -0.103    22.458     6.746
   584   1 H      0.924     0.084     1.938     2.177
   585   1 H      0.925     0.083     1.952     2.185
   586   6 C      3.735    -0.043    21.439     6.608
   587   1 H      0.925     0.116     1.646     2.006
   588   1 H      0.925     0.122     1.596     1.976
   589   7 N      3.503    -0.141    24.032     7.281
   590   1 H      0.860     0.295     0.730     1.338
   591   1 H      0.860     0.292     0.738     1.346
   592   1 H      0.860     0.300     0.713     1.323
   593   6 C      2.751     0.272    22.409     7.752
   594   8 O      0.858    -0.476    23.250     6.465
   595   7 N      2.683    -0.167    24.618     7.369
   596   1 H      0.860     0.214     1.036     1.595
   597   6 C      3.779     0.014    20.357     6.428
   598   1 H      0.925     0.093     1.849     2.126
   599   6 C      3.680     0.074    19.550     6.333
   600   1 H      0.925     0.049     2.335     2.390
   601   1 H      0.924     0.048     2.344     2.394
   602   8 O      1.657    -0.475    22.358     6.383
   603   1 H      0.805     0.350     0.588     1.204
   604   6 C      2.747     0.238    23.024     7.857
   605   8 O      0.857    -0.498    23.733     6.532
   606   7 N      2.755    -0.104    23.276     7.165
   607   6 C      3.785    -0.018    20.906     6.513
   608   1 H      0.924     0.065     2.142     2.289
   609   1 H      0.925     0.076     2.016     2.220
   610   6 C      3.808    -0.075    21.935     6.667
   611   1 H      0.925     0.079     1.993     2.208
   612   1 H      0.925     0.069     2.096     2.264
   613   6 C      3.882    -0.073    21.839     6.644
   614   1 H      0.925     0.072     2.065     2.247
   615   1 H      0.925     0.064     2.149     2.293
   616   6 C      3.797     0.022    20.213     6.402
   617   1 H      0.924     0.094     1.845     2.124
   618   6 C      2.751     0.270    22.436     7.756
   619   8 O      0.859    -0.488    23.523     6.503
   620   7 N      2.685    -0.152    24.293     7.320
   621   1 H      0.860     0.199     1.111     1.651
   622   6 C      3.793     0.014    20.354     6.425
   623   1 H      0.925     0.085     1.933     2.174
   624   6 C      3.682     0.072    19.578     6.336
   625   1 H      0.925     0.053     2.285     2.364
   626   1 H      0.924     0.045     2.389     2.417
   627   8 O      1.656    -0.478    22.425     6.393
   628   1 H      0.806     0.355     0.576     1.192
   629   6 C      2.753     0.273    22.391     7.749
   630   8 O      0.866    -0.477    23.281     6.469
   631   7 N      2.684    -0.193    25.178     7.452
   632   1 H      0.860     0.214     1.038     1.596
   633   6 C      3.774     0.004    20.531     6.456
   634   1 H      0.924     0.110     1.694     2.035
   635   6 C      3.798    -0.090    22.219     6.712
   636   1 H      0.925     0.065     2.139     2.287
   637   1 H      0.925     0.082     1.954     2.186
   638   6 C      3.843    -0.027    21.017     6.521
   639   1 H      0.924     0.053     2.283     2.363
   640   6 C      3.752    -0.138    23.219     6.872
   641   1 H      0.925     0.041     2.432     2.439
   642   1 H      0.924     0.053     2.280     2.361
   643   1 H      0.925     0.054     2.272     2.357
   644   6 C      3.754    -0.135    23.146     6.860
   645   1 H      0.924     0.051     2.311     2.377
   646   1 H      0.925     0.058     2.227     2.334
   647   1 H      0.924     0.056     2.252     2.347
   648   6 C      2.746     0.263    22.571     7.779
   649   8 O      0.858    -0.478    23.309     6.473
   650   7 N      2.700    -0.171    24.691     7.380
   651   1 H      0.860     0.225     0.987     1.556
   652   6 C      3.794     0.021    20.231     6.405
   653   1 H      0.924     0.117     1.634     1.999
   654   6 C      3.827    -0.130    22.975     6.820
   655   1 H      0.925     0.063     2.160     2.298
   656   1 H      0.925     0.111     1.688     2.032
   657   6 C      2.745     0.298    21.949     7.671
   658   8 O      0.865    -0.493    23.634     6.518
   659   7 N      2.644    -0.279    27.211     7.747
   660   1 H      0.860     0.234     0.947     1.524
   661   1 H      0.860     0.242     0.915     1.499
   662   6 C      2.751     0.271    22.423     7.754
   663   8 O      0.857    -0.471    23.147     6.450
   664   7 N      2.697    -0.190    25.113     7.443
   665   1 H      0.860     0.214     1.039     1.596
   666   6 C      3.796     0.022    20.205     6.401
   667   1 H      0.925     0.065     2.145     2.290
   668   6 C      3.762    -0.139    23.220     6.869
   669   1 H      0.924     0.082     1.960     2.189
   670   1 H      0.924     0.069     2.099     2.266
   671   1 H      0.925     0.067     2.123     2.278
   672   6 C      2.753     0.278    22.287     7.731
   673   8 O      0.869    -0.517    24.158     6.590
   674   7 N      2.699    -0.166    24.601     7.367
   675   1 H      0.860     0.231     0.962     1.536
   676   6 C      3.780     0.009    20.445     6.441
   677   1 H      0.925     0.058     2.222     2.331
   678   6 C      3.744    -0.138    23.229     6.875
   679   1 H      0.924     0.077     2.013     2.219
   680   1 H      0.924     0.074     2.044     2.236
   681   1 H      0.925     0.096     1.823     2.111
   682   6 C      2.742     0.271    22.419     7.753
   683   8 O      0.858    -0.500    23.783     6.539
   684   7 N      2.684    -0.164    24.548     7.359
   685   1 H      0.860     0.241     0.918     1.501
   686   6 C      3.787     0.006    20.494     6.448
   687   1 H      0.924     0.109     1.706     2.042
   688   6 C      3.798    -0.086    22.143     6.700
   689   1 H      0.925     0.080     1.982     2.201
   690   1 H      0.924     0.074     2.040     2.233
   691   6 C      3.800    -0.093    22.275     6.720
   692   1 H      0.925     0.086     1.922     2.168
   693   1 H      0.924     0.070     2.082     2.256
   694   6 C      3.794    -0.103    22.472     6.751
   695   1 H      0.925     0.105     1.738     2.062
   696   1 H      0.925     0.081     1.972     2.196
   697   6 C      3.729    -0.065    21.846     6.672
   698   1 H      0.925     0.113     1.673     2.023
   699   1 H      0.924     0.115     1.654     2.011
   700   7 N      3.487    -0.149    24.212     7.308
   701   1 H      0.860     0.302     0.706     1.316
   702   1 H      0.860     0.297     0.723     1.332
   703   1 H      0.860     0.305     0.699     1.309
   704   6 C      2.744     0.261    22.595     7.783
   705   8 O      0.858    -0.500    23.777     6.538
   706   7 N      2.688    -0.189    25.099     7.441
   707   1 H      0.860     0.214     1.038     1.596
   708   6 C      3.780     0.018    20.301     6.419
   709   1 H      0.925     0.074     2.047     2.237
   710   6 C      3.682     0.080    19.452     6.316
   711   1 H      0.925     0.033     2.544     2.494
   712   1 H      0.925     0.037     2.487     2.466
   713   8 O      1.657    -0.470    22.259     6.369
   714   1 H      0.806     0.359     0.567     1.183
   715   6 C      2.752     0.279    22.279     7.729
   716   8 O      0.870    -0.497    23.707     6.528
   717   7 N      2.699    -0.209    25.551     7.507
   718   1 H      0.860     0.226     0.982     1.552
   719   6 C      3.796     0.048    19.778     6.333
   720   1 H      0.925     0.045     2.383     2.414
   721   6 C      3.811    -0.046    21.388     6.583
   722   1 H      0.924     0.039     2.468     2.457
   723   1 H      0.924     0.047     2.358     2.401
   724   6 C      3.799    -0.089    22.194     6.708
   725   1 H      0.925     0.028     2.613     2.528
   726   1 H      0.925     0.036     2.508     2.477
   727   6 C      2.688     0.374    20.661     7.439
   728   8 O      0.856    -0.635    27.000     6.967
   729   8 O      0.857    -0.668    27.850     7.076
   730   6 C      2.753     0.275    22.347     7.741
   731   8 O      0.863    -0.503    23.847     6.547
   732   7 N      2.688    -0.202    25.389     7.484
   733   1 H      0.860     0.222     1.000     1.567
   734   6 C      3.773     0.016    20.334     6.426
   735   1 H      0.925     0.087     1.906     2.159
   736   6 C      3.799    -0.091    22.228     6.713
   737   1 H      0.925     0.069     2.092     2.262
   738   1 H      0.924     0.095     1.836     2.119
   739   6 C      3.844    -0.021    20.917     6.506
   740   1 H      0.925     0.030     2.592     2.518
   741   6 C      3.750    -0.131    23.078     6.851
   742   1 H      0.925     0.033     2.541     2.493
   743   1 H      0.925     0.070     2.082     2.257
   744   1 H      0.924     0.051     2.308     2.376
   745   6 C      3.755    -0.126    22.969     6.834
   746   1 H      0.925     0.056     2.241     2.341
   747   1 H      0.925     0.061     2.184     2.311
   748   1 H      0.925     0.047     2.355     2.400
   749   6 C      2.739     0.270    22.441     7.756
   750   8 O      0.859    -0.494    23.653     6.521
   751   7 N      2.686    -0.181    24.923     7.414
   752   1 H      0.860     0.195     1.133     1.667
   753   6 C      3.798     0.036    19.965     6.362
   754   1 H      0.924     0.060     2.197     2.318
   755   6 C      3.791    -0.095    22.317     6.728
   756   1 H      0.925     0.043     2.408     2.427
   757   1 H      0.925     0.041     2.433     2.439
   758   6 C      2.682     0.365    20.811     7.465
   759   8 O      0.857    -0.629    26.835     6.945
   760   8 O      0.856    -0.642    27.162     6.987
   761   6 C      2.758     0.291    22.062     7.692
   762   8 O      0.858    -0.512    24.053     6.575
   763   7 N      2.692    -0.193    25.194     7.455
   764   1 H      0.860     0.213     1.041     1.598
   765   6 C      3.781     0.010    20.422     6.438
   766   1 H      0.925     0.081     1.964     2.192
   767   6 C      3.796    -0.057    21.611     6.620
   768   1 H      0.925     0.044     2.392     2.419
   769   1 H      0.924     0.056     2.241     2.341
   770   6 C      3.797    -0.069    21.831     6.653
   771   1 H      0.925     0.058     2.225     2.333
   772   1 H      0.925     0.067     2.115     2.274
   773   6 C      3.794    -0.087    22.170     6.705
   774   1 H      0.924     0.068     2.107     2.270
   775   1 H      0.924     0.061     2.183     2.311
   776   6 C      3.728    -0.057    21.702     6.651
   777   1 H      0.924     0.115     1.651     2.009
   778   1 H      0.925     0.127     1.560     1.953
   779   7 N      3.485    -0.145    24.127     7.295
   780   1 H      0.860     0.298     0.720     1.330
   781   1 H      0.860     0.299     0.717     1.326
   782   1 H      0.860     0.318     0.663     1.276
   783   6 C      2.745     0.270    22.444     7.757
   784   8 O      0.859    -0.461    22.928     6.420
   785   7 N      2.696    -0.194    25.201     7.456
   786   1 H      0.860     0.204     1.086     1.633
   787   6 C      3.793     0.036    19.985     6.366
   788   1 H      0.925     0.068     2.111     2.272
   789   6 C      3.765    -0.130    23.031     6.840
   790   1 H      0.925     0.070     2.083     2.257
   791   1 H      0.925     0.070     2.090     2.261
   792   1 H      0.924     0.072     2.064     2.246
   793   6 C      2.742     0.268    22.467     7.761
   794   8 O      0.858    -0.488    23.520     6.502
   795   7 N      2.684    -0.197    25.287     7.468
   796   1 H      0.860     0.194     1.137     1.670
   797   6 C      3.792     0.024    20.180     6.397
   798   1 H      0.924     0.091     1.871     2.139
   799   6 C      3.846    -0.017    20.843     6.494
   800   1 H      0.925     0.042     2.425     2.435
   801   6 C      3.741    -0.108    22.647     6.790
   802   1 H      0.924     0.039     2.459     2.452
   803   1 H      0.924     0.028     2.621     2.532
   804   1 H      0.924     0.059     2.206     2.323
   805   6 C      3.800    -0.067    21.791     6.646
   806   1 H      0.924     0.072     2.064     2.247
   807   1 H      0.924     0.055     2.263     2.353
   808   6 C      3.750    -0.116    22.787     6.808
   809   1 H      0.925     0.034     2.528     2.487
   810   1 H      0.925     0.058     2.219     2.330
   811   1 H      0.925     0.027     2.631     2.537
   812   6 C      2.750     0.275    22.347     7.741
   813   8 O      0.859    -0.504    23.881     6.552
   814   7 N      2.683    -0.166    24.585     7.364
   815   1 H      0.860     0.210     1.057     1.610
   816   6 C      3.737    -0.037    21.322     6.589
   817   1 H      0.925     0.109     1.705     2.042
   818   1 H      0.925     0.090     1.879     2.144
   819   6 C      2.741     0.284    22.197     7.714
   820   8 O      0.872    -0.455    22.798     6.402
   821   7 N      2.695    -0.182    24.948     7.418
   822   1 H      0.860     0.177     1.231     1.738
   823   6 C      3.759     0.022    20.246     6.415
   824   1 H      0.924     0.072     2.064     2.247
   825   6 C      3.783    -0.074    21.938     6.672
   826   1 H      0.924     0.067     2.118     2.276
   827   1 H      0.925     0.073     2.049     2.239
   828   6 C      3.799    -0.071    21.868     6.658
   829   1 H      0.925     0.052     2.293     2.368
   830   1 H      0.925     0.039     2.465     2.455
   831   6 C      3.735    -0.014    20.917     6.527
   832   1 H      0.924     0.080     1.977     2.199
   833   1 H      0.925     0.079     1.994     2.208
   834   7 N      2.705    -0.157    24.406     7.337
   835   1 H      0.860     0.233     0.954     1.530
   836   6 C      2.737     0.250    22.798     7.817
   837   7 N      2.705    -0.248    26.462     7.640
   838   1 H      0.860     0.248     0.891     1.479
   839   1 H      0.860     0.230     0.966     1.539
   840   7 N      2.705    -0.262    26.786     7.687
   841   1 H      0.860     0.241     0.918     1.501
   842   1 H      0.860     0.244     0.908     1.493
   843   6 C      2.748     0.266    22.511     7.769
   844   8 O      0.858    -0.507    23.941     6.560
   845   7 N      2.689    -0.169    24.654     7.374
   846   1 H      0.860     0.213     1.040     1.598
   847   6 C      3.805     0.040    19.893     6.350
   848   1 H      0.925     0.059     2.206     2.323
   849   6 C      3.817    -0.114    22.663     6.775
   850   1 H      0.925     0.093     1.850     2.127
   851   1 H      0.924     0.082     1.955     2.186
   852   6 C      2.742     0.282    22.226     7.719
   853   8 O      0.859    -0.510    24.009     6.569
   854   7 N      2.639    -0.270    27.001     7.717
   855   1 H      0.860     0.273     0.800     1.401
   856   1 H      0.860     0.246     0.899     1.485
   857   6 C      2.754     0.268    22.480     7.764
   858   8 O      0.858    -0.487    23.507     6.500
   859   7 N      2.695    -0.169    24.665     7.376
   860   1 H      0.860     0.205     1.080     1.628
   861   6 C      3.837     0.013    20.336     6.416
   862   1 H      0.925     0.114     1.665     2.018
   863   6 C      3.809    -0.016    20.852     6.500
   864   1 H      0.925     0.107     1.718     2.050
   865   1 H      0.925     0.059     2.216     2.328
   866  16 S      1.939    -0.278   153.046    20.822
   867   1 H      0.923     0.165     1.292     1.778
   868   6 C      2.755     0.256    22.694     7.801
   869   8 O      0.859    -0.465    23.016     6.432
   870   7 N      2.692    -0.172    24.715     7.383
   871   1 H      0.860     0.224     0.993     1.561
   872   6 C      3.800     0.027    20.118     6.386
   873   1 H      0.925     0.106     1.732     2.058
   874   6 C      3.824    -0.106    22.495     6.749
   875   1 H      0.924     0.077     2.012     2.218
   876   1 H      0.925     0.075     2.034     2.230
   877   6 C      2.749     0.302    21.880     7.659
   878   8 O      0.861    -0.468    23.085     6.442
   879   7 N      2.646    -0.303    27.810     7.832
   880   1 H      0.860     0.235     0.943     1.521
   881   1 H      0.860     0.225     0.989     1.558
   882   6 C      2.745     0.262    22.588     7.782
   883   8 O      0.856    -0.464    22.993     6.429
   884   7 N      2.681    -0.188    25.087     7.439
   885   1 H      0.860     0.203     1.092     1.637
   886   6 C      3.745    -0.036    21.279     6.580
   887   1 H      0.925     0.129     1.542     1.942
   888   1 H      0.925     0.108     1.712     2.046
   889   6 C      2.755     0.274    22.361     7.743
   890   8 O      0.868    -0.494    23.646     6.520
   891   7 N      2.694    -0.145    24.130     7.296
   892   1 H      0.860     0.205     1.078     1.627
   893   6 C      3.798     0.018    20.279     6.412
   894   1 H      0.925     0.091     1.865     2.136
   895   6 C      3.854    -0.015    20.814     6.489
   896   1 H      0.924     0.060     2.204     2.321
   897   6 C      3.753    -0.116    22.784     6.806
   898   1 H      0.924     0.035     2.514     2.480
   899   1 H      0.925     0.049     2.331     2.388
   900   1 H      0.924     0.044     2.401     2.423
   901   6 C      3.756    -0.128    23.009     6.839
   902   1 H      0.925     0.056     2.244     2.342
   903   1 H      0.925     0.037     2.492     2.469
   904   1 H      0.924     0.065     2.142     2.289
   905   6 C      2.747     0.263    22.563     7.778
   906   8 O      0.859    -0.478    23.303     6.472
   907   7 N      2.681    -0.190    25.125     7.445
   908   1 H      0.860     0.220     1.011     1.575
   909   6 C      3.782     0.012    20.401     6.434
   910   1 H      0.925     0.079     1.985     2.203
   911   6 C      3.855    -0.026    21.006     6.519
   912   1 H      0.924     0.038     2.476     2.461
   913   6 C      3.752    -0.117    22.795     6.808
   914   1 H      0.924     0.050     2.323     2.383
   915   1 H      0.925     0.029     2.599     2.521
   916   1 H      0.925     0.046     2.368     2.407
   917   6 C      3.801    -0.068    21.803     6.648
   918   1 H      0.924     0.049     2.338     2.391
   919   1 H      0.925     0.060     2.196     2.318
   920   6 C      3.750    -0.117    22.797     6.809
   921   1 H      0.924     0.048     2.339     2.392
   922   1 H      0.924     0.041     2.439     2.442
   923   1 H      0.924     0.032     2.563     2.504
   924   6 C      2.743     0.267    22.486     7.764
   925   8 O      0.860    -0.457    22.859     6.410
   926   7 N      2.683    -0.166    24.587     7.364
   927   1 H      0.860     0.195     1.132     1.667
   928   6 C      3.785    -0.000    20.602     6.465
   929   1 H      0.924     0.100     1.784     2.089
   930   6 C      3.729     0.108    18.900     6.206
   931   1 H      0.925     0.062     2.171     2.304
   932   6 C      3.754    -0.143    23.313     6.885
   933   1 H      0.924     0.059     2.212     2.326
   934   1 H      0.925     0.055     2.258     2.350
   935   1 H      0.924     0.060     2.198     2.318
   936   8 O      1.655    -0.496    22.811     6.447
   937   1 H      0.805     0.325     0.650     1.266
   938   6 C      2.748     0.274    22.359     7.743
   939   8 O      0.861    -0.445    22.591     6.373
   940   7 N      2.687    -0.206    25.472     7.496
   941   1 H      0.860     0.217     1.021     1.583
   942   6 C      3.789     0.001    20.574     6.460
   943   1 H      0.925     0.092     1.861     2.134
   944   6 C      3.803    -0.090    22.215     6.710
   945   1 H      0.925     0.076     2.020     2.223
   946   1 H      0.924     0.086     1.914     2.164
   947   6 C      3.804    -0.089    22.196     6.707
   948   1 H      0.924     0.087     1.909     2.161
   949   1 H      0.925     0.069     2.097     2.264
   950   6 C      3.799    -0.095    22.311     6.725
   951   1 H      0.925     0.087     1.905     2.158
   952   1 H      0.924     0.061     2.186     2.312
   953   6 C      3.732    -0.063    21.800     6.664
   954   1 H      0.924     0.117     1.634     1.999
   955   1 H      0.925     0.128     1.549     1.946
   956   7 N      3.486    -0.157    24.386     7.334
   957   1 H      0.860     0.304     0.701     1.311
   958   1 H      0.860     0.305     0.699     1.310
   959   1 H      0.860     0.290     0.743     1.350
   960   6 C      2.743     0.282    22.232     7.720
   961   8 O      0.864    -0.459    22.900     6.416
   962   7 N      2.683    -0.197    25.270     7.466
   963   1 H      0.860     0.213     1.044     1.601
   964   6 C      3.778     0.022    20.235     6.409
   965   1 H      0.924     0.086     1.923     2.168
   966   6 C      3.803    -0.109    22.577     6.765
   967   1 H      0.925     0.035     2.514     2.480
   968   1 H      0.924     0.065     2.145     2.290
   969   6 C      2.686     0.369    20.743     7.453
   970   8 O      0.858    -0.639    27.083     6.977
   971   8 O      0.859    -0.594    25.977     6.833
   972   6 C      2.745     0.264    22.555     7.776
   973   8 O      0.859    -0.502    23.833     6.545
   974   7 N      2.687    -0.173    24.751     7.389
   975   1 H      0.860     0.211     1.053     1.607
   976   6 C      3.794     0.029    20.100     6.384
   977   1 H      0.925     0.076     2.026     2.226
   978   6 C      3.811    -0.061    21.670     6.626
   979   1 H      0.925     0.055     2.261     2.351
   980   1 H      0.924     0.068     2.111     2.272
   981   6 C      3.803    -0.095    22.302     6.723
   982   1 H      0.925     0.049     2.337     2.390
   983   1 H      0.925     0.031     2.574     2.509
   984   6 C      2.689     0.360    20.888     7.480
   985   8 O      0.857    -0.602    26.165     6.858
   986   8 O      0.857    -0.621    26.633     6.919
   987   6 C      2.756     0.267    22.489     7.766
   988   8 O      0.862    -0.525    24.337     6.614
   989   7 N      2.690    -0.159    24.434     7.341
   990   1 H      0.860     0.242     0.915     1.498
   991   6 C      3.789     0.010    20.417     6.435
   992   1 H      0.924     0.075     2.034     2.230
   993   6 C      3.751    -0.148    23.428     6.903
   994   1 H      0.925     0.080     1.978     2.200
   995   1 H      0.925     0.097     1.817     2.108
   996   1 H      0.925     0.090     1.884     2.146
   997   6 C      2.745     0.267    22.500     7.767
   998   8 O      0.858    -0.520    24.222     6.599
   999   7 N      2.681    -0.187    25.056     7.434
  1000   1 H      0.860     0.244     0.908     1.492
  1001   6 C      3.788     0.030    20.075     6.381
  1002   1 H      0.925     0.077     2.015     2.220
  1003   6 C      3.805    -0.060    21.655     6.625
  1004   1 H      0.925     0.053     2.277     2.360
  1005   1 H      0.925     0.090     1.881     2.145
  1006   6 C      3.794    -0.099    22.394     6.739
  1007   1 H      0.924     0.028     2.613     2.528
  1008   1 H      0.925     0.052     2.297     2.370
  1009   6 C      2.678     0.354    20.996     7.498
  1010   8 O      0.857    -0.572    25.442     6.763
  1011   8 O      0.857    -0.632    26.920     6.956
  1012   6 C      2.756     0.249    22.818     7.822
  1013   8 O      0.856    -0.538    24.633     6.654
  1014   7 N      2.691    -0.165    24.569     7.362
  1015   1 H      0.860     0.217     1.021     1.583
  1016   6 C      3.805     0.024    20.171     6.394
  1017   1 H      0.924     0.097     1.816     2.108
  1018   6 C      3.811    -0.078    21.975     6.673
  1019   1 H      0.924     0.063     2.168     2.303
  1020   1 H      0.924     0.069     2.092     2.262
  1021   6 C      3.803    -0.086    22.138     6.699
  1022   1 H      0.925     0.068     2.103     2.268
  1023   1 H      0.925     0.064     2.154     2.295
  1024   6 C      3.803    -0.085    22.120     6.696
  1025   1 H      0.924     0.077     2.010     2.217
  1026   1 H      0.924     0.070     2.083     2.257
  1027   6 C      3.736    -0.038    21.341     6.593
  1028   1 H      0.925     0.105     1.737     2.061
  1029   1 H      0.924     0.111     1.689     2.033
  1030   7 N      3.489    -0.157    24.381     7.334
  1031   1 H      0.860     0.272     0.803     1.404
  1032   1 H      0.860     0.289     0.748     1.355
  1033   1 H      0.860     0.293     0.736     1.344
  1034   6 C      2.758     0.263    22.560     7.778
  1035   8 O      0.859    -0.517    24.175     6.592
  1036   7 N      2.691    -0.199    25.316     7.473
  1037   1 H      0.860     0.237     0.936     1.515
  1038   6 C      3.787     0.020    20.254     6.410
  1039   1 H      0.924     0.071     2.071     2.250
  1040   6 C      3.832    -0.084    22.073     6.684
  1041   1 H      0.924     0.060     2.202     2.321
  1042   1 H      0.925     0.083     1.952     2.185
  1043   6 C      3.847    -0.014    20.793     6.486
  1044   1 H      0.925     0.016     2.789     2.611
  1045   6 C      3.747    -0.131    23.082     6.853
  1046   1 H      0.925     0.036     2.504     2.475
  1047   1 H      0.924     0.047     2.358     2.401
  1048   1 H      0.925     0.059     2.210     2.325
  1049   6 C      3.789    -0.138    23.166     6.855
  1050   1 H      0.925     0.063     2.166     2.302
  1051   1 H      0.925     0.063     2.161     2.299
  1052   1 H      0.924     0.060     2.203     2.321
  1053   6 C      2.749     0.278    22.290     7.731
  1054   8 O      0.858    -0.515    24.126     6.586
  1055   7 N      2.688    -0.202    25.391     7.484
  1056   1 H      0.860     0.213     1.040     1.598
  1057   6 C      3.787     0.035    20.005     6.370
  1058   1 H      0.925     0.054     2.265     2.353
  1059   6 C      3.800    -0.077    21.963     6.672
  1060   1 H      0.924     0.060     2.199     2.319
  1061   1 H      0.925     0.074     2.044     2.236
  1062   6 C      2.979     0.004    27.926     8.668
  1063   6 C      2.903    -0.031    28.775     8.796
  1064   1 H      0.926     0.029     2.594     2.518
  1065   6 C      2.935    -0.031    28.768     8.796
  1066   1 H      0.926     0.041     2.439     2.442
  1067   6 C      2.940    -0.041    29.017     8.835
  1068   1 H      0.926     0.032     2.553     2.499
  1069   6 C      2.908    -0.026    28.656     8.778
  1070   1 H      0.926     0.053     2.287     2.365
  1071   6 C      2.946    -0.030    28.755     8.795
  1072   1 H      0.926     0.034     2.533     2.489
  1073   6 C      2.751     0.282    22.216     7.718
  1074   8 O      0.859    -0.484    23.428     6.489
  1075   7 N      2.685    -0.184    24.989     7.424
  1076   1 H      0.860     0.219     1.015     1.578
  1077   6 C      3.796     0.027    20.130     6.389
  1078   1 H      0.925     0.075     2.030     2.228
  1079   6 C      3.805    -0.115    22.694     6.782
  1080   1 H      0.924     0.067     2.116     2.275
  1081   1 H      0.925     0.083     1.953     2.185
  1082   6 C      2.740     0.291    22.065     7.691
  1083   8 O      0.867    -0.526    24.358     6.617
  1084   7 N      2.649    -0.252    26.560     7.654
  1085   1 H      0.860     0.265     0.829     1.426
  1086   1 H      0.860     0.241     0.921     1.503
  1087   6 C      2.744     0.287    22.142     7.705
  1088   8 O      0.861    -0.456    22.822     6.405
  1089   7 N      2.688    -0.184    24.985     7.424
  1090   1 H      0.860     0.214     1.038     1.596
  1091   6 C      3.786     0.026    20.153     6.394
  1092   1 H      0.925     0.087     1.909     2.161
  1093   6 C      3.798    -0.061    21.667     6.628
  1094   1 H      0.925     0.078     1.995     2.209
  1095   1 H      0.924     0.048     2.347     2.396
  1096   6 C      3.805    -0.098    22.367     6.733
  1097   1 H      0.925     0.067     2.123     2.279
  1098   1 H      0.924     0.077     2.014     2.219
  1099   6 C      2.748     0.291    22.071     7.693
  1100   8 O      0.864    -0.520    24.227     6.599
  1101   7 N      2.642    -0.289    27.451     7.781
  1102   1 H      0.860     0.243     0.911     1.496
  1103   1 H      0.860     0.215     1.033     1.592
  1104   6 C      2.743     0.272    22.410     7.751
  1105   8 O      0.860    -0.493    23.629     6.517
  1106   7 N      2.684    -0.186    25.022     7.429
  1107   1 H      0.860     0.187     1.174     1.697
  1108   6 C      3.778     0.034    20.034     6.377
  1109   1 H      0.925     0.078     2.000     2.212
  1110   6 C      3.795    -0.084    22.113     6.696
  1111   1 H      0.925     0.043     2.412     2.429
  1112   1 H      0.925     0.034     2.524     2.484
  1113   6 C      2.682     0.368    20.764     7.457
  1114   8 O      0.858    -0.628    26.823     6.944
  1115   8 O      0.858    -0.603    26.195     6.862
  1116   6 C      2.760     0.253    22.745     7.810
  1117   8 O      0.856    -0.508    23.967     6.564
  1118   7 N      2.681    -0.182    24.937     7.417
  1119   1 H      0.860     0.208     1.064     1.616
  1120   6 C      3.811     0.017    20.283     6.410
  1121   1 H      0.925     0.104     1.751     2.069
  1122   6 C      3.856    -0.023    20.941     6.508
  1123   1 H      0.925     0.034     2.534     2.489
  1124   6 C      3.755    -0.130    23.058     6.847
  1125   1 H      0.925     0.080     1.983     2.202
  1126   1 H      0.925     0.078     2.001     2.212
  1127   1 H      0.924     0.055     2.261     2.352
  1128   6 C      3.761    -0.128    23.003     6.837
  1129   1 H      0.925     0.039     2.469     2.457
  1130   1 H      0.925     0.070     2.091     2.261
  1131   1 H      0.925     0.052     2.292     2.367
  1132   6 C      2.754     0.256    22.684     7.799
  1133   8 O      0.858    -0.499    23.759     6.535
  1134   7 N      2.687    -0.169    24.661     7.375
  1135   1 H      0.860     0.210     1.056     1.609
  1136   6 C      3.799     0.039    19.917     6.354
  1137   1 H      0.925     0.092     1.856     2.131
  1138   6 C      3.808    -0.098    22.369     6.733
  1139   1 H      0.924     0.027     2.636     2.539
  1140   1 H      0.925     0.048     2.350     2.397
  1141   6 C      2.686     0.368    20.760     7.457
  1142   8 O      0.858    -0.614    26.468     6.898
  1143   8 O      0.858    -0.582    25.692     6.796
  1144   6 C      2.757     0.271    22.428     7.755
  1145   8 O      0.860    -0.476    23.268     6.467
  1146   7 N      2.692    -0.181    24.917     7.414
  1147   1 H      0.860     0.169     1.281     1.773
  1148   6 C      3.789     0.022    20.215     6.403
  1149   1 H      0.925     0.097     1.817     2.108
  1150   6 C      3.761    -0.128    23.001     6.837
  1151   1 H      0.924     0.046     2.367     2.406
  1152   1 H      0.925     0.066     2.125     2.280
  1153   1 H      0.925     0.081     1.964     2.192
  1154   6 C      2.761     0.266    22.519     7.771
  1155   8 O      0.858    -0.475    23.241     6.464
  1156   7 N      2.706    -0.155    24.348     7.329
  1157   1 H      0.860     0.204     1.088     1.634
  1158   6 C      3.791     0.025    20.162     6.395
  1159   1 H      0.924     0.069     2.098     2.265
  1160   6 C      3.774    -0.123    22.895     6.818
  1161   1 H      0.925     0.070     2.087     2.259
[...]
  2293  C   3.960        N 2291 0.995    C 2295 0.981    H 2294 0.945    C 2313 0.912
  2294  H   0.990        C 2293 0.945
  2295  C   3.983        C 2298 0.997    C 2293 0.981    H 2297 0.970    H 2296 0.965
  2296  H   0.994        C 2295 0.965
  2297  H   0.993        C 2295 0.970
  2298  C   3.981        C 2301 1.009    C 2295 0.997    H 2300 0.974    H 2299 0.968
  2299  H   0.992        C 2298 0.968
  2300  H   0.992        C 2298 0.974
  2301  C   3.940        C 2298 1.009    H 2302 0.963    N 2304 0.961    H 2303 0.960
  2302  H   0.993        C 2301 0.963
  2303  H   0.993        C 2301 0.960
  2304  N   3.497        C 2306 1.382    C 2301 0.961    H 2305 0.874    N 2310 0.120
  2305  H   0.936        N 2304 0.874
  2306  C   3.977        N 2304 1.382    N 2310 1.325    N 2307 1.240
  2307  N   3.326        C 2306 1.240    H 2308 0.935    H 2309 0.921
  2308  H   0.957        N 2307 0.935
  2309  H   0.946        N 2307 0.921
  2310  N   3.399        C 2306 1.325    H 2311 0.933    H 2312 0.881    N 2304 0.120
  2311  H   0.959        N 2310 0.933
  2312  H   0.934        N 2310 0.881
  2313  C   3.945        O 2314 1.637    N 2315 1.309    C 2293 0.912
  2314  O   1.979        C 2313 1.637    N 2315 0.204
  2315  N   3.461        C 2313 1.309    C 2317 0.971    H 2316 0.882    O 2314 0.204
  2316  H   0.944        N 2315 0.882
  2317  C   3.962        C 2319 0.982    N 2315 0.971    C 2323 0.957    H 2318 0.939
  2318  H   0.992        C 2317 0.939
  2319  C   3.976        C 2317 0.982    H 2322 0.976    H 2321 0.976    H 2320 0.972
  2320  H   0.994        C 2319 0.972
  2321  H   0.994        C 2319 0.976
  2322  H   0.997        C 2319 0.976
  2323  C   3.948        O 2324 1.644    N 2325 1.263    C 2317 0.957
  2324  O   1.988        C 2323 1.644    N 2325 0.193
  2325  N   3.434        C 2323 1.263    C 2327 0.965    H 2326 0.912    O 2324 0.193
  2326  H   0.955        N 2325 0.912
  2327  C   3.964        C 2329 0.987    N 2325 0.965    H 2328 0.943    C 2345 0.942
  2328  H   0.992        C 2327 0.943
  2329  C   3.983        C 2332 1.006    C 2327 0.987    H 2330 0.966    H 2331 0.959
  2330  H   0.995        C 2329 0.966
  2331  H   0.993        C 2329 0.959
  2332  C   3.986        C 2329 1.006    C 2335 0.995    H 2334 0.973    H 2333 0.965
  2333  H   0.993        C 2332 0.965
  2334  H   0.995        C 2332 0.973
  2335  C   3.985        C 2338 1.017    C 2332 0.995    H 2337 0.971    H 2336 0.970
  2336  H   0.992        C 2335 0.970
  2337  H   0.994        C 2335 0.971
  2338  C   3.905        C 2335 1.017    H 2340 0.957    H 2339 0.955    N 2341 0.940
  2339  H   0.987        C 2338 0.955
  2340  H   0.984        C 2338 0.957
  2341  N   3.655        C 2338 0.940    H 2343 0.899    H 2342 0.896    H 2344 0.894
  2342  H   0.912        N 2341 0.896
  2343  H   0.909        N 2341 0.899
  2344  H   0.909        N 2341 0.894
  2345  C   3.947        O 2346 1.618    N 2347 1.314    C 2327 0.942
  2346  O   1.965        C 2345 1.618    N 2347 0.199
  2347  N   3.463        C 2345 1.314    C 2349 0.946    H 2348 0.915    O 2346 0.199
  2348  H   0.954        N 2347 0.915
  2349  C   3.964        C 2351 0.989    H 2350 0.952    N 2347 0.946    C 2369 0.945
  2350  H   0.994        C 2349 0.952
  2351  C   3.985        C 2354 1.003    C 2349 0.989    H 2353 0.967    H 2352 0.966
  2352  H   0.996        C 2351 0.966
  2353  H   0.993        C 2351 0.967
  2354  C   3.986        C 2351 1.003    C 2357 0.984    H 2355 0.972    H 2356 0.971
  2355  H   0.992        C 2354 0.972
  2356  H   0.995        C 2354 0.971
  2357  C   3.954        N 2360 0.995    C 2354 0.984    H 2359 0.968    H 2358 0.961
  2358  H   0.992        C 2357 0.961
  2359  H   0.994        C 2357 0.968
  2360  N   3.456        C 2362 1.288    C 2357 0.995    H 2361 0.913    N 2366 0.102
  2361  H   0.952        N 2360 0.913
  2362  C   3.977        N 2366 1.348    N 2363 1.308    N 2360 1.288
  2363  N   3.382        C 2362 1.308    H 2364 0.917    H 2365 0.912    N 2366 0.109
  2364  H   0.938        N 2363 0.917
  2365  H   0.939        N 2363 0.912
  2366  N   3.412        C 2362 1.348    H 2367 0.916    H 2368 0.862    N 2363 0.109    N 2360 0.102
  2367  H   0.940        N 2366 0.916
  2368  H   0.937        N 2366 0.862
  2369  C   3.952        O 2370 1.570    N 2371 1.360    C 2349 0.945
  2370  O   1.907        C 2369 1.570    N 2371 0.196
  2371  N   3.488        C 2369 1.360    C 2373 0.949    H 2372 0.895    O 2370 0.196
  2372  H   0.945        N 2371 0.895
  2373  C   3.953        C 2375 0.966    H 2374 0.952    C 2385 0.949    N 2371 0.949
  2374  H   0.994        C 2373 0.952
  2375  C   3.983        C 2377 1.005    C 2381 1.000    C 2373 0.966    H 2376 0.963
  2376  H   0.996        C 2375 0.963
  2377  C   3.990        C 2375 1.005    H 2378 0.986    H 2379 0.982    H 2380 0.977
  2378  H   0.997        C 2377 0.986
  2379  H   0.997        C 2377 0.982
  2380  H   0.996        C 2377 0.977
  2381  C   3.986        C 2375 1.000    H 2383 0.987    H 2384 0.982    H 2382 0.982
  2382  H   0.997        C 2381 0.982
  2383  H   0.998        C 2381 0.987
  2384  H   0.997        C 2381 0.982
  2385  C   3.951        O 2386 1.647    N 2387 1.279    C 2373 0.949
  2386  O   1.965        C 2385 1.647    N 2387 0.199
  2387  N   3.452        C 2385 1.279    C 2389 0.985    H 2388 0.893    O 2386 0.199
  2388  H   0.952        N 2387 0.893
  2389  C   3.958        N 2387 0.985    C 2391 0.954    H 2390 0.950    C 2404 0.934
  2390  H   0.993        C 2389 0.950
  2391  C   3.981        C 2393 1.006    C 2397 0.995    H 2392 0.964    C 2389 0.954
  2392  H   0.996        C 2391 0.964
  2393  C   3.989        C 2391 1.006    H 2395 0.983    H 2394 0.982    H 2396 0.977
  2394  H   0.997        C 2393 0.982
  2395  H   0.997        C 2393 0.983
  2396  H   0.995        C 2393 0.977
  2397  C   3.990        C 2400 1.009    C 2391 0.995    H 2399 0.976    H 2398 0.975
  2398  H   0.997        C 2397 0.975
  2399  H   0.997        C 2397 0.976
  2400  C   3.992        C 2397 1.009    H 2402 0.987    H 2403 0.986    H 2401 0.986
  2401  H   0.999        C 2400 0.986
  2402  H   0.998        C 2400 0.987
  2403  H   0.998        C 2400 0.986
  2404  C   3.943        O 2405 1.616    N 2406 1.304    C 2389 0.934
  2405  O   1.950        C 2404 1.616    N 2406 0.193
  2406  N   3.465        C 2404 1.304    C 2408 0.979    H 2407 0.898    O 2405 0.193
  2407  H   0.950        N 2406 0.898
  2408  C   3.971        N 2406 0.979    C 2410 0.973    H 2409 0.950    C 2418 0.932
  2409  H   0.992        C 2408 0.950
  2410  C   3.960        C 2412 0.994    O 2416 0.987    C 2408 0.973    H 2411 0.954
  2411  H   0.997        C 2410 0.954
  2412  C   3.988        C 2410 0.994    H 2415 0.983    H 2414 0.983    H 2413 0.977
  2413  H   0.998        C 2412 0.977
  2414  H   0.996        C 2412 0.983
  2415  H   0.999        C 2412 0.983
  2416  O   1.936        C 2410 0.987    H 2417 0.880
  2417  H   0.893        O 2416 0.880
  2418  C   3.950        O 2419 1.641    N 2420 1.293    C 2408 0.932
  2419  O   1.982        C 2418 1.641    N 2420 0.198
  2420  N   3.460        C 2418 1.293    C 2422 0.975    H 2421 0.916    O 2419 0.198
  2421  H   0.956        N 2420 0.916
  2422  C   3.956        N 2420 0.975    H 2423 0.950    C 2424 0.938    C 2432 0.937
  2423  H   0.993        C 2422 0.950
  2424  C   3.955        O 2430 1.025    C 2426 0.984    H 2425 0.961    C 2422 0.938
  2425  H   1.000        C 2424 0.961
  2426  C   3.986        H 2428 0.984    H 2429 0.984    C 2424 0.984    H 2427 0.981
  2427  H   0.994        C 2426 0.981
  2428  H   0.996        C 2426 0.984
  2429  H   0.997        C 2426 0.984
  2430  O   1.995        C 2424 1.025    H 2431 0.861
  2431  H   0.897        O 2430 0.861
  2432  C   3.955        O 2433 1.644    N 2434 1.299    C 2422 0.937
  2433  O   1.956        C 2432 1.644    N 2434 0.194
  2434  N   3.458        C 2432 1.299    C 2436 0.955    H 2435 0.923    O 2433 0.194
  2435  H   0.961        N 2434 0.923
  2436  C   3.950        C 2438 0.977    N 2434 0.955    H 2437 0.941    C 2452 0.935
  2437  H   0.989        C 2436 0.941
  2438  C   3.982        C 2441 1.011    C 2436 0.977    H 2440 0.962    H 2439 0.948
  2439  H   0.993        C 2438 0.948
  2440  H   0.995        C 2438 0.962
  2441  C   3.982        C 2442 1.465    C 2450 1.336    C 2438 1.011    C 2446 0.120
  2442  C   3.985        C 2441 1.465    C 2444 1.405    H 2443 0.963
  2443  H   0.999        C 2442 0.963
  2444  C   3.985        C 2446 1.456    C 2442 1.405    H 2445 0.968    C 2450 0.121
  2445  H   0.996        C 2444 0.968
  2446  C   3.991        C 2444 1.456    C 2448 1.403    H 2447 0.969    C 2441 0.120
  2447  H   0.999        C 2446 0.969
  2448  C   3.990        C 2450 1.506    C 2446 1.403    H 2449 0.962
  2449  H   0.997        C 2448 0.962
  2450  C   3.989        C 2448 1.506    C 2441 1.336    H 2451 0.966    C 2444 0.121
  2451  H   0.998        C 2450 0.966
  2452  C   3.954        O 2453 1.560    N 2454 1.369    C 2436 0.935
  2453  O   1.915        C 2452 1.560    N 2454 0.192
  2454  N   3.506        C 2452 1.369    C 2456 0.945    H 2455 0.904    O 2453 0.192
  2455  H   0.951        N 2454 0.904
  2456  C   3.952        C 2458 0.991    H 2457 0.947    N 2454 0.945    C 2476 0.943
  2457  H   0.988        C 2456 0.947
  2458  C   3.985        C 2461 1.004    C 2456 0.991    H 2460 0.968    H 2459 0.968
  2459  H   0.993        C 2458 0.968
  2460  H   0.994        C 2458 0.968
  2461  C   3.985        C 2458 1.004    C 2464 0.999    H 2463 0.974    H 2462 0.960
  2462  H   0.990        C 2461 0.960
  2463  H   0.996        C 2461 0.974
  2464  C   3.938        C 2461 0.999    H 2466 0.963    H 2465 0.962    N 2467 0.959
  2465  H   0.992        C 2464 0.962
  2466  H   0.990        C 2464 0.963
  2467  N   3.452        C 2469 1.315    C 2464 0.959    H 2468 0.918    N 2473 0.105
  2468  H   0.953        N 2467 0.918
  2469  C   3.978        N 2473 1.333    N 2467 1.315    N 2470 1.300
  2470  N   3.381        C 2469 1.300    H 2472 0.919    H 2471 0.915    N 2473 0.102
  2471  H   0.937        N 2470 0.915
  2472  H   0.944        N 2470 0.919
  2473  N   3.402        C 2469 1.333    H 2475 0.916    H 2474 0.905    N 2467 0.105    N 2470 0.102
  2474  H   0.930        N 2473 0.905
  2475  H   0.941        N 2473 0.916
  2476  C   3.952        O 2477 1.617    N 2478 1.322    C 2456 0.943
  2477  O   1.939        C 2476 1.617    N 2478 0.203
  2478  N   3.478        C 2476 1.322    C 2480 0.966    H 2479 0.896    O 2477 0.203
  2479  H   0.946        N 2478 0.896
  2480  C   3.963        N 2478 0.966    H 2481 0.953    C 2482 0.949    C 2490 0.947
  2481  H   0.991        C 2480 0.953
  2482  C   3.957        O 2488 1.005    C 2484 0.990    H 2483 0.963    C 2480 0.949
  2483  H   0.998        C 2482 0.963
  2484  C   3.990        C 2482 0.990    H 2485 0.987    H 2487 0.982    H 2486 0.982
  2485  H   0.997        C 2484 0.987
  2486  H   0.997        C 2484 0.982
  2487  H   0.996        C 2484 0.982
  2488  O   1.957        C 2482 1.005    H 2489 0.843
  2489  H   0.891        O 2488 0.843
  2490  C   3.953        O 2491 1.618    N 2492 1.317    C 2480 0.947
  2491  O   1.916        C 2490 1.618    N 2492 0.190
  2492  N   3.464        C 2490 1.317    C 2494 0.966    H 2493 0.927    O 2491 0.190
  2493  H   0.959        N 2492 0.927
  2494  C   3.946        C 2497 0.968    N 2492 0.966    H 2496 0.948    H 2495 0.946
  2495  H   0.984        C 2494 0.946
  2496  H   0.987        C 2494 0.948
  2497  C   3.953        O 2498 1.646    N 2499 1.278    C 2494 0.968
  2498  O   1.970        C 2497 1.646    N 2499 0.196
  2499  N   3.456        C 2497 1.278    C 2501 0.982    H 2500 0.913    O 2498 0.196
  2500  H   0.958        N 2499 0.913
  2501  C   3.971        N 2499 0.982    C 2503 0.978    H 2502 0.947    C 2511 0.907
  2502  H   0.991        C 2501 0.947
  2503  C   3.951        C 2505 1.007    C 2501 0.978    O 2509 0.960    H 2504 0.956
  2504  H   0.998        C 2503 0.956
  2505  C   3.988        C 2503 1.007    H 2507 0.982    H 2508 0.978    H 2506 0.977
  2506  H   0.996        C 2505 0.977
  2507  H   0.996        C 2505 0.982
  2508  H   0.995        C 2505 0.978
  2509  O   1.946        C 2503 0.960    H 2510 0.871
  2510  H   0.891        O 2509 0.871
  2511  C   3.949        O 2512 1.691    N 2513 1.272    C 2501 0.907
  2512  O   2.015        C 2511 1.691    N 2513 0.204
  2513  N   3.440        C 2511 1.272    C 2515 0.966    H 2514 0.917    O 2512 0.204
  2514  H   0.951        N 2513 0.917
  2515  C   3.951        N 2513 0.966    C 2517 0.964    H 2516 0.934    C 2535 0.931
  2516  H   0.991        C 2515 0.934
  2517  C   3.974        C 2520 1.028    H 2519 0.966    C 2515 0.964    H 2518 0.947
  2518  H   0.993        C 2517 0.947
  2519  H   0.995        C 2517 0.966
  2520  C   3.969        C 2521 1.588    C 2534 1.168    C 2517 1.028
  2521  C   3.953        C 2520 1.588    N 2523 1.202    H 2522 0.964
  2522  H   0.995        C 2521 0.964
  2523  N   3.540        C 2521 1.202    C 2525 1.180    H 2524 0.927
  2524  H   0.954        N 2523 0.927
  2525  C   3.959        C 2526 1.338    C 2534 1.242    N 2523 1.180
  2526  C   3.976        C 2528 1.444    C 2525 1.338    H 2527 0.965    C 2532 0.128
  2527  H   0.995        C 2526 0.965
  2528  C   3.988        C 2526 1.444    C 2530 1.434    H 2529 0.969
  2529  H   0.997        C 2528 0.969
  2530  C   3.988        C 2528 1.434    C 2532 1.426    H 2531 0.969
  2531  H   0.998        C 2530 0.969
  2532  C   3.990        C 2530 1.426    C 2534 1.384    H 2533 0.968    C 2526 0.128
  2533  H   0.999        C 2532 0.968
  2534  C   3.984        C 2532 1.384    C 2525 1.242    C 2520 1.168
  2535  C   3.929        O 2536 1.592    N 2537 1.312    C 2515 0.931
  2536  O   1.983        C 2535 1.592    N 2537 0.190
  2537  N   3.467        C 2535 1.312    C 2539 0.966    H 2538 0.912    O 2536 0.190
  2538  H   0.957        N 2537 0.912
  2539  C   3.961        N 2537 0.966    C 2541 0.961    H 2540 0.961    C 2547 0.924
  2540  H   0.997        C 2539 0.961
  2541  C   3.984        H 2542 0.975    H 2543 0.966    C 2539 0.961    C 2544 0.935
  2542  H   0.998        C 2541 0.975
  2543  H   0.997        C 2541 0.966
  2544  C   3.939        O 2546 1.494    O 2545 1.493    C 2541 0.935
  2545  O   1.787        C 2544 1.493    O 2546 0.221
  2546  O   1.783        C 2544 1.494    O 2545 0.221
  2547  C   3.944        O 2548 1.636    N 2549 1.323    C 2539 0.924
  2548  O   1.947        C 2547 1.636    N 2549 0.195
  2549  N   3.454        C 2547 1.323    C 2551 0.939    H 2550 0.917    O 2548 0.195
  2550  H   0.955        N 2549 0.917
  2551  C   3.942        C 2553 1.002    H 2552 0.952    N 2549 0.939    C 2557 0.921
  2552  H   0.993        C 2551 0.952
  2553  C   3.980        C 2551 1.002    H 2555 0.980    H 2556 0.974    H 2554 0.969
  2554  H   0.993        C 2553 0.969
  2555  H   0.995        C 2553 0.980
  2556  H   0.995        C 2553 0.974
  2557  C   3.951        O 2558 1.612    N 2559 1.347    C 2551 0.921
  2558  O   1.934        C 2557 1.612    N 2559 0.201
  2559  N   3.482        C 2557 1.347    C 2561 0.950    H 2560 0.889    O 2558 0.201
  2560  H   0.952        N 2559 0.889
  2561  C   3.952        C 2578 0.971    H 2562 0.956    N 2559 0.950    C 2563 0.946
  2562  H   0.993        C 2561 0.956
  2563  C   3.979        C 2566 1.015    H 2565 0.967    H 2564 0.955    C 2561 0.946
  2564  H   0.995        C 2563 0.955
  2565  H   0.993        C 2563 0.967
  2566  C   3.983        C 2567 1.407    C 2576 1.397    C 2563 1.015
  2567  C   3.985        C 2569 1.465    C 2566 1.407    H 2568 0.966
  2568  H   0.997        C 2567 0.966
  2569  C   3.985        C 2567 1.465    C 2571 1.333    H 2570 0.963    C 2576 0.125
  2570  H   0.995        C 2569 0.963
  2571  C   3.945        C 2574 1.404    C 2569 1.333    O 2572 1.081
  2572  O   2.110        C 2571 1.081    H 2573 0.852
  2573  H   0.893        O 2572 0.852
  2574  C   3.988        C 2576 1.429    C 2571 1.404    H 2575 0.963
  2575  H   0.999        C 2574 0.963
  2576  C   3.987        C 2574 1.429    C 2566 1.397    H 2577 0.968    C 2569 0.125
  2577  H   0.999        C 2576 0.968
  2578  C   3.954        O 2579 1.547    N 2580 1.360    C 2561 0.971
  2579  O   1.859        C 2578 1.547    N 2580 0.203
  2580  N   3.498        C 2578 1.360    C 2582 0.954    H 2581 0.887    O 2579 0.203
  2581  H   0.948        N 2580 0.887
  2582  C   3.941        C 2584 0.982    H 2583 0.966    N 2580 0.954    C 2600 0.898
  2583  H   0.997        C 2582 0.966
  2584  C   3.985        C 2587 0.995    C 2582 0.982    H 2585 0.977    H 2586 0.971
  2585  H   0.998        C 2584 0.977
  2586  H   0.995        C 2584 0.971
  2587  C   3.988        C 2590 1.010    C 2584 0.995    H 2588 0.974    H 2589 0.972
  2588  H   0.998        C 2587 0.974
  2589  H   0.999        C 2587 0.972
  2590  C   3.981        C 2587 1.010    C 2593 1.006    H 2591 0.970    H 2592 0.963
  2591  H   0.993        C 2590 0.970
  2592  H   0.989        C 2590 0.963
  2593  C   3.895        C 2590 1.006    H 2595 0.965    H 2594 0.954    N 2596 0.949
  2594  H   0.977        C 2593 0.954
  2595  H   0.986        C 2593 0.965
  2596  N   3.658        C 2593 0.949    H 2599 0.899    H 2598 0.893    H 2597 0.892
  2597  H   0.911        N 2596 0.892
  2598  H   0.909        N 2596 0.893
  2599  H   0.926        N 2596 0.899
  2600  C   3.929        O 2601 1.539    O 2602 1.459    C 2582 0.898
  2601  O   1.835        C 2600 1.539    O 2602 0.221
  2602  O   1.757        C 2600 1.459    O 2601 0.221
  2603  O   2.101        C 2605 1.072    H 2604 0.847
  2604  H   0.893        O 2603 0.847
  2605  C   3.933        C 2614 1.399    C 2606 1.298    O 2603 1.072    C 2610 0.106
  2606  C   3.987        C 2608 1.547    C 2605 1.298    H 2607 0.958
  2607  H   0.998        C 2606 0.958
  2608  C   3.989        C 2606 1.547    C 2610 1.332    H 2609 0.967    C 2614 0.101
  2609  H   0.998        C 2608 0.967
  2610  C   3.988        C 2612 1.513    C 2608 1.332    H 2611 0.971    C 2605 0.106
  2611  H   0.998        C 2610 0.971
  2612  C   3.989        C 2610 1.513    C 2614 1.373    H 2613 0.957
  2613  H   0.997        C 2612 0.957
  2614  C   3.983        C 2605 1.399    C 2612 1.373    C 2615 1.008    C 2608 0.101
  2615  C   3.994        C 2614 1.008    H 2618 0.977    H 2616 0.974    H 2617 0.972
  2616  H   0.997        C 2615 0.974
  2617  H   0.997        C 2615 0.972
  2618  H   0.997        C 2615 0.977

molecular dipole:
                 x           y           z       tot (Debye)
 q only:      598.690     656.613     691.827
   full:      600.457     658.046     701.132    2881.448
molecular quadrupole (traceless):
                xx          xy          yy          xz          yz          zz
 q only:   -12081.591   67211.519    3666.948   73699.541   79728.784    8414.643
  q+dip:   -12749.792   67093.045    2892.456   74697.545   80857.739    9857.337
   full:   -12741.526   67089.509    2876.610   74698.796   80851.082    9864.917


           -------------------------------------------------
          | TOTAL ENERGY            -4108.348755269620 Eh   |
          | GRADIENT NORM               1.374145393367 Eh/α |
          | HOMO-LUMO GAP               1.505564520894 eV   |
           -------------------------------------------------

------------------------------------------------------------------------
 * finished run on 2020/05/28 at 18:57:55.182     
------------------------------------------------------------------------
 total:
 * wall-time:     0 d,  0 h,  7 min, 16.118 sec
 *  cpu-time:     0 d,  5 h, 24 min, 56.747 sec
 * ratio c/w:    44.705 speedup
 SCF:
 * wall-time:     0 d,  0 h,  6 min, 44.127 sec
 *  cpu-time:     0 d,  5 h, 12 min, 22.720 sec
 * ratio c/w:    46.378 speedup

