      -----------------------------------------------------------      
     |                   =====================                   |     
     |                           x T B                           |     
     |                   =====================                   |     
     |                         S. Grimme                         |     
     |          Mulliken Center for Theoretical Chemistry        |     
     |                    University of Bonn                     |     
      -----------------------------------------------------------      

   * xtb version 6.2.3 (d7bf61a) compiled by 'conda@06d140edd85e' on 2020-05-12

   xtb is free software: you can redistribute it and/or modify it under
   the terms of the GNU Lesser General Public License as published by
   the Free Software Foundation, either version 3 of the License, or
   (at your option) any later version.
   
   xtb is distributed in the hope that it will be useful,
   but WITHOUT ANY WARRANTY; without even the implied warranty of
   MERCHANTABILITY or FITNESS FOR A PARTICULAR PURPOSE.  See the
   GNU Lesser General Public License for more details.
   
   Cite this work as:
   * S. Grimme, C. Bannwarth, P. Shushkov, J. Chem. Theory Comput., 2017,
     13, 1989-2009. DOI: 10.1021/acs.jctc.7b00118
   * C. Bannwarth, S. Ehlert and S. Grimme., J. Chem. Theory Comput., 2019,
     15, 1652-1671. DOI: 10.1021/acs.jctc.8b01176
   * P. Pracht, E. Caldeweyher, S. Ehlert, S. Grimme, ChemRxiv, 2019, preprint.
     DOI: 10.26434/chemrxiv.8326202.v1
   
   for DFT-D4:
   * E. Caldeweyher, C. Bannwarth and S. Grimme, J. Chem. Phys., 2017,
     147, 034112. DOI: 10.1063/1.4993215
   * E. Caldeweyher, S. Ehlert, A. Hansen, H. Neugebauer, S. Spicher,
     C. Bannwarth and S. Grimme, J. Chem. Phys., 2019, 150, 154122.
     DOI: 10.1063/1.5090222
   
   for sTDA-xTB:
   * S. Grimme and C. Bannwarth, J. Chem. Phys., 2016, 145, 054103.
     DOI: 10.1063/1.4959605
   
   in the mass-spec context:
   * V. Asgeirsson, C. Bauer and S. Grimme, Chem. Sci., 2017, 8, 4879.
     DOI: 10.1039/c7sc00601b
   
   for metadynamics refer to:
   * S. Grimme, J. Chem. Theory Comput., 2019, 155, 2847-2862
     DOI: 10.1021/acs.jctc.9b00143
   
   with help from (in alphabetical order)
   C. Bannwarth, F. Bohle, G. Brandenburg, E. Caldeweyher, M. Checinski,
   S. Dohm, S. Ehlert, S. Ehrlich, F. März, H. Neugebauer, J. Pisarek,
   P. Pracht, P. Shushkov, and S. Spicher.
   
 * started run on 2020/05/25 at 13:01:58.989     

           -------------------------------------------------
          |                Calculation Setup                |
           -------------------------------------------------

          program call               : xtb host_21001.xyz --chrg +9 --uhf 0 --gbsa water
          hostname                   : gold51.cluster.local
          coordinate file            : host_21001.xyz
          omp threads                :                    64
          number of atoms            :                  2602
          number of electrons        :                  7192
          charge                     :                     9
          spin                       :                   0.0
          first test random number   :      0.28419112688823

########################################################################
[WARNING] Please study the warnings concerning your input carefully
-2- prog_main: XTBPATH is not set, using XTBHOME instead
-1- prog_main: XTBHOME is not set, using HOME instead
########################################################################
           ------------------------------------------------- 
          |                 G F N 2 - x T B                 |
          | Geometry, Frequencies, Noncovalent interactions |
          |            JCTC 2019 parametrisation            |
           ------------------------------------------------- 
             k(s)              :                1.8500
             k(p)              :                2.2300
             k(d)              :                2.2300
             k(f)              :                2.0000
             kEN (H0ij)        :               -2.0000
             D4 a1             :                0.5200
             D4 a2             :                5.0000
             D4 s6             :                1.0000
             D4 s8             :                2.7000
             D4 s9             :                5.0000
             alphaj            :                2.0000

  Z AO/shell   Hii/eV     exponent
  1     Wed Apr 25 08:07:45 CEST 2018   EN: 2.200 GM2: 0.406  GM3: 0.0800  RAES: 1.40
     1s    -10.707211    1.230000
  6     Wed Apr 25 08:07:45 CEST 2018   EN: 2.550 GM2: 0.538  GM3: 0.1500  RAES: 3.00
     2s    -13.970922    2.096432
     2p    -10.063292    1.800000
  7     Wed Apr 25 08:07:45 CEST 2018   EN: 3.040 GM2: 0.461  GM3:-0.0640  RAES: 1.90
     2s    -16.686243    2.339881
     2p    -12.523956    2.014332
  8     Wed Apr 25 08:07:45 CEST 2018   EN: 3.440 GM2: 0.452  GM3:-0.0517  RAES: 1.80
     2s    -20.229985    2.439742
     2p    -15.503117    2.137023
 16     Tue Apr 24 11:44:34 CEST 2018   EN: 2.580 GM2: 0.340  GM3:-0.0502  RAES: 3.10
     3s    -20.029654    1.981333
     3p    -11.377694    2.025643
     3d     -0.420282    1.702555

 Solvent             : water
 Using internal parameter file: .param_gbsa2_water
 Gsolv ref. state (COSMO-RS): gsolv [1 M gas/solution]
 temperature (mdtemp)       :    298.14999999999998     
 dielectric constant        :    80.200000000000003     
 rho                        :    1.0000000000000000     
 mass                       :    18.000000000000000     
 surface tension            :    15.568945408385856     
 probe radius               :   0.97531378999999996     
 Gshift (Eh)                :    1.8574431267947933E-003
 c1                         :    1.5524381700000001     
 soset                      :   0.13032636000000000     
 HB correction              :  T
           ------------------------------------------------- 
          |        Self-Consistent Charge Iterations        |
           ------------------------------------------------- 

          ...................................................
          :                      SETUP                      :
          :.................................................:
          :  # basis functions                6511          :
          :  # atomic orbitals                6505          :
          :  # shells                         3899          :
          :  # electrons                      7192          :
          :  max. iterations                   250          :
          :  Hamiltonian                  GFN2-xTB          :
          :  restarted?                      false          :
          :  GBSA solvation                   true          :
          :  PC potential                    false          :
          :  electronic temp.          300.0000000     K    :
          :  accuracy                    1.0000000          :
          :  -> integral cutoff          0.2500000E+02      :
          :  -> integral neglect         0.1000000E-07      :
          :  -> SCF convergence          0.1000000E-05 Eh   :
          :  -> wf. convergence          0.1000000E-03 e    :
          :  Broyden damping             0.4000000          :
          ...................................................

 iter      E             dE          RMSdq      gap      omega  full diag
   1  -4120.4243210 -0.412042E+04  0.427E+00    2.27       0.0  T
   2  -4132.7527769 -0.123285E+02  0.225E+00    2.49       1.0  T
   3  -4133.2301948 -0.477418E+00  0.119E+00    2.45       1.0  T
   4  -4133.3000626 -0.698678E-01  0.284E-01    2.11       1.0  T
   5  -4133.4008576 -0.100795E+00  0.140E-01    2.16       1.0  T
   6  -4133.4144656 -0.136080E-01  0.724E-02    2.20       1.0  T
   7  -4133.4168647 -0.239907E-02  0.377E-02    2.19       1.0  T
   8  -4133.4180286 -0.116395E-02  0.164E-02    2.16       1.0  T
   9  -4133.4181986 -0.169972E-03  0.101E-02    2.14       1.0  T
  10  -4133.4182823 -0.837416E-04  0.538E-03    2.12       1.0  T
  11  -4133.4183047 -0.223721E-04  0.286E-03    2.11       1.0  T
  12  -4133.4183128 -0.807310E-05  0.161E-03    2.11       1.2  T
  13  -4133.4183153 -0.253527E-05  0.883E-04    2.10       2.2  T
  14  -4133.4183160 -0.714629E-06  0.454E-04    2.10       4.3  T
  15  -4133.4183162 -0.183940E-06  0.233E-04    2.10       8.4  T

   *** convergence criteria satisfied after 15 iterations ***

         #    Occupation            Energy/Eh            Energy/eV
      -------------------------------------------------------------
         1        2.0000           -0.7636436             -20.7798
       ...           ...                  ...                  ...
      3590        2.0000           -0.3593584              -9.7786
      3591        2.0000           -0.3588331              -9.7643
      3592        2.0000           -0.3582278              -9.7479
      3593        2.0000           -0.3568529              -9.7105
      3594        2.0000           -0.3546302              -9.6500
      3595        2.0000           -0.3536037              -9.6220
      3596        2.0000           -0.3522113              -9.5842 (HOMO)
      3597                         -0.2750179              -7.4836 (LUMO)
      3598                         -0.2731914              -7.4339
      3599                         -0.2705511              -7.3621
      3600                         -0.2681675              -7.2972
      3601                         -0.2674303              -7.2771
       ...                                ...                  ...
      6505                          0.7819875              21.2790
      -------------------------------------------------------------
                  HL-Gap            0.0771934 Eh            2.1005 eV
             Fermi-level           -0.3136146 Eh           -8.5339 eV

 SCC (total)                   0 d,  0 h,  6 min, 44.958 sec
 SCC setup                      ...        0 min,  3.034 sec (  0.749%)
 Dispersion                     ...        0 min,  1.999 sec (  0.494%)
 integral evaluation            ...        0 min,  8.699 sec (  2.148%)
 zeroth order Hamiltonian       ...        0 min,  0.339 sec (  0.084%)
 iterations                     ...        6 min, 12.843 sec ( 92.070%)
 molecular gradient             ...        0 min, 17.527 sec (  4.328%)
 printout                       ...        0 min,  0.517 sec (  0.128%)

         :::::::::::::::::::::::::::::::::::::::::::::::::::::
         ::                     SUMMARY                     ::
         :::::::::::::::::::::::::::::::::::::::::::::::::::::
         :: total energy           -4085.255527623777 Eh    ::
         :: total w/o Gsasa/hb     -4084.856068694980 Eh    ::
         :: gradient norm              1.302548204889 Eh/a0 ::
         :: HOMO-LUMO gap              2.100539416174 eV    ::
         ::.................................................::
         :: SCC energy             -4133.483768883713 Eh    ::
         :: -> isotropic ES           14.221659917655 Eh    ::
         :: -> anisotropic ES         -0.744821075701 Eh    ::
         :: -> anisotropic XC          1.158393651331 Eh    ::
         :: -> dispersion             -3.887062389456 Eh    ::
         :: -> Gsolv                  -4.074609806930 Eh    ::
         ::    -> Gborn               -3.675150878133 Eh    ::
         ::    -> Gsasa               -0.067310125795 Eh    ::
         ::    -> Ghb                 -0.334006246128 Eh    ::
         ::    -> Gshift               0.001857443127 Eh    ::
         :: repulsion energy          47.695663682493 Eh    ::
         :: add. restraining           0.000000000000 Eh    ::
         :::::::::::::::::::::::::::::::::::::::::::::::::::::

           -------------------------------------------------
          |                Property Printout                |
           -------------------------------------------------

    * Orbital Energies and Occupations

         #    Occupation            Energy/Eh            Energy/eV
      -------------------------------------------------------------
         1        2.0000           -0.7636436             -20.7798
       ...           ...                  ...                  ...
      3584        2.0000           -0.3625655              -9.8659
      3585        2.0000           -0.3623553              -9.8602
      3586        2.0000           -0.3611566              -9.8276
      3587        2.0000           -0.3611474              -9.8273
      3588        2.0000           -0.3602674              -9.8034
      3589        2.0000           -0.3596112              -9.7855
      3590        2.0000           -0.3593584              -9.7786
      3591        2.0000           -0.3588331              -9.7643
      3592        2.0000           -0.3582278              -9.7479
      3593        2.0000           -0.3568529              -9.7105
      3594        2.0000           -0.3546302              -9.6500
      3595        2.0000           -0.3536037              -9.6220
      3596        2.0000           -0.3522113              -9.5842 (HOMO)
      3597                         -0.2750179              -7.4836 (LUMO)
      3598                         -0.2731914              -7.4339
      3599                         -0.2705511              -7.3621
      3600                         -0.2681675              -7.2972
      3601                         -0.2674303              -7.2771
      3602                         -0.2635204              -7.1708
      3603                         -0.2624669              -7.1421
      3604                         -0.2605063              -7.0887
      3605                         -0.2589026              -7.0451
      3606                         -0.2585165              -7.0346
      3607                         -0.2582985              -7.0287
       ...                                ...                  ...
      6505                          0.7819875              21.2790
      -------------------------------------------------------------
                  HL-Gap            0.0771934 Eh            2.1005 eV
             Fermi-level           -0.3136146 Eh           -8.5339 eV

     #   Z        covCN         q      C6AA      α(0)
     1   7 N      3.484    -0.138    23.969     7.271
     2   1 H      0.860     0.302     0.707     1.317
     3   1 H      0.860     0.284     0.763     1.368
     4   1 H      0.860     0.297     0.723     1.332
     5   6 C      3.774    -0.042    21.353     6.584
     6   1 H      0.925     0.126     1.566     1.957
     7   6 C      3.855    -0.097    22.314     6.718
     8   1 H      0.924     0.105     1.743     2.064
     9   1 H      0.925     0.084     1.936     2.176
    10   6 C      3.795    -0.017    20.882     6.507
    11   1 H      0.925     0.082     1.962     2.191
    12   1 H      0.925     0.066     2.126     2.280
    13  16 S      2.000    -0.224   150.636    20.657
    14   6 C      3.743    -0.052    21.588     6.629
    15   1 H      0.925     0.047     2.361     2.403
    16   1 H      0.925     0.051     2.302     2.373
    17   1 H      0.925     0.062     2.179     2.308
    18   6 C      2.741     0.266    22.515     7.769
    19   8 O      0.858    -0.401    21.700     6.246
    20   7 N      2.689    -0.161    24.477     7.348
    21   1 H      0.860     0.217     1.022     1.583
    22   6 C      3.788     0.016    20.325     6.421
    23   1 H      0.925     0.103     1.757     2.073
    24   6 C      3.802    -0.114    22.670     6.779
    25   1 H      0.925     0.076     2.020     2.223
    26   1 H      0.925     0.098     1.801     2.099
    27   6 C      2.737     0.275    22.352     7.741
    28   8 O      0.860    -0.519    24.200     6.596
    29   7 N      2.639    -0.261    26.774     7.685
    30   1 H      0.860     0.251     0.881     1.470
    31   1 H      0.860     0.253     0.871     1.462
    32   6 C      2.748     0.275    22.351     7.741
    33   8 O      0.862    -0.492    23.606     6.514
    34   7 N      2.682    -0.167    24.607     7.367
    35   1 H      0.860     0.213     1.043     1.600
    36   6 C      3.766    -0.007    20.741     6.491
    37   1 H      0.924     0.117     1.637     2.001
    38   6 C      3.846    -0.039    21.242     6.556
    39   1 H      0.925     0.083     1.952     2.185
    40   6 C      3.752    -0.134    23.131     6.859
    41   1 H      0.924     0.077     2.008     2.216
    42   1 H      0.924     0.036     2.509     2.477
    43   1 H      0.925     0.053     2.284     2.364
    44   6 C      3.803    -0.062    21.698     6.632
    45   1 H      0.924     0.044     2.402     2.424
    46   1 H      0.925     0.059     2.211     2.326
    47   6 C      3.760    -0.119    22.829     6.811
    48   1 H      0.924     0.029     2.597     2.520
    49   1 H      0.925     0.065     2.143     2.289
    50   1 H      0.924     0.029     2.603     2.523
    51   6 C      2.739     0.268    22.481     7.763
    52   8 O      0.857    -0.477    23.279     6.469
    53   7 N      2.677    -0.200    25.345     7.477
    54   1 H      0.860     0.212     1.046     1.602
    55   6 C      3.785     0.021    20.244     6.409
    56   1 H      0.925     0.087     1.906     2.159
    57   6 C      3.806    -0.073    21.899     6.662
    58   1 H      0.924     0.058     2.222     2.331
    59   1 H      0.925     0.078     1.998     2.211
    60   6 C      2.950     0.019    27.574     8.613
    61   6 C      2.919    -0.043    29.070     8.842
    62   1 H      0.926     0.039     2.466     2.456
    63   6 C      2.909    -0.037    28.909     8.816
    64   1 H      0.926     0.027     2.625     2.534
    65   6 C      2.905    -0.034    28.842     8.806
    66   1 H      0.926     0.038     2.470     2.458
    67   6 C      2.913    -0.042    29.034     8.836
    68   1 H      0.926     0.048     2.342     2.393
    69   6 C      2.922    -0.036    28.904     8.817
    70   1 H      0.926     0.044     2.394     2.420
    71   6 C      2.749     0.268    22.476     7.763
    72   8 O      0.859    -0.479    23.322     6.475
    73   7 N      2.688    -0.172    24.727     7.385
    74   1 H      0.860     0.210     1.059     1.612
    75   6 C      3.785     0.015    20.339     6.424
    76   1 H      0.925     0.089     1.891     2.150
    77   6 C      3.801    -0.059    21.629     6.621
    78   1 H      0.924     0.047     2.353     2.399
    79   1 H      0.925     0.067     2.114     2.274
    80   6 C      3.797    -0.093    22.279     6.721
    81   1 H      0.925     0.020     2.733     2.585
    82   1 H      0.924     0.011     2.878     2.653
    83   6 C      2.683     0.374    20.664     7.439
    84   8 O      0.857    -0.653    27.463     7.026
    85   8 O      0.857    -0.638    27.079     6.977
    86   6 C      2.746     0.259    22.639     7.791
    87   8 O      0.862    -0.490    23.553     6.507
    88   7 N      2.689    -0.184    24.997     7.426
    89   1 H      0.860     0.229     0.970     1.542
    90   6 C      3.781     0.014    20.357     6.427
    91   1 H      0.925     0.083     1.953     2.186
    92   6 C      3.802    -0.089    22.204     6.709
    93   1 H      0.924     0.065     2.142     2.288
    94   1 H      0.925     0.080     1.982     2.202
    95   6 C      3.788    -0.029    21.113     6.544
    96   1 H      0.925     0.048     2.339     2.392
    97   1 H      0.925     0.040     2.447     2.446
    98  16 S      1.952    -0.155   147.601    20.448
    99   6 C      3.745    -0.075    22.008     6.692
   100   1 H      0.925     0.067     2.114     2.274
   101   1 H      0.925     0.053     2.282     2.362
   102   1 H      0.925     0.081     1.967     2.193
   103   6 C      2.746     0.274    22.368     7.744
   104   8 O      0.859    -0.495    23.667     6.523
   105   7 N      2.685    -0.178    24.859     7.405
   106   1 H      0.860     0.226     0.981     1.552
   107   6 C      3.790     0.018    20.275     6.413
   108   1 H      0.925     0.074     2.038     2.232
   109   6 C      3.814    -0.076    21.949     6.668
   110   1 H      0.924     0.066     2.131     2.283
   111   1 H      0.924     0.062     2.172     2.304
   112   6 C      3.854    -0.015    20.805     6.487
   113   1 H      0.925     0.051     2.307     2.375
   114   6 C      3.763    -0.124    22.919     6.824
   115   1 H      0.925     0.034     2.529     2.487
   116   1 H      0.924     0.055     2.256     2.349
   117   1 H      0.925     0.049     2.338     2.391
   118   6 C      3.760    -0.129    23.034     6.842
   119   1 H      0.925     0.076     2.023     2.224
   120   1 H      0.925     0.034     2.537     2.491
   121   1 H      0.924     0.032     2.561     2.502
   122   6 C      2.764     0.268    22.471     7.763
   123   8 O      0.862    -0.518    24.181     6.593
   124   7 N      2.691    -0.147    24.180     7.303
   125   1 H      0.860     0.212     1.049     1.604
   126   6 C      3.793     0.006    20.484     6.445
   127   1 H      0.924     0.102     1.769     2.080
   128   6 C      3.795    -0.084    22.110     6.696
   129   1 H      0.925     0.091     1.873     2.140
   130   1 H      0.925     0.059     2.206     2.323
   131   6 C      3.799    -0.083    22.084     6.691
   132   1 H      0.924     0.057     2.236     2.339
   133   1 H      0.924     0.077     2.009     2.217
   134   6 C      3.725    -0.021    21.048     6.551
   135   1 H      0.925     0.088     1.898     2.155
   136   1 H      0.925     0.078     2.001     2.212
   137   7 N      2.686    -0.205    25.459     7.494
   138   1 H      0.860     0.229     0.971     1.543
   139   6 C      2.732     0.239    23.001     7.852
   140   7 N      2.714    -0.286    27.369     7.770
   141   1 H      0.860     0.269     0.813     1.412
   142   1 H      0.860     0.240     0.924     1.506
   143   7 N      2.719    -0.254    26.594     7.659
   144   1 H      0.860     0.252     0.875     1.466
   145   1 H      0.860     0.209     1.063     1.615
   146   6 C      2.760     0.259    22.647     7.793
   147   8 O      0.857    -0.511    24.034     6.573
   148   7 N      2.688    -0.155    24.357     7.330
   149   1 H      0.860     0.226     0.981     1.551
   150   6 C      3.796     0.019    20.263     6.410
   151   1 H      0.924     0.100     1.784     2.089
   152   6 C      3.837    -0.025    20.990     6.518
   153   1 H      0.925     0.051     2.307     2.375
   154   6 C      3.757    -0.119    22.829     6.812
   155   1 H      0.925     0.048     2.343     2.394
   156   1 H      0.925     0.048     2.344     2.394
   157   1 H      0.925     0.054     2.271     2.356
   158   6 C      3.790    -0.076    21.955     6.673
   159   1 H      0.924     0.050     2.321     2.382
   160   1 H      0.925     0.047     2.356     2.400
   161   6 C      3.738    -0.113    22.743     6.805
   162   1 H      0.924     0.040     2.453     2.449
   163   1 H      0.925     0.029     2.594     2.519
   164   1 H      0.925     0.042     2.429     2.437
   165   6 C      2.749     0.267    22.485     7.764
   166   8 O      0.858    -0.520    24.237     6.601
   167   7 N      2.681    -0.218    25.758     7.538
   168   1 H      0.860     0.223     0.996     1.563
   169   6 C      3.779     0.025    20.177     6.399
   170   1 H      0.925     0.092     1.860     2.133
   171   6 C      3.799    -0.103    22.459     6.748
   172   1 H      0.924     0.028     2.615     2.529
   173   1 H      0.925     0.063     2.170     2.304
   174   6 C      2.684     0.357    20.939     7.488
   175   8 O      0.857    -0.590    25.871     6.819
   176   8 O      0.858    -0.555    25.042     6.709
   177   6 C      2.739     0.270    22.429     7.754
   178   8 O      0.861    -0.463    22.971     6.426
   179   7 N      2.685    -0.201    25.360     7.479
   180   1 H      0.860     0.187     1.172     1.696
   181   6 C      3.784     0.032    20.057     6.379
   182   1 H      0.924     0.076     2.017     2.221
   183   6 C      3.814    -0.061    21.670     6.626
   184   1 H      0.924     0.068     2.113     2.273
   185   1 H      0.925     0.042     2.423     2.434
   186   6 C      3.800    -0.084    22.110     6.695
   187   1 H      0.925     0.024     2.681     2.560
   188   1 H      0.924     0.016     2.795     2.615
   189   6 C      2.687     0.354    20.987     7.497
   190   8 O      0.856    -0.621    26.644     6.920
   191   8 O      0.856    -0.677    28.092     7.106
   192   6 C      2.747     0.270    22.440     7.757
   193   8 O      0.858    -0.495    23.678     6.524
   194   7 N      2.684    -0.149    24.215     7.309
   195   1 H      0.860     0.224     0.990     1.559
   196   6 C      3.736    -0.039    21.360     6.596
   197   1 H      0.924     0.098     1.804     2.101
   198   1 H      0.925     0.116     1.645     2.006
   199   6 C      2.741     0.256    22.698     7.801
   200   8 O      0.857    -0.490    23.566     6.509
   201   7 N      2.680    -0.185    25.001     7.426
   202   1 H      0.860     0.206     1.078     1.626
   203   6 C      3.774     0.008    20.475     6.448
   204   1 H      0.925     0.071     2.071     2.251
   205   6 C      3.802    -0.091    22.240     6.714
   206   1 H      0.925     0.068     2.109     2.271
   207   1 H      0.925     0.070     2.084     2.257
   208   6 C      3.847    -0.015    20.815     6.490
   209   1 H      0.925     0.042     2.428     2.437
   210   6 C      3.765    -0.131    23.054     6.844
   211   1 H      0.924     0.053     2.284     2.364
   212   1 H      0.925     0.020     2.740     2.588
   213   1 H      0.925     0.053     2.277     2.360
   214   6 C      3.766    -0.141    23.262     6.874
   215   1 H      0.924     0.066     2.135     2.285
   216   1 H      0.925     0.055     2.258     2.350
   217   1 H      0.925     0.052     2.290     2.367
   218   6 C      2.745     0.274    22.369     7.744
   219   8 O      0.862    -0.481    23.361     6.480
   220   7 N      2.695    -0.158    24.408     7.338
   221   1 H      0.860     0.209     1.063     1.615
   222   6 C      3.789     0.011    20.412     6.435
   223   1 H      0.924     0.089     1.893     2.152
   224   6 C      3.802    -0.087    22.151     6.701
   225   1 H      0.924     0.091     1.868     2.137
   226   1 H      0.924     0.056     2.251     2.346
   227   6 C      3.803    -0.093    22.276     6.719
   228   1 H      0.925     0.097     1.815     2.107
   229   1 H      0.925     0.081     1.970     2.195
   230   6 C      3.740    -0.013    20.894     6.522
   231   1 H      0.925     0.053     2.280     2.361
   232   1 H      0.925     0.068     2.104     2.268
   233   7 N      2.696    -0.166    24.587     7.364
   234   1 H      0.860     0.244     0.906     1.491
   235   6 C      2.732     0.232    23.138     7.875
   236   7 N      2.649    -0.230    26.027     7.577
   237   1 H      0.860     0.227     0.979     1.550
   238   1 H      0.860     0.206     1.075     1.624
   239   7 N      2.660    -0.260    26.756     7.682
   240   1 H      0.860     0.250     0.883     1.472
   241   1 H      0.860     0.279     0.781     1.384
   242   6 C      2.757     0.274    22.360     7.743
   243   8 O      0.858    -0.449    22.689     6.386
   244   7 N      2.683    -0.193    25.199     7.455
   245   1 H      0.860     0.209     1.063     1.615
   246   6 C      3.774    -0.002    20.653     6.476
   247   1 H      0.925     0.088     1.901     2.156
   248   6 C      3.783    -0.090    22.231     6.716
   249   1 H      0.924     0.069     2.096     2.264
   250   1 H      0.924     0.052     2.297     2.370
   251   6 C      3.837    -0.015    20.820     6.492
   252   1 H      0.925     0.049     2.329     2.387
   253   6 C      3.769    -0.127    22.965     6.829
   254   1 H      0.924     0.035     2.513     2.479
   255   1 H      0.925     0.052     2.298     2.370
   256   1 H      0.924     0.052     2.300     2.372
   257   6 C      3.776    -0.116    22.752     6.796
   258   1 H      0.924     0.034     2.528     2.487
   259   1 H      0.925     0.034     2.526     2.486
   260   1 H      0.924     0.058     2.219     2.330
   261   6 C      2.739     0.275    22.343     7.739
   262   8 O      0.867    -0.476    23.257     6.466
   263   7 N      2.690    -0.158    24.415     7.339
   264   1 H      0.860     0.197     1.121     1.658
   265   6 C      3.786     0.007    20.484     6.447
   266   1 H      0.925     0.087     1.904     2.158
   267   6 C      3.807    -0.095    22.309     6.724
   268   1 H      0.924     0.091     1.869     2.138
   269   1 H      0.925     0.079     1.992     2.207
   270   6 C      3.808    -0.080    22.025     6.681
   271   1 H      0.925     0.060     2.198     2.319
   272   1 H      0.925     0.061     2.182     2.310
   273   6 C      3.810    -0.094    22.286     6.720
   274   1 H      0.925     0.073     2.054     2.241
   275   1 H      0.925     0.072     2.060     2.245
   276   6 C      3.737    -0.062    21.778     6.660
   277   1 H      0.925     0.123     1.593     1.974
   278   1 H      0.925     0.122     1.595     1.975
   279   7 N      3.490    -0.149    24.210     7.308
   280   1 H      0.860     0.311     0.682     1.294
   281   1 H      0.860     0.294     0.733     1.341
   282   1 H      0.860     0.288     0.751     1.357
   283   6 C      2.753     0.262    22.578     7.781
   284   8 O      0.860    -0.532    24.499     6.636
   285   7 N      2.685    -0.158    24.427     7.340
   286   1 H      0.860     0.239     0.928     1.509
   287   6 C      3.789     0.008    20.453     6.441
   288   1 H      0.925     0.068     2.110     2.271
   289   6 C      3.843    -0.038    21.221     6.553
   290   1 H      0.924     0.065     2.138     2.287
   291   6 C      3.749    -0.138    23.218     6.872
   292   1 H      0.925     0.073     2.049     2.238
   293   1 H      0.925     0.068     2.109     2.271
   294   1 H      0.925     0.059     2.214     2.327
   295   6 C      3.796    -0.067    21.787     6.647
   296   1 H      0.925     0.024     2.670     2.556
   297   1 H      0.924     0.025     2.661     2.551
   298   6 C      3.750    -0.125    22.971     6.835
   299   1 H      0.925     0.037     2.488     2.467
   300   1 H      0.925     0.069     2.101     2.267
   301   1 H      0.924     0.045     2.379     2.412
   302   6 C      2.754     0.270    22.448     7.758
   303   8 O      0.858    -0.502    23.823     6.544
   304   7 N      2.693    -0.137    23.970     7.271
   305   1 H      0.860     0.230     0.964     1.538
   306   6 C      3.796     0.016    20.313     6.418
   307   1 H      0.925     0.108     1.712     2.046
   308   6 C      3.801    -0.099    22.384     6.736
   309   1 H      0.925     0.101     1.774     2.083
   310   1 H      0.924     0.078     1.996     2.209
   311   6 C      2.955    -0.012    28.317     8.728
   312   6 C      2.898    -0.050    29.242     8.866
   313   1 H      0.926     0.057     2.234     2.337
   314   6 C      2.916    -0.081    30.033     8.987
   315   1 H      0.926     0.018     2.770     2.603
   316   6 C      2.832     0.146    24.821     8.164
   317   8 O      1.662    -0.413    21.110     6.203
   318   1 H      0.806     0.314     0.681     1.296
   319   6 C      2.912    -0.065    29.621     8.924
   320   1 H      0.926     0.029     2.595     2.519
   321   6 C      2.907    -0.042    29.042     8.837
   322   1 H      0.926     0.082     1.956     2.187
   323   6 C      2.748     0.256    22.690     7.800
   324   8 O      0.856    -0.493    23.636     6.518
   325   7 N      2.683    -0.159    24.441     7.342
   326   1 H      0.860     0.222     0.998     1.565
   327   6 C      3.791     0.021    20.224     6.404
   328   1 H      0.925     0.069     2.093     2.262
   329   6 C      3.798    -0.089    22.209     6.710
   330   1 H      0.925     0.076     2.026     2.226
   331   1 H      0.924     0.085     1.926     2.170
   332   6 C      3.797    -0.076    21.951     6.671
   333   1 H      0.924     0.053     2.285     2.364
   334   1 H      0.924     0.037     2.491     2.468
   335   6 C      3.797    -0.097    22.364     6.734
   336   1 H      0.924     0.086     1.921     2.168
   337   1 H      0.925     0.095     1.830     2.115
   338   6 C      3.729    -0.056    21.681     6.647
   339   1 H      0.924     0.123     1.587     1.970
   340   1 H      0.925     0.103     1.761     2.075
   341   7 N      3.483    -0.159    24.437     7.342
   342   1 H      0.860     0.302     0.707     1.317
   343   1 H      0.860     0.309     0.688     1.299
   344   1 H      0.860     0.303     0.705     1.315
   345   6 C      2.762     0.260    22.615     7.788
   346   8 O      0.857    -0.520    24.232     6.600
   347   7 N      2.689    -0.165    24.566     7.361
   348   1 H      0.860     0.227     0.976     1.548
   349   6 C      3.792     0.036    19.971     6.364
   350   1 H      0.924     0.067     2.120     2.277
   351   6 C      3.796    -0.106    22.520     6.757
   352   1 H      0.924     0.027     2.624     2.533
   353   1 H      0.925     0.052     2.297     2.370
   354   6 C      2.679     0.369    20.750     7.454
   355   8 O      0.856    -0.663    27.717     7.058
   356   8 O      0.856    -0.604    26.227     6.866
   357   6 C      2.740     0.271    22.416     7.752
   358   8 O      0.869    -0.475    23.222     6.461
   359   7 N      2.693    -0.184    24.995     7.425
   360   1 H      0.860     0.200     1.108     1.649
   361   6 C      3.789     0.011    20.399     6.432
   362   1 H      0.925     0.088     1.899     2.155
   363   6 C      3.745     0.124    18.631     6.157
   364   1 H      0.925     0.031     2.569     2.506
   365   6 C      3.751    -0.139    23.245     6.876
   366   1 H      0.925     0.070     2.087     2.259
   367   1 H      0.924     0.064     2.158     2.297
   368   1 H      0.925     0.055     2.259     2.350
   369   8 O      1.661    -0.456    21.961     6.326
   370   1 H      0.806     0.322     0.657     1.273
   371   6 C      2.761     0.274    22.370     7.745
   372   8 O      0.862    -0.441    22.522     6.363
   373   7 N      2.692    -0.203    25.424     7.489
   374   1 H      0.860     0.180     1.216     1.728
   375   6 C      3.785     0.031    20.071     6.381
   376   1 H      0.925     0.075     2.032     2.229
   377   6 C      3.800    -0.056    21.584     6.615
   378   1 H      0.925     0.035     2.523     2.484
   379   1 H      0.925     0.056     2.250     2.346
   380   6 C      3.793    -0.100    22.407     6.741
   381   1 H      0.924     0.050     2.315     2.380
   382   1 H      0.924     0.040     2.450     2.448
   383   6 C      2.680     0.352    21.019     7.502
   384   8 O      0.856    -0.646    27.271     7.002
   385   8 O      0.856    -0.601    26.146     6.856
   386   6 C      2.745     0.265    22.537     7.773
   387   8 O      0.860    -0.478    23.292     6.471
   388   7 N      2.683    -0.172    24.721     7.384
   389   1 H      0.860     0.197     1.122     1.659
   390   6 C      3.734    -0.035    21.286     6.585
   391   1 H      0.925     0.109     1.709     2.044
   392   1 H      0.925     0.099     1.790     2.092
   393   6 C      2.741     0.266    22.515     7.769
   394   8 O      0.859    -0.453    22.772     6.398
   395   7 N      2.698    -0.159    24.449     7.344
   396   1 H      0.860     0.179     1.220     1.730
   397   6 C      3.787     0.025    20.174     6.397
   398   1 H      0.925     0.089     1.890     2.150
   399   6 C      3.827    -0.073    21.875     6.655
   400   1 H      0.924     0.072     2.061     2.245
   401   1 H      0.925     0.039     2.457     2.451
   402   6 C      2.957    -0.006    28.181     8.707
   403   6 C      2.900    -0.050    29.231     8.865
   404   1 H      0.926     0.034     2.534     2.489
   405   6 C      2.899    -0.067    29.669     8.931
   406   1 H      0.926     0.059     2.210     2.325
   407   6 C      2.827     0.144    24.850     8.169
   408   8 O      1.660    -0.419    21.215     6.218
   409   1 H      0.806     0.354     0.579     1.195
   410   6 C      2.903    -0.068    29.685     8.934
   411   1 H      0.926     0.052     2.292     2.367
   412   6 C      2.915    -0.040    28.990     8.829
   413   1 H      0.926     0.047     2.353     2.399
   414   6 C      2.748     0.267    22.486     7.765
   415   8 O      0.858    -0.499    23.760     6.535
   416   7 N      2.680    -0.162    24.514     7.353
   417   1 H      0.860     0.217     1.022     1.584
   418   6 C      3.798     0.016    20.306     6.416
   419   1 H      0.924     0.083     1.950     2.183
   420   6 C      3.812    -0.081    22.037     6.682
   421   1 H      0.924     0.078     2.002     2.212
   422   1 H      0.925     0.060     2.202     2.321
   423   6 C      2.960    -0.004    28.119     8.698
   424   6 C      2.916    -0.047    29.159     8.855
   425   1 H      0.926     0.034     2.534     2.489
   426   6 C      2.906    -0.084    30.091     8.995
   427   1 H      0.926     0.044     2.390     2.418
   428   6 C      2.830     0.147    24.796     8.160
   429   8 O      1.660    -0.400    20.857     6.165
   430   1 H      0.806     0.348     0.592     1.209
   431   6 C      2.909    -0.066    29.631     8.926
   432   1 H      0.926     0.070     2.086     2.258
   433   6 C      2.928    -0.043    29.074     8.843
   434   1 H      0.926     0.047     2.362     2.404
   435   6 C      2.749     0.271    22.414     7.752
   436   8 O      0.859    -0.493    23.619     6.516
   437   7 N      2.694    -0.171    24.690     7.380
   438   1 H      0.860     0.244     0.906     1.491
   439   6 C      3.790     0.009    20.438     6.438
   440   1 H      0.924     0.071     2.073     2.252
   441   6 C      3.726     0.130    18.557     6.151
   442   1 H      0.925     0.026     2.637     2.540
   443   6 C      3.759    -0.101    22.481     6.760
   444   1 H      0.925     0.043     2.409     2.427
   445   1 H      0.925     0.035     2.513     2.479
   446   1 H      0.924     0.045     2.381     2.413
   447   8 O      1.661    -0.478    22.427     6.393
   448   1 H      0.805     0.313     0.684     1.299
   449   6 C      2.753     0.253    22.754     7.811
   450   8 O      0.860    -0.474    23.209     6.459
   451   7 N      2.689    -0.149    24.222     7.310
   452   1 H      0.860     0.201     1.102     1.644
   453   6 C      3.755    -0.003    20.687     6.485
   454   1 H      0.925     0.093     1.848     2.126
   455   6 C      3.851    -0.030    21.078     6.530
   456   1 H      0.925     0.073     2.053     2.241
   457   6 C      3.758    -0.133    23.111     6.854
   458   1 H      0.925     0.044     2.398     2.422
   459   1 H      0.924     0.077     2.014     2.220
   460   1 H      0.925     0.037     2.487     2.466
   461   6 C      3.812    -0.068    21.794     6.645
   462   1 H      0.924     0.043     2.410     2.428
   463   1 H      0.924     0.047     2.352     2.399
   464   6 C      3.759    -0.120    22.850     6.815
   465   1 H      0.925     0.057     2.230     2.336
   466   1 H      0.925     0.044     2.392     2.418
   467   1 H      0.924     0.051     2.311     2.377
   468   6 C      2.723     0.274    22.368     7.742
   469   8 O      0.857    -0.456    22.830     6.406
   470   7 N      2.681    -0.175    24.792     7.395
   471   1 H      0.860     0.240     0.923     1.505
   472   6 C      3.737    -0.034    21.266     6.581
   473   1 H      0.925     0.072     2.068     2.249
   474   1 H      0.925     0.117     1.635     2.000
   475   6 C      2.750     0.259    22.631     7.790
   476   8 O      0.858    -0.500    23.782     6.538
   477   7 N      2.688    -0.151    24.278     7.318
   478   1 H      0.860     0.201     1.102     1.644
   479   6 C      3.788     0.010    20.428     6.437
   480   1 H      0.924     0.092     1.858     2.131
   481   6 C      3.848    -0.025    20.983     6.516
   482   1 H      0.925     0.039     2.469     2.457
   483   6 C      3.752    -0.114    22.746     6.801
   484   1 H      0.924     0.059     2.209     2.324
   485   1 H      0.925     0.055     2.259     2.351
   486   1 H      0.924     0.028     2.617     2.530
   487   6 C      3.800    -0.078    21.992     6.677
   488   1 H      0.924     0.053     2.281     2.362
   489   1 H      0.925     0.046     2.366     2.405
   490   6 C      3.748    -0.123    22.918     6.828
   491   1 H      0.924     0.051     2.303     2.373
   492   1 H      0.924     0.046     2.368     2.407
   493   1 H      0.925     0.062     2.171     2.304
   494   6 C      2.743     0.266    22.508     7.768
   495   8 O      0.858    -0.467    23.057     6.438
   496   7 N      2.682    -0.182    24.951     7.419
   497   1 H      0.860     0.206     1.076     1.625
   498   6 C      3.734    -0.010    20.839     6.515
   499   1 H      0.924     0.076     2.023     2.224
   500   1 H      0.925     0.079     1.987     2.204
   501   6 C      2.742     0.277    22.318     7.735
   502   8 O      0.860    -0.503    23.846     6.547
   503   7 N      2.684    -0.175    24.791     7.395
   504   1 H      0.860     0.232     0.958     1.533
   505   6 C      3.787     0.038    19.953     6.362
   506   1 H      0.924     0.067     2.124     2.279
   507   6 C      3.806    -0.087    22.160     6.701
   508   1 H      0.925     0.117     1.635     2.000
   509   1 H      0.924     0.094     1.840     2.121
   510   6 C      3.121     0.045    26.822     8.482
   511   7 N      2.796    -0.030    21.815     6.937
   512   1 H      0.860     0.257     0.858     1.451
   513   6 C      3.019     0.072    26.360     8.422
   514   1 H      0.926     0.145     1.429     1.869
   515   7 N      2.852    -0.009    21.434     6.876
   516   1 H      0.860     0.261     0.843     1.438
   517   6 C      2.981    -0.013    28.341     8.733
   518   1 H      0.926     0.140     1.464     1.892
   519   6 C      2.755     0.260    22.619     7.788
   520   8 O      0.860    -0.455    22.811     6.403
   521   7 N      2.698    -0.181    24.921     7.414
   522   1 H      0.860     0.191     1.153     1.682
   523   6 C      3.791     0.031    20.067     6.380
   524   1 H      0.924     0.055     2.262     2.352
   525   6 C      3.813    -0.074    21.912     6.663
   526   1 H      0.924     0.069     2.099     2.266
   527   1 H      0.925     0.048     2.343     2.394
   528   6 C      3.844    -0.016    20.834     6.493
   529   1 H      0.925     0.035     2.521     2.483
   530   6 C      3.758    -0.136    23.163     6.862
   531   1 H      0.925     0.032     2.565     2.505
   532   1 H      0.924     0.062     2.181     2.309
   533   1 H      0.925     0.069     2.093     2.263
   534   6 C      3.752    -0.120    22.856     6.818
   535   1 H      0.924     0.056     2.250     2.346
   536   1 H      0.924     0.017     2.787     2.611
   537   1 H      0.925     0.048     2.347     2.396
   538   6 C      2.785     0.268    22.476     7.766
   539   8 O      0.859    -0.505    23.905     6.555
   540   7 N      2.694    -0.168    24.635     7.372
   541   1 H      0.860     0.231     0.962     1.537
   542   6 C      3.824     0.025    20.141     6.386
   543   1 H      0.924     0.087     1.913     2.163
   544   6 C      3.813    -0.084    22.099     6.691
   545   1 H      0.924     0.051     2.304     2.374
   546   1 H      0.924     0.061     2.193     2.316
   547   6 C      3.848    -0.022    20.938     6.509
   548   1 H      0.924     0.046     2.372     2.409
   549   6 C      3.773    -0.128    22.987     6.832
   550   1 H      0.924     0.064     2.148     2.292
   551   1 H      0.925     0.036     2.505     2.475
   552   1 H      0.925     0.062     2.171     2.304
   553   6 C      3.765    -0.129    23.009     6.837
   554   1 H      0.925     0.058     2.219     2.329
   555   1 H      0.924     0.018     2.760     2.598
   556   1 H      0.925     0.054     2.265     2.354
   557   6 C      2.748     0.266    22.504     7.768
   558   8 O      0.859    -0.488    23.515     6.502
   559   7 N      2.682    -0.174    24.774     7.392
   560   1 H      0.860     0.215     1.035     1.593
   561   6 C      3.785     0.020    20.256     6.411
   562   1 H      0.924     0.079     1.991     2.206
   563   6 C      3.728     0.116    18.777     6.186
   564   1 H      0.924     0.029     2.606     2.525
   565   6 C      3.753    -0.123    22.910     6.825
   566   1 H      0.924     0.053     2.282     2.362
   567   1 H      0.924     0.069     2.099     2.265
   568   1 H      0.925     0.041     2.439     2.442
   569   8 O      1.656    -0.478    22.426     6.393
   570   1 H      0.806     0.343     0.605     1.222
   571   6 C      2.742     0.269    22.453     7.758
   572   8 O      0.858    -0.456    22.833     6.407
   573   7 N      2.679    -0.192    25.173     7.452
   574   1 H      0.860     0.206     1.076     1.625
   575   6 C      3.788     0.012    20.395     6.432
   576   1 H      0.925     0.099     1.798     2.097
   577   6 C      3.808    -0.075    21.919     6.665
   578   1 H      0.924     0.079     1.990     2.206
   579   1 H      0.925     0.064     2.158     2.297
   580   6 C      3.807    -0.091    22.226     6.711
   581   1 H      0.925     0.063     2.164     2.301
   582   1 H      0.925     0.063     2.165     2.301
   583   6 C      3.802    -0.102    22.441     6.745
   584   1 H      0.925     0.083     1.949     2.183
   585   1 H      0.924     0.090     1.881     2.145
   586   6 C      3.735    -0.064    21.825     6.667
   587   1 H      0.925     0.112     1.682     2.028
   588   1 H      0.924     0.132     1.523     1.930
   589   7 N      3.488    -0.136    23.939     7.267
   590   1 H      0.860     0.294     0.731     1.339
   591   1 H      0.860     0.308     0.691     1.302
   592   1 H      0.860     0.283     0.767     1.372
   593   6 C      2.767     0.280    22.258     7.727
   594   8 O      0.868    -0.507    23.943     6.561
   595   7 N      2.702    -0.156    24.372     7.332
   596   1 H      0.860     0.215     1.031     1.591
   597   6 C      3.803     0.029    20.083     6.380
   598   1 H      0.925     0.075     2.034     2.230
   599   6 C      3.707     0.073    19.492     6.311
   600   1 H      0.925     0.040     2.445     2.445
   601   1 H      0.925     0.047     2.356     2.400
   602   8 O      1.658    -0.489    22.658     6.426
   603   1 H      0.806     0.355     0.576     1.192
   604   6 C      2.762     0.248    22.832     7.825
   605   8 O      0.858    -0.491    23.590     6.512
   606   7 N      2.732    -0.119    23.591     7.214
   607   6 C      3.732    -0.025    21.109     6.558
   608   1 H      0.925     0.075     2.029     2.228
   609   1 H      0.925     0.075     2.032     2.229
   610   6 C      3.816    -0.076    21.934     6.666
   611   1 H      0.925     0.061     2.191     2.315
   612   1 H      0.925     0.068     2.103     2.268
   613   6 C      3.813    -0.072    21.865     6.656
   614   1 H      0.924     0.084     1.936     2.176
   615   1 H      0.925     0.077     2.008     2.216
   616   6 C      3.781     0.019    20.274     6.414
   617   1 H      0.925     0.090     1.876     2.142
   618   6 C      2.741     0.264    22.538     7.773
   619   8 O      0.859    -0.478    23.304     6.472
   620   7 N      2.681    -0.157    24.400     7.336
   621   1 H      0.860     0.200     1.103     1.646
   622   6 C      3.800     0.007    20.458     6.440
   623   1 H      0.925     0.097     1.811     2.104
   624   6 C      3.680     0.066    19.687     6.355
   625   1 H      0.925     0.042     2.424     2.435
   626   1 H      0.924     0.061     2.190     2.314
   627   8 O      1.652    -0.476    22.390     6.388
   628   1 H      0.805     0.339     0.613     1.230
   629   6 C      2.769     0.276    22.327     7.738
   630   8 O      0.860    -0.493    23.623     6.517
   631   7 N      2.702    -0.168    24.634     7.371
   632   1 H      0.860     0.222     1.001     1.567
   633   6 C      3.804     0.005    20.500     6.446
   634   1 H      0.925     0.095     1.829     2.115
   635   6 C      3.810    -0.088    22.165     6.702
   636   1 H      0.925     0.061     2.186     2.312
   637   1 H      0.925     0.073     2.048     2.238
   638   6 C      3.854    -0.017    20.835     6.492
   639   1 H      0.924     0.049     2.336     2.390
   640   6 C      3.762    -0.141    23.259     6.875
   641   1 H      0.925     0.074     2.046     2.237
   642   1 H      0.924     0.038     2.470     2.458
   643   1 H      0.924     0.047     2.363     2.404
   644   6 C      3.769    -0.133    23.093     6.848
   645   1 H      0.925     0.046     2.371     2.408
   646   1 H      0.925     0.047     2.359     2.402
   647   1 H      0.924     0.065     2.137     2.286
   648   6 C      2.758     0.278    22.296     7.732
   649   8 O      0.862    -0.466    23.040     6.436
   650   7 N      2.680    -0.183    24.970     7.422
   651   1 H      0.860     0.217     1.025     1.586
   652   6 C      3.778     0.010    20.441     6.441
   653   1 H      0.924     0.113     1.670     2.021
   654   6 C      3.803    -0.119    22.775     6.794
   655   1 H      0.925     0.090     1.879     2.143
   656   1 H      0.925     0.099     1.799     2.097
   657   6 C      2.742     0.289    22.104     7.698
   658   8 O      0.869    -0.507    23.925     6.558
   659   7 N      2.645    -0.299    27.702     7.817
   660   1 H      0.860     0.236     0.940     1.519
   661   1 H      0.860     0.239     0.926     1.508
   662   6 C      2.746     0.278    22.288     7.730
   663   8 O      0.863    -0.501    23.805     6.542
   664   7 N      2.700    -0.160    24.450     7.344
   665   1 H      0.860     0.211     1.053     1.608
   666   6 C      3.795     0.023    20.189     6.398
   667   1 H      0.925     0.086     1.916     2.165
   668   6 C      3.765    -0.132    23.075     6.847
   669   1 H      0.924     0.066     2.128     2.281
   670   1 H      0.924     0.077     2.015     2.220
   671   1 H      0.925     0.062     2.174     2.306
   672   6 C      2.760     0.269    22.458     7.761
   673   8 O      0.863    -0.535    24.564     6.645
   674   7 N      2.695    -0.161    24.491     7.350
   675   1 H      0.860     0.237     0.937     1.517
   676   6 C      3.798     0.021    20.226     6.403
   677   1 H      0.924     0.067     2.113     2.273
   678   6 C      3.753    -0.133    23.118     6.856
   679   1 H      0.925     0.076     2.019     2.222
   680   1 H      0.925     0.088     1.895     2.153
   681   1 H      0.924     0.064     2.155     2.295
   682   6 C      2.752     0.261    22.608     7.786
   683   8 O      0.859    -0.502    23.821     6.544
   684   7 N      2.674    -0.184    24.985     7.424
   685   1 H      0.860     0.222     1.002     1.568
   686   6 C      3.775    -0.005    20.688     6.481
   687   1 H      0.924     0.110     1.696     2.037
   688   6 C      3.792    -0.092    22.261     6.719
   689   1 H      0.924     0.076     2.021     2.223
   690   1 H      0.925     0.092     1.863     2.134
   691   6 C      3.807    -0.094    22.279     6.719
   692   1 H      0.925     0.092     1.857     2.131
   693   1 H      0.925     0.068     2.112     2.273
   694   6 C      3.813    -0.113    22.651     6.774
   695   1 H      0.925     0.089     1.893     2.152
   696   1 H      0.925     0.100     1.787     2.090
   697   6 C      3.736    -0.068    21.887     6.676
   698   1 H      0.924     0.113     1.674     2.023
   699   1 H      0.925     0.114     1.659     2.014
   700   7 N      3.494    -0.148    24.184     7.304
   701   1 H      0.860     0.297     0.722     1.331
   702   1 H      0.860     0.303     0.706     1.316
   703   1 H      0.860     0.305     0.699     1.309
   704   6 C      2.751     0.278    22.293     7.731
   705   8 O      0.870    -0.494    23.636     6.519
   706   7 N      2.688    -0.185    25.002     7.426
   707   1 H      0.860     0.221     1.004     1.569
   708   6 C      3.796     0.024    20.172     6.395
   709   1 H      0.925     0.072     2.063     2.246
   710   6 C      3.686     0.074    19.527     6.326
   711   1 H      0.925     0.042     2.420     2.433
   712   1 H      0.925     0.058     2.228     2.334
   713   8 O      1.653    -0.493    22.735     6.437
   714   1 H      0.805     0.355     0.576     1.192
   715   6 C      2.759     0.272    22.408     7.752
   716   8 O      0.863    -0.508    23.965     6.564
   717   7 N      2.696    -0.176    24.801     7.396
   718   1 H      0.860     0.219     1.012     1.576
   719   6 C      3.779     0.029    20.111     6.389
   720   1 H      0.924     0.070     2.087     2.259
   721   6 C      3.795    -0.059    21.638     6.624
   722   1 H      0.924     0.063     2.163     2.300
   723   1 H      0.925     0.064     2.152     2.294
   724   6 C      3.801    -0.089    22.201     6.708
   725   1 H      0.924     0.014     2.820     2.626
   726   1 H      0.925     0.029     2.600     2.521
   727   6 C      2.688     0.369    20.736     7.452
   728   8 O      0.857    -0.644    27.234     6.997
   729   8 O      0.857    -0.650    27.383     7.016
   730   6 C      2.752     0.267    22.500     7.767
   731   8 O      0.859    -0.509    23.979     6.565
   732   7 N      2.685    -0.173    24.736     7.387
   733   1 H      0.860     0.210     1.055     1.609
   734   6 C      3.781     0.012    20.403     6.435
   735   1 H      0.924     0.096     1.826     2.113
   736   6 C      3.803    -0.090    22.212     6.710
   737   1 H      0.925     0.071     2.078     2.254
   738   1 H      0.925     0.103     1.758     2.073
   739   6 C      3.851    -0.019    20.883     6.500
   740   1 H      0.924     0.026     2.648     2.545
   741   6 C      3.757    -0.130    23.052     6.845
   742   1 H      0.925     0.026     2.649     2.545
   743   1 H      0.925     0.055     2.254     2.348
   744   1 H      0.925     0.063     2.165     2.301
   745   6 C      3.766    -0.131    23.064     6.845
   746   1 H      0.924     0.075     2.030     2.228
   747   1 H      0.925     0.052     2.289     2.366
   748   1 H      0.925     0.039     2.464     2.455
   749   6 C      2.744     0.275    22.350     7.741
   750   8 O      0.859    -0.480    23.345     6.478
   751   7 N      2.688    -0.191    25.144     7.447
   752   1 H      0.860     0.211     1.051     1.606
   753   6 C      3.791     0.042    19.884     6.350
   754   1 H      0.925     0.055     2.254     2.348
   755   6 C      3.803    -0.094    22.288     6.721
   756   1 H      0.924     0.033     2.545     2.495
   757   1 H      0.925     0.055     2.254     2.348
   758   6 C      2.686     0.367    20.774     7.459
   759   8 O      0.856    -0.642    27.183     6.990
   760   8 O      0.856    -0.645    27.247     6.998
   761   6 C      2.746     0.284    22.197     7.714
   762   8 O      0.866    -0.501    23.804     6.542
   763   7 N      2.687    -0.202    25.386     7.483
   764   1 H      0.860     0.208     1.068     1.619
   765   6 C      3.773     0.025    20.189     6.402
   766   1 H      0.925     0.079     1.987     2.204
   767   6 C      3.794    -0.081    22.045     6.686
   768   1 H      0.924     0.079     1.993     2.208
   769   1 H      0.925     0.063     2.161     2.299
   770   6 C      3.801    -0.074    21.920     6.666
   771   1 H      0.924     0.047     2.359     2.402
   772   1 H      0.924     0.047     2.359     2.402
   773   6 C      3.804    -0.097    22.355     6.731
   774   1 H      0.925     0.097     1.811     2.105
   775   1 H      0.925     0.094     1.840     2.121
   776   6 C      3.735    -0.046    21.480     6.614
   777   1 H      0.925     0.100     1.788     2.091
   778   1 H      0.924     0.111     1.690     2.033
   779   7 N      3.489    -0.156    24.369     7.332
   780   1 H      0.860     0.311     0.682     1.293
   781   1 H      0.860     0.315     0.671     1.283
   782   1 H      0.860     0.296     0.724     1.333
   783   6 C      2.742     0.262    22.586     7.781
   784   8 O      0.870    -0.531    24.482     6.634
   785   7 N      2.698    -0.156    24.380     7.333
   786   1 H      0.860     0.192     1.150     1.680
   787   6 C      3.788     0.023    20.192     6.400
   788   1 H      0.924     0.088     1.903     2.157
   789   6 C      3.755    -0.133    23.105     6.854
   790   1 H      0.924     0.079     1.989     2.206
   791   1 H      0.924     0.071     2.077     2.254
   792   1 H      0.925     0.069     2.093     2.262
   793   6 C      2.763     0.282    22.219     7.719
   794   8 O      0.862    -0.491    23.574     6.510
   795   7 N      2.686    -0.180    24.908     7.412
   796   1 H      0.860     0.221     1.005     1.571
   797   6 C      3.795     0.013    20.368     6.426
   798   1 H      0.925     0.095     1.830     2.115
   799   6 C      3.833    -0.026    21.014     6.522
   800   1 H      0.925     0.032     2.565     2.505
   801   6 C      3.744    -0.114    22.759     6.806
   802   1 H      0.925     0.057     2.238     2.339
   803   1 H      0.924     0.047     2.356     2.401
   804   1 H      0.925     0.043     2.408     2.427
   805   6 C      3.793    -0.076    21.960     6.673
   806   1 H      0.925     0.059     2.206     2.322
   807   1 H      0.925     0.051     2.311     2.377
   808   6 C      3.747    -0.118    22.826     6.815
   809   1 H      0.924     0.039     2.463     2.454
   810   1 H      0.925     0.065     2.145     2.290
   811   1 H      0.925     0.035     2.510     2.478
   812   6 C      2.742     0.263    22.568     7.778
   813   8 O      0.863    -0.519    24.198     6.595
   814   7 N      2.688    -0.155    24.352     7.329
   815   1 H      0.860     0.204     1.087     1.633
   816   6 C      3.738    -0.028    21.162     6.564
   817   1 H      0.925     0.100     1.784     2.089
   818   1 H      0.924     0.085     1.923     2.169
   819   6 C      2.744     0.285    22.165     7.709
   820   8 O      0.858    -0.499    23.767     6.536
   821   7 N      2.680    -0.158    24.411     7.338
   822   1 H      0.860     0.194     1.137     1.670
   823   6 C      3.773     0.025    20.187     6.402
   824   1 H      0.925     0.060     2.205     2.322
   825   6 C      3.795    -0.074    21.924     6.668
   826   1 H      0.925     0.071     2.075     2.253
   827   1 H      0.925     0.069     2.095     2.264
   828   6 C      3.798    -0.073    21.907     6.664
   829   1 H      0.924     0.066     2.130     2.283
   830   1 H      0.925     0.063     2.159     2.298
   831   6 C      3.738    -0.023    21.068     6.550
   832   1 H      0.924     0.082     1.955     2.187
   833   1 H      0.924     0.076     2.026     2.226
   834   7 N      2.714    -0.179    24.875     7.407
   835   1 H      0.860     0.222     0.999     1.566
   836   6 C      2.734     0.249    22.823     7.822
   837   7 N      2.676    -0.256    26.650     7.667
   838   1 H      0.860     0.238     0.930     1.510
   839   1 H      0.860     0.238     0.929     1.510
   840   7 N      2.690    -0.238    26.229     7.606
   841   1 H      0.861     0.245     0.905     1.490
   842   1 H      0.860     0.264     0.829     1.427
   843   6 C      2.750     0.276    22.340     7.739
   844   8 O      0.861    -0.522    24.276     6.606
   845   7 N      2.689    -0.166    24.587     7.364
   846   1 H      0.860     0.208     1.065     1.617
   847   6 C      3.787     0.036    19.983     6.367
   848   1 H      0.925     0.076     2.018     2.221
   849   6 C      3.797    -0.101    22.423     6.743
   850   1 H      0.925     0.083     1.951     2.184
   851   1 H      0.925     0.080     1.982     2.202
   852   6 C      2.742     0.282    22.224     7.719
   853   8 O      0.863    -0.538    24.631     6.654
   854   7 N      2.641    -0.255    26.623     7.663
   855   1 H      0.860     0.263     0.835     1.432
   856   1 H      0.860     0.233     0.951     1.528
   857   6 C      2.760     0.287    22.144     7.706
   858   8 O      0.862    -0.459    22.887     6.414
   859   7 N      2.690    -0.173    24.743     7.388
   860   1 H      0.860     0.199     1.109     1.650
   861   6 C      3.879     0.023    20.147     6.382
   862   1 H      0.924     0.097     1.812     2.105
   863   6 C      3.831    -0.019    20.883     6.502
   864   1 H      0.925     0.111     1.686     2.031
   865   1 H      0.925     0.062     2.179     2.309
   866  16 S      1.960    -0.263   152.359    20.775
   867   1 H      0.923     0.146     1.417     1.862
   868   6 C      2.785     0.267    22.498     7.769
   869   8 O      0.863    -0.473    23.199     6.458
   870   7 N      2.692    -0.179    24.877     7.408
   871   1 H      0.860     0.208     1.066     1.618
   872   6 C      3.792     0.021    20.226     6.405
   873   1 H      0.925     0.112     1.680     2.027
   874   6 C      3.799    -0.101    22.437     6.744
   875   1 H      0.924     0.077     2.010     2.217
   876   1 H      0.925     0.079     1.986     2.204
   877   6 C      2.739     0.287    22.131     7.702
   878   8 O      0.869    -0.512    24.044     6.575
   879   7 N      2.647    -0.272    27.029     7.721
   880   1 H      0.860     0.256     0.861     1.453
   881   1 H      0.860     0.225     0.985     1.555
   882   6 C      2.755     0.265    22.522     7.771
   883   8 O      0.857    -0.469    23.099     6.444
   884   7 N      2.683    -0.158    24.417     7.339
   885   1 H      0.860     0.201     1.103     1.645
   886   6 C      3.747    -0.055    21.635     6.634
   887   1 H      0.924     0.144     1.434     1.873
   888   1 H      0.925     0.121     1.602     1.979
   889   6 C      2.742     0.265    22.520     7.770
   890   8 O      0.858    -0.476    23.265     6.467
   891   7 N      2.675    -0.154    24.325     7.325
   892   1 H      0.860     0.202     1.097     1.641
   893   6 C      3.775     0.005    20.524     6.455
   894   1 H      0.924     0.087     1.904     2.158
   895   6 C      3.842    -0.022    20.933     6.508
   896   1 H      0.924     0.068     2.107     2.270
   897   6 C      3.753    -0.119    22.834     6.814
   898   1 H      0.925     0.050     2.315     2.379
   899   1 H      0.924     0.050     2.319     2.382
   900   1 H      0.925     0.030     2.585     2.514
   901   6 C      3.753    -0.126    22.974     6.835
   902   1 H      0.925     0.070     2.083     2.257
   903   1 H      0.924     0.059     2.208     2.324
   904   1 H      0.925     0.037     2.486     2.466
   905   6 C      2.750     0.267    22.499     7.767
   906   8 O      0.858    -0.504    23.878     6.551
   907   7 N      2.684    -0.172    24.715     7.383
   908   1 H      0.860     0.231     0.961     1.536
   909   6 C      3.807     0.022    20.200     6.398
   910   1 H      0.924     0.072     2.062     2.246
   911   6 C      3.856    -0.021    20.904     6.502
   912   1 H      0.924     0.019     2.743     2.590
   913   6 C      3.762    -0.123    22.907     6.823
   914   1 H      0.925     0.054     2.266     2.354
   915   1 H      0.924     0.054     2.274     2.358
   916   1 H      0.925     0.059     2.206     2.323
   917   6 C      3.808    -0.071    21.849     6.654
   918   1 H      0.925     0.024     2.671     2.556
   919   1 H      0.925     0.057     2.237     2.339
   920   6 C      3.750    -0.122    22.901     6.825
   921   1 H      0.925     0.059     2.213     2.326
   922   1 H      0.925     0.035     2.513     2.479
   923   1 H      0.924     0.047     2.360     2.402
   924   6 C      2.757     0.263    22.560     7.778
   925   8 O      0.858    -0.507    23.937     6.560
   926   7 N      2.687    -0.159    24.431     7.341
   927   1 H      0.860     0.202     1.095     1.639
   928   6 C      3.790    -0.012    20.799     6.495
   929   1 H      0.925     0.094     1.840     2.121
   930   6 C      3.726     0.111    18.861     6.201
   931   1 H      0.925     0.044     2.400     2.423
   932   6 C      3.750    -0.137    23.198     6.869
   933   1 H      0.924     0.063     2.160     2.298
   934   1 H      0.925     0.065     2.136     2.286
   935   1 H      0.924     0.061     2.185     2.311
   936   8 O      1.656    -0.520    23.328     6.520
   937   1 H      0.806     0.329     0.640     1.257
   938   6 C      2.741     0.273    22.375     7.745
   939   8 O      0.858    -0.466    23.043     6.436
   940   7 N      2.680    -0.192    25.155     7.449
   941   1 H      0.860     0.224     0.992     1.560
   942   6 C      3.795     0.011    20.404     6.432
   943   1 H      0.924     0.110     1.696     2.036
   944   6 C      3.808    -0.099    22.388     6.735
   945   1 H      0.925     0.058     2.222     2.331
   946   1 H      0.924     0.108     1.716     2.048
   947   6 C      3.819    -0.086    22.133     6.695
   948   1 H      0.924     0.070     2.083     2.257
   949   1 H      0.924     0.041     2.433     2.439
   950   6 C      3.800    -0.092    22.265     6.718
   951   1 H      0.925     0.084     1.941     2.179
   952   1 H      0.925     0.107     1.721     2.052
   953   6 C      3.743    -0.060    21.723     6.649
   954   1 H      0.924     0.104     1.750     2.069
   955   1 H      0.925     0.115     1.652     2.010
   956   7 N      3.486    -0.131    23.838     7.251
   957   1 H      0.860     0.291     0.740     1.348
   958   1 H      0.860     0.300     0.714     1.323
   959   1 H      0.860     0.289     0.747     1.354
   960   6 C      2.770     0.283    22.205     7.717
   961   8 O      0.861    -0.479    23.319     6.474
   962   7 N      2.695    -0.186    25.041     7.432
   963   1 H      0.860     0.210     1.057     1.610
   964   6 C      3.809     0.046    19.795     6.333
   965   1 H      0.925     0.064     2.153     2.295
   966   6 C      3.815    -0.093    22.261     6.715
   967   1 H      0.924     0.029     2.599     2.521
   968   1 H      0.924     0.056     2.241     2.341
   969   6 C      2.692     0.366    20.798     7.464
   970   8 O      0.856    -0.683    28.250     7.126
   971   8 O      0.858    -0.627    26.789     6.939
   972   6 C      2.750     0.291    22.060     7.691
   973   8 O      0.858    -0.481    23.378     6.483
   974   7 N      2.684    -0.199    25.320     7.473
   975   1 H      0.860     0.205     1.082     1.629
   976   6 C      3.791     0.028    20.120     6.388
   977   1 H      0.925     0.068     2.109     2.271
   978   6 C      3.801    -0.065    21.755     6.641
   979   1 H      0.925     0.068     2.109     2.271
   980   1 H      0.925     0.076     2.023     2.224
   981   6 C      3.798    -0.090    22.216     6.711
   982   1 H      0.925     0.027     2.634     2.538
   983   1 H      0.925     0.027     2.635     2.539
   984   6 C      2.686     0.353    21.011     7.501
   985   8 O      0.856    -0.631    26.903     6.954
   986   8 O      0.856    -0.583    25.716     6.799
   987   6 C      2.749     0.265    22.537     7.773
   988   8 O      0.860    -0.507    23.937     6.560
   989   7 N      2.695    -0.171    24.696     7.381
   990   1 H      0.860     0.230     0.964     1.538
   991   6 C      3.781     0.025    20.175     6.399
   992   1 H      0.925     0.093     1.851     2.128
   993   6 C      3.760    -0.144    23.320     6.884
   994   1 H      0.925     0.095     1.835     2.119
   995   1 H      0.924     0.083     1.952     2.185
   996   1 H      0.924     0.081     1.968     2.194
   997   6 C      2.738     0.250    22.809     7.820
   998   8 O      0.857    -0.503    23.853     6.548
   999   7 N      2.681    -0.170    24.691     7.380
  1000   1 H      0.860     0.194     1.138     1.671
  1001   6 C      3.785     0.026    20.144     6.393
  1002   1 H      0.925     0.088     1.900     2.155
  1003   6 C      3.809    -0.047    21.403     6.585
  1004   1 H      0.925     0.046     2.372     2.409
  1005   1 H      0.925     0.020     2.727     2.582
  1006   6 C      3.796    -0.104    22.495     6.753
  1007   1 H      0.924     0.027     2.628     2.535
  1008   1 H      0.925     0.070     2.091     2.261
  1009   6 C      2.679     0.353    21.007     7.500
  1010   8 O      0.856    -0.572    25.438     6.762
  1011   8 O      0.856    -0.614    26.466     6.897
  1012   6 C      2.751     0.272    22.402     7.750
  1013   8 O      0.861    -0.464    22.991     6.429
  1014   7 N      2.689    -0.196    25.249     7.463
  1015   1 H      0.860     0.202     1.095     1.639
  1016   6 C      3.799     0.026    20.145     6.391
  1017   1 H      0.924     0.085     1.926     2.170
  1018   6 C      3.805    -0.079    22.006     6.678
  1019   1 H      0.925     0.053     2.286     2.365
  1020   1 H      0.925     0.056     2.252     2.347
  1021   6 C      3.801    -0.076    21.959     6.672
  1022   1 H      0.925     0.075     2.030     2.228
  1023   1 H      0.925     0.058     2.221     2.331
  1024   6 C      3.799    -0.093    22.267     6.719
  1025   1 H      0.924     0.070     2.088     2.260
  1026   1 H      0.925     0.071     2.070     2.250
  1027   6 C      3.728    -0.061    21.773     6.662
  1028   1 H      0.925     0.129     1.545     1.944
  1029   1 H      0.925     0.119     1.621     1.991
  1030   7 N      3.487    -0.147    24.164     7.301
  1031   1 H      0.860     0.293     0.735     1.343
  1032   1 H      0.860     0.301     0.710     1.320
  1033   1 H      0.860     0.313     0.676     1.288
  1034   6 C      2.753     0.272    22.411     7.752
  1035   8 O      0.860    -0.502    23.836     6.546
  1036   7 N      2.693    -0.197    25.286     7.468
  1037   1 H      0.860     0.226     0.983     1.553
  1038   6 C      3.786     0.029    20.095     6.385
  1039   1 H      0.924     0.076     2.020     2.223
  1040   6 C      3.812    -0.086    22.122     6.695
  1041   1 H      0.925     0.056     2.249     2.345
  1042   1 H      0.925     0.072     2.068     2.249
  1043   6 C      3.844    -0.019    20.881     6.500
  1044   1 H      0.925     0.028     2.621     2.532
  1045   6 C      3.750    -0.119    22.846     6.817
  1046   1 H      0.924     0.052     2.301     2.372
  1047   1 H      0.924     0.029     2.602     2.523
  1048   1 H      0.925     0.047     2.357     2.401
  1049   6 C      3.752    -0.138    23.217     6.871
  1050   1 H      0.925     0.055     2.257     2.350
  1051   1 H      0.925     0.067     2.116     2.275
  1052   1 H      0.925     0.064     2.157     2.297
  1053   6 C      2.742     0.275    22.346     7.740
  1054   8 O      0.858    -0.480    23.354     6.479
  1055   7 N      2.684    -0.201    25.377     7.482
  1056   1 H      0.860     0.222     1.000     1.567
  1057   6 C      3.786     0.035    19.996     6.369
  1058   1 H      0.925     0.075     2.033     2.230
  1059   6 C      3.805    -0.081    22.049     6.685
  1060   1 H      0.924     0.069     2.096     2.264
  1061   1 H      0.925     0.083     1.945     2.181
  1062   6 C      2.957     0.007    27.865     8.658
  1063   6 C      2.902    -0.039    28.979     8.827
  1064   1 H      0.926     0.029     2.603     2.523
  1065   6 C      2.906    -0.040    28.990     8.829
  1066   1 H      0.926     0.054     2.264     2.353
  1067   6 C      2.908    -0.043    29.076     8.842
  1068   1 H      0.926     0.040     2.454     2.450
  1069   6 C      2.898    -0.043    29.060     8.839
  1070   1 H      0.926     0.060     2.198     2.319
  1071   6 C      2.920    -0.040    29.005     8.832
  1072   1 H      0.926     0.041     2.435     2.440
  1073   6 C      2.753     0.266    22.511     7.769
  1074   8 O      0.858    -0.534    24.547     6.643
  1075   7 N      2.687    -0.182    24.943     7.417
  1076   1 H      0.860     0.223     0.996     1.563
  1077   6 C      3.791     0.036    19.975     6.365
  1078   1 H      0.924     0.085     1.926     2.170
  1079   6 C      3.814    -0.101    22.416     6.739
  1080   1 H      0.925     0.065     2.142     2.289
  1081   1 H      0.924     0.099     1.794     2.095
  1082   6 C      2.746     0.298    21.947     7.671
  1083   8 O      0.865    -0.514    24.102     6.582
  1084   7 N      2.640    -0.281    27.252     7.753
  1085   1 H      0.860     0.251     0.878     1.468
  1086   1 H      0.860     0.235     0.944     1.522
  1087   6 C      2.751     0.283    22.203     7.716
  1088   8 O      0.870    -0.506    23.907     6.556
  1089   7 N      2.696    -0.183    24.974     7.422
  1090   1 H      0.860     0.222     1.003     1.568
  1091   6 C      3.783     0.030    20.086     6.384
  1092   1 H      0.925     0.079     1.994     2.208
  1093   6 C      3.797    -0.057    21.595     6.617
  1094   1 H      0.924     0.056     2.245     2.343
  1095   1 H      0.925     0.060     2.201     2.320
  1096   6 C      3.807    -0.109    22.577     6.764
  1097   1 H      0.925     0.084     1.936     2.176
  1098   1 H      0.925     0.071     2.069     2.250
  1099   6 C      2.743     0.297    21.957     7.672
  1100   8 O      0.890    -0.507    23.920     6.558
  1101   7 N      2.672    -0.284    27.335     7.765
  1102   1 H      0.860     0.247     0.896     1.483
  1103   1 H      0.860     0.233     0.953     1.529
  1104   6 C      2.746     0.266    22.515     7.769
  1105   8 O      0.858    -0.534    24.542     6.642
  1106   7 N      2.684    -0.164    24.549     7.359
  1107   1 H      0.860     0.208     1.067     1.618
  1108   6 C      3.796     0.047    19.794     6.335
  1109   1 H      0.924     0.076     2.020     2.223
  1110   6 C      3.813    -0.099    22.374     6.733
  1111   1 H      0.925     0.047     2.354     2.399
  1112   1 H      0.925     0.047     2.360     2.402
  1113   6 C      2.680     0.367    20.776     7.459
  1114   8 O      0.856    -0.626    26.778     6.938
  1115   8 O      0.857    -0.591    25.907     6.824
  1116   6 C      2.762     0.268    22.477     7.764
  1117   8 O      0.860    -0.493    23.621     6.516
  1118   7 N      2.682    -0.208    25.533     7.505
  1119   1 H      0.860     0.205     1.083     1.630
  1120   6 C      3.784     0.026    20.158     6.395
  1121   1 H      0.924     0.091     1.865     2.135
  1122   6 C      3.843    -0.012    20.765     6.482
  1123   1 H      0.924     0.028     2.608     2.525
  1124   6 C      3.756    -0.122    22.884     6.821
  1125   1 H      0.924     0.050     2.319     2.381
  1126   1 H      0.924     0.061     2.186     2.312
  1127   1 H      0.925     0.075     2.033     2.230
  1128   6 C      3.747    -0.120    22.867     6.821
  1129   1 H      0.925     0.063     2.170     2.304
  1130   1 H      0.925     0.056     2.241     2.341
  1131   1 H      0.924     0.033     2.545     2.495
  1132   6 C      2.753     0.271    22.415     7.753
  1133   8 O      0.860    -0.482    23.387     6.484
  1134   7 N      2.683    -0.170    24.676     7.378
  1135   1 H      0.860     0.188     1.170     1.695
  1136   6 C      3.777     0.027    20.147     6.395
  1137   1 H      0.924     0.078     1.996     2.209
  1138   6 C      3.786    -0.096    22.338     6.732
  1139   1 H      0.925     0.017     2.775     2.605
  1140   1 H      0.925     0.048     2.340     2.392
  1141   6 C      2.683     0.358    20.917     7.484
  1142   8 O      0.857    -0.643    27.203     6.993
  1143   8 O      0.857    -0.615    26.478     6.899
  1144   6 C      2.745     0.285    22.178     7.711
  1145   8 O      0.859    -0.428    22.241     6.323
  1146   7 N      2.687    -0.195    25.224     7.459
  1147   1 H      0.860     0.182     1.201     1.717
  1148   6 C      3.786     0.030    20.078     6.382
  1149   1 H      0.924     0.082     1.963     2.191
  1150   6 C      3.752    -0.128    23.025     6.843
  1151   1 H      0.925     0.086     1.914     2.163
  1152   1 H      0.925     0.050     2.321     2.382
  1153   1 H      0.925     0.076     2.026     2.226
  1154   6 C      2.745     0.260    22.621     7.788
  1155   8 O      0.859    -0.497    23.711     6.529
  1156   7 N      2.690    -0.191    25.140     7.447
  1157   1 H      0.860     0.211     1.050     1.605
  1158   6 C      3.787     0.025    20.161     6.395
  1159   1 H      0.925     0.087     1.908     2.160
  1160   6 C      3.753    -0.133    23.125     6.858
  1161   1 H      0.925     0.077     2.012     2.218
  1162   1 H      0.925     0.064     2.156     2.296
  1163   1 H      0.925     0.067     2.117     2.276
  1164   6 C      2.750     0.258    22.657     7.794
  1165   8 O      0.862    -0.513    24.077     6.579
  1166   7 N      2.682    -0.174    24.778     7.393
  1167   1 H      0.860     0.217     1.022     1.583
  1168   6 C      3.792     0.022    20.215     6.403
  1169   1 H      0.925     0.102     1.766     2.078
  1170   6 C      3.855    -0.023    20.939     6.508
  1171   1 H      0.924     0.081     1.973     2.197
  1172   6 C      3.752    -0.133    23.119     6.857
  1173   1 H      0.925     0.061     2.188     2.313
  1174   1 H      0.924     0.049     2.330     2.387
  1175   1 H      0.925     0.054     2.272     2.357
  1176   6 C      3.756    -0.117    22.788     6.806
  1177   1 H      0.924     0.049     2.332     2.388
  1178   1 H      0.925     0.029     2.594     2.519
  1179   1 H      0.925     0.035     2.512     2.478
  1180   6 C      2.753     0.275    22.358     7.743
  1181   8 O      0.867    -0.456    22.821     6.405
  1182   7 N      2.697    -0.193    25.197     7.455
  1183   1 H      0.860     0.196     1.126     1.663
  1184   6 C      3.800     0.021    20.225     6.403
  1185   1 H      0.925     0.111     1.687     2.031
  1186   6 C      3.821    -0.079    21.991     6.674
  1187   1 H      0.925     0.082     1.957     2.187
  1188   1 H      0.925     0.053     2.288     2.365
  1189   6 C      3.797    -0.087    22.154     6.702
  1190   1 H      0.924     0.059     2.208     2.324
  1191   1 H      0.925     0.077     2.006     2.215
  1192   6 C      3.731    -0.019    21.011     6.543
  1193   1 H      0.925     0.089     1.892     2.151
  1194   1 H      0.924     0.059     2.213     2.326
  1195   7 N      2.705    -0.144    24.123     7.295
  1196   1 H      0.860     0.213     1.044     1.601
  1197   6 C      2.734     0.245    22.882     7.832
  1198   7 N      2.734    -0.266    26.891     7.702
  1199   1 H      0.860     0.266     0.823     1.421
  1200   1 H      0.860     0.245     0.902     1.488
  1201   7 N      2.759    -0.254    26.581     7.657
  1202   1 H      0.860     0.273     0.798     1.399
  1203   1 H      0.860     0.233     0.954     1.530
  1204   6 C      2.762     0.271    22.419     7.754
  1205   8 O      0.867    -0.460    22.909     6.417
  1206   7 N      2.687    -0.189    25.108     7.442
  1207   1 H      0.860     0.190     1.160     1.687
  1208   6 C      3.731    -0.037    21.337     6.593
  1209   1 H      0.925     0.091     1.872     2.140
  1210   1 H      0.925     0.082     1.963     2.191
  1211   6 C      2.750     0.291    22.074     7.693
  1212   8 O      0.862    -0.453    22.758     6.396
  1213   7 N      2.691    -0.199    25.328     7.475
  1214   1 H      0.860     0.216     1.029     1.589
  1215   6 C      3.793     0.022    20.207     6.401
[...]
  2284  C   3.952        O 2285 1.630    N 2286 1.333    C 2281 0.959
  2285  O   1.943        C 2284 1.630    N 2286 0.201
  2286  N   3.407        C 2284 1.333    H 2288 0.923    H 2287 0.914    O 2285 0.201
  2287  H   0.936        N 2286 0.914
  2288  H   0.945        N 2286 0.923
  2289  C   3.954        O 2290 1.636    N 2291 1.288    C 2279 0.955
  2290  O   1.959        C 2289 1.636    N 2291 0.203
  2291  N   3.463        C 2289 1.288    C 2293 0.972    H 2292 0.922    O 2290 0.203
  2292  H   0.957        N 2291 0.922
  2293  C   3.954        C 2295 0.990    N 2291 0.972    H 2294 0.950    C 2313 0.913
  2294  H   0.991        C 2293 0.950
  2295  C   3.988        C 2298 1.006    C 2293 0.990    H 2296 0.969    H 2297 0.968
  2296  H   0.996        C 2295 0.969
  2297  H   0.995        C 2295 0.968
  2298  C   3.982        C 2295 1.006    C 2301 1.005    H 2299 0.968    H 2300 0.964
  2299  H   0.996        C 2298 0.968
  2300  H   0.992        C 2298 0.964
  2301  C   3.950        C 2298 1.005    H 2303 0.969    H 2302 0.963    N 2304 0.961
  2302  H   0.992        C 2301 0.963
  2303  H   0.996        C 2301 0.969
  2304  N   3.469        C 2306 1.366    C 2301 0.961    H 2305 0.845    N 2310 0.109    N 2307 0.102
  2305  H   0.931        N 2304 0.845
  2306  C   3.977        N 2304 1.366    N 2307 1.296    N 2310 1.289
  2307  N   3.386        C 2306 1.296    H 2308 0.929    H 2309 0.923    N 2304 0.102
  2308  H   0.954        N 2307 0.929
  2309  H   0.952        N 2307 0.923
  2310  N   3.359        C 2306 1.289    H 2311 0.936    H 2312 0.843    N 2304 0.109
  2311  H   0.962        N 2310 0.936
  2312  H   0.926        N 2310 0.843
  2313  C   3.954        O 2314 1.618    N 2315 1.345    C 2293 0.913
  2314  O   1.955        C 2313 1.618    N 2315 0.201
  2315  N   3.490        C 2313 1.345    C 2317 0.964    H 2316 0.896    O 2314 0.201
  2316  H   0.948        N 2315 0.896
  2317  C   3.958        C 2319 1.005    N 2315 0.964    C 2323 0.944    H 2318 0.942
  2318  H   0.992        C 2317 0.942
  2319  C   3.980        C 2317 1.005    H 2321 0.978    H 2322 0.974    H 2320 0.962
  2320  H   0.992        C 2319 0.962
  2321  H   0.996        C 2319 0.978
  2322  H   0.995        C 2319 0.974
  2323  C   3.950        O 2324 1.605    N 2325 1.314    C 2317 0.944
  2324  O   1.929        C 2323 1.605    N 2325 0.195
  2325  N   3.473        C 2323 1.314    C 2327 0.966    H 2326 0.916    O 2324 0.195
  2326  H   0.955        N 2325 0.916
  2327  C   3.950        C 2329 0.980    N 2325 0.966    C 2345 0.944    H 2328 0.940
  2328  H   0.990        C 2327 0.940
  2329  C   3.973        C 2332 0.981    C 2327 0.980    H 2330 0.975    H 2331 0.971
  2330  H   0.995        C 2329 0.975
  2331  H   0.993        C 2329 0.971
  2332  C   3.981        C 2335 1.016    C 2329 0.981    H 2334 0.974    H 2333 0.974
  2333  H   0.993        C 2332 0.974
  2334  H   0.994        C 2332 0.974
  2335  C   3.977        C 2332 1.016    C 2338 1.001    H 2336 0.966    H 2337 0.958
  2336  H   0.994        C 2335 0.966
  2337  H   0.992        C 2335 0.958
  2338  C   3.906        C 2335 1.001    H 2339 0.964    H 2340 0.961    N 2341 0.952
  2339  H   0.986        C 2338 0.964
  2340  H   0.984        C 2338 0.961
  2341  N   3.660        C 2338 0.952    H 2343 0.897    H 2344 0.894    H 2342 0.894
  2342  H   0.916        N 2341 0.894
  2343  H   0.912        N 2341 0.897
  2344  H   0.910        N 2341 0.894
  2345  C   3.944        O 2346 1.576    N 2347 1.328    C 2327 0.944
  2346  O   1.953        C 2345 1.576    N 2347 0.188
  2347  N   3.485        C 2345 1.328    C 2349 0.958    H 2348 0.914    O 2346 0.188
  2348  H   0.953        N 2347 0.914
  2349  C   3.959        C 2351 0.986    N 2347 0.958    C 2369 0.948    H 2350 0.943
  2350  H   0.988        C 2349 0.943
  2351  C   3.983        C 2354 1.002    C 2349 0.986    H 2353 0.968    H 2352 0.967
  2352  H   0.995        C 2351 0.967
  2353  H   0.993        C 2351 0.968
  2354  C   3.987        C 2351 1.002    C 2357 0.994    H 2355 0.967    H 2356 0.962
  2355  H   0.994        C 2354 0.967
  2356  H   0.994        C 2354 0.962
  2357  C   3.952        C 2354 0.994    N 2360 0.990    H 2359 0.964    H 2358 0.963
  2358  H   0.992        C 2357 0.963
  2359  H   0.994        C 2357 0.964
  2360  N   3.454        C 2362 1.301    C 2357 0.990    H 2361 0.882    N 2363 0.102    N 2366 0.100
  2361  H   0.944        N 2360 0.882
  2362  C   3.978        N 2363 1.329    N 2366 1.310    N 2360 1.301
  2363  N   3.403        C 2362 1.329    H 2365 0.913    H 2364 0.908    N 2366 0.105    N 2360 0.102
  2364  H   0.942        N 2363 0.908
  2365  H   0.939        N 2363 0.913
  2366  N   3.385        C 2362 1.310    H 2367 0.917    H 2368 0.884    N 2363 0.105    N 2360 0.100
  2367  H   0.944        N 2366 0.917
  2368  H   0.943        N 2366 0.884
  2369  C   3.940        O 2370 1.646    N 2371 1.256    C 2349 0.948
  2370  O   2.009        C 2369 1.646    N 2371 0.199
  2371  N   3.434        C 2369 1.256    C 2373 0.961    H 2372 0.920    O 2370 0.199
  2372  H   0.954        N 2371 0.920
  2373  C   3.960        C 2375 0.978    N 2371 0.961    C 2385 0.955    H 2374 0.943
  2374  H   0.993        C 2373 0.943
  2375  C   3.988        C 2381 1.001    C 2377 1.001    C 2373 0.978    H 2376 0.951
  2376  H   0.995        C 2375 0.951
  2377  C   3.990        C 2375 1.001    H 2380 0.982    H 2379 0.981    H 2378 0.979
  2378  H   0.998        C 2377 0.979
  2379  H   0.996        C 2377 0.981
  2380  H   0.997        C 2377 0.982
  2381  C   3.990        C 2375 1.001    H 2384 0.985    H 2382 0.983    H 2383 0.979
  2382  H   0.998        C 2381 0.983
  2383  H   0.996        C 2381 0.979
  2384  H   0.997        C 2381 0.985
  2385  C   3.951        O 2386 1.592    N 2387 1.323    C 2373 0.955
  2386  O   1.917        C 2385 1.592    N 2387 0.193
  2387  N   3.470        C 2385 1.323    C 2389 0.955    H 2388 0.906    O 2386 0.193
  2388  H   0.952        N 2387 0.906
  2389  C   3.950        C 2391 0.988    N 2387 0.955    H 2390 0.939    C 2404 0.915
  2390  H   0.991        C 2389 0.939
  2391  C   3.987        C 2393 1.006    C 2389 0.988    C 2397 0.980    H 2392 0.958
  2392  H   0.997        C 2391 0.958
  2393  C   3.985        C 2391 1.006    H 2396 0.981    H 2394 0.981    H 2395 0.976
  2394  H   0.996        C 2393 0.981
  2395  H   0.996        C 2393 0.976
  2396  H   0.997        C 2393 0.981
  2397  C   3.991        C 2400 1.012    C 2391 0.980    H 2399 0.979    H 2398 0.977
  2398  H   0.997        C 2397 0.977
  2399  H   0.998        C 2397 0.979
  2400  C   3.986        C 2397 1.012    H 2403 0.984    H 2402 0.980    H 2401 0.976
  2401  H   0.998        C 2400 0.976
  2402  H   0.999        C 2400 0.980
  2403  H   0.998        C 2400 0.984
  2404  C   3.948        O 2405 1.588    N 2406 1.360    C 2389 0.915
  2405  O   1.941        C 2404 1.588    N 2406 0.194
  2406  N   3.491        C 2404 1.360    C 2408 0.956    H 2407 0.885    O 2405 0.194
  2407  H   0.948        N 2406 0.885
  2408  C   3.951        C 2410 0.958    N 2406 0.956    H 2409 0.946    C 2418 0.933
  2409  H   0.987        C 2408 0.946
  2410  C   3.965        C 2412 1.002    O 2416 0.998    H 2411 0.963    C 2408 0.958
  2411  H   0.998        C 2410 0.963
  2412  C   3.984        C 2410 1.002    H 2415 0.983    H 2413 0.978    H 2414 0.976
  2413  H   0.994        C 2412 0.978
  2414  H   0.993        C 2412 0.976
  2415  H   0.999        C 2412 0.983
  2416  O   1.934        C 2410 0.998    H 2417 0.843
  2417  H   0.885        O 2416 0.843
  2418  C   3.945        O 2419 1.612    N 2420 1.321    C 2408 0.933
  2419  O   1.948        C 2418 1.612    N 2420 0.191
  2420  N   3.479        C 2418 1.321    C 2422 0.967    H 2421 0.901    O 2419 0.191
  2421  H   0.954        N 2420 0.901
  2422  C   3.952        N 2420 0.967    H 2423 0.949    C 2424 0.939    C 2432 0.933
  2423  H   0.990        C 2422 0.949
  2424  C   3.958        C 2426 1.009    O 2430 0.999    H 2425 0.958    C 2422 0.939
  2425  H   0.998        C 2424 0.958
  2426  C   3.988        C 2424 1.009    H 2428 0.982    H 2427 0.980    H 2429 0.978
  2427  H   0.997        C 2426 0.980
  2428  H   0.998        C 2426 0.982
  2429  H   0.995        C 2426 0.978
  2430  O   1.945        C 2424 0.999    H 2431 0.842
  2431  H   0.892        O 2430 0.842
  2432  C   3.955        O 2433 1.611    N 2434 1.338    C 2422 0.933
  2433  O   1.936        C 2432 1.611    N 2434 0.195
  2434  N   3.479        C 2432 1.338    C 2436 0.957    H 2435 0.898    O 2433 0.195
  2435  H   0.952        N 2434 0.898
  2436  C   3.951        C 2452 0.966    N 2434 0.957    C 2438 0.952    H 2437 0.943
  2437  H   0.989        C 2436 0.943
  2438  C   3.978        C 2441 0.994    H 2440 0.968    H 2439 0.965    C 2436 0.952
  2439  H   0.995        C 2438 0.965
  2440  H   0.997        C 2438 0.968
  2441  C   3.982        C 2450 1.436    C 2442 1.413    C 2438 0.994
  2442  C   3.988        C 2444 1.458    C 2441 1.413    H 2443 0.963    C 2448 0.102
  2443  H   0.998        C 2442 0.963
  2444  C   3.987        C 2442 1.458    C 2446 1.393    H 2445 0.970    C 2450 0.132
  2445  H   0.997        C 2444 0.970
  2446  C   3.989        C 2448 1.495    C 2444 1.393    H 2447 0.961
  2447  H   0.996        C 2446 0.961
  2448  C   3.988        C 2446 1.495    C 2450 1.394    H 2449 0.964    C 2442 0.102
  2449  H   0.996        C 2448 0.964
  2450  C   3.987        C 2441 1.436    C 2448 1.394    H 2451 0.967    C 2444 0.132
  2451  H   0.998        C 2450 0.967
  2452  C   3.954        O 2453 1.553    N 2454 1.360    C 2436 0.966
  2453  O   1.883        C 2452 1.553    N 2454 0.195
  2454  N   3.497        C 2452 1.360    C 2456 0.966    H 2455 0.879    O 2453 0.195
  2455  H   0.944        N 2454 0.879
  2456  C   3.957        C 2458 0.967    N 2454 0.966    H 2457 0.952    C 2476 0.947
  2457  H   0.992        C 2456 0.952
  2458  C   3.977        C 2461 1.007    H 2459 0.969    C 2456 0.967    H 2460 0.963
  2459  H   0.993        C 2458 0.969
  2460  H   0.991        C 2458 0.963
  2461  C   3.989        C 2458 1.007    C 2464 0.994    H 2463 0.974    H 2462 0.968
  2462  H   0.996        C 2461 0.968
  2463  H   0.997        C 2461 0.974
  2464  C   3.953        C 2461 0.994    N 2467 0.979    H 2465 0.965    H 2466 0.960
  2465  H   0.991        C 2464 0.965
  2466  H   0.992        C 2464 0.960
  2467  N   3.471        C 2469 1.328    C 2464 0.979    H 2468 0.904    N 2473 0.101
  2468  H   0.937        N 2467 0.904
  2469  C   3.980        N 2467 1.328    N 2473 1.315    N 2470 1.313
  2470  N   3.398        C 2469 1.313    H 2472 0.920    H 2471 0.917
  2471  H   0.938        N 2470 0.917
  2472  H   0.948        N 2470 0.920
  2473  N   3.382        C 2469 1.315    H 2474 0.912    H 2475 0.906    N 2467 0.101
  2474  H   0.934        N 2473 0.912
  2475  H   0.932        N 2473 0.906
  2476  C   3.945        O 2477 1.670    N 2478 1.252    C 2456 0.947
  2477  O   1.982        C 2476 1.670    N 2478 0.198
  2478  N   3.437        C 2476 1.252    C 2480 0.993    H 2479 0.904    O 2477 0.198
  2479  H   0.947        N 2478 0.904
  2480  C   3.967        N 2478 0.993    C 2482 0.956    H 2481 0.945    C 2490 0.926
  2481  H   0.992        C 2480 0.945
  2482  C   3.949        C 2484 1.002    O 2488 0.978    H 2483 0.960    C 2480 0.956
  2483  H   0.997        C 2482 0.960
  2484  C   3.984        C 2482 1.002    H 2485 0.982    H 2486 0.979    H 2487 0.978
  2485  H   0.995        C 2484 0.982
  2486  H   0.993        C 2484 0.979
  2487  H   0.994        C 2484 0.978
  2488  O   1.935        C 2482 0.978    H 2489 0.863
  2489  H   0.890        O 2488 0.863
  2490  C   3.944        O 2491 1.645    N 2492 1.287    C 2480 0.926
  2491  O   1.958        C 2490 1.645    N 2492 0.195
  2492  N   3.466        C 2490 1.287    C 2494 0.995    H 2493 0.922    O 2491 0.195
  2493  H   0.954        N 2492 0.922
  2494  C   3.961        N 2492 0.995    C 2497 0.958    H 2495 0.947    H 2496 0.945
  2495  H   0.991        C 2494 0.947
  2496  H   0.989        C 2494 0.945
  2497  C   3.952        O 2498 1.664    N 2499 1.269    C 2494 0.958
  2498  O   1.981        C 2497 1.664    N 2499 0.196
  2499  N   3.450        C 2497 1.269    C 2501 0.988    H 2500 0.920    O 2498 0.196
  2500  H   0.957        N 2499 0.920
  2501  C   3.968        N 2499 0.988    H 2502 0.947    C 2503 0.945    C 2511 0.927
  2502  H   0.994        C 2501 0.947
  2503  C   3.956        O 2509 1.010    C 2505 0.984    H 2504 0.959    C 2501 0.945
  2504  H   0.998        C 2503 0.959
  2505  C   3.991        H 2508 0.986    H 2506 0.986    H 2507 0.986    C 2503 0.984
  2506  H   0.998        C 2505 0.986
  2507  H   0.996        C 2505 0.986
  2508  H   0.997        C 2505 0.986
  2509  O   1.966        C 2503 1.010    H 2510 0.857
  2510  H   0.890        O 2509 0.857
  2511  C   3.957        O 2512 1.624    N 2513 1.328    C 2501 0.927
  2512  O   1.954        C 2511 1.624    N 2513 0.201
  2513  N   3.474        C 2511 1.328    C 2515 0.956    H 2514 0.915    O 2512 0.201
  2514  H   0.955        N 2513 0.915
  2515  C   3.950        C 2517 0.964    N 2513 0.956    C 2535 0.945    H 2516 0.936
  2516  H   0.988        C 2515 0.936
  2517  C   3.979        C 2520 1.035    H 2519 0.966    C 2515 0.964    H 2518 0.947
  2518  H   0.993        C 2517 0.947
  2519  H   0.997        C 2517 0.966
  2520  C   3.974        C 2521 1.516    C 2534 1.241    C 2517 1.035
  2521  C   3.953        C 2520 1.516    N 2523 1.229    H 2522 0.968
  2522  H   0.996        C 2521 0.968
  2523  N   3.562        C 2521 1.229    C 2525 1.182    H 2524 0.929
  2524  H   0.959        N 2523 0.929
  2525  C   3.958        C 2526 1.358    C 2534 1.194    N 2523 1.182
  2526  C   3.985        C 2528 1.454    C 2525 1.358    H 2527 0.963    C 2532 0.112
  2527  H   0.997        C 2526 0.963
  2528  C   3.988        C 2526 1.454    C 2530 1.385    H 2529 0.967
  2529  H   0.997        C 2528 0.967
  2530  C   3.987        C 2532 1.486    C 2528 1.385    H 2531 0.961
  2531  H   0.997        C 2530 0.961
  2532  C   3.989        C 2530 1.486    C 2534 1.332    H 2533 0.967    C 2526 0.112
  2533  H   0.997        C 2532 0.967
  2534  C   3.983        C 2532 1.332    C 2520 1.241    C 2525 1.194
  2535  C   3.947        O 2536 1.590    N 2537 1.329    C 2515 0.945
  2536  O   1.931        C 2535 1.590    N 2537 0.192
  2537  N   3.485        C 2535 1.329    C 2539 0.975    H 2538 0.908    O 2536 0.192
  2538  H   0.956        N 2537 0.908
  2539  C   3.960        N 2537 0.975    C 2541 0.975    H 2540 0.946    C 2547 0.928
  2540  H   0.995        C 2539 0.946
  2541  C   3.978        C 2539 0.975    H 2542 0.973    H 2543 0.948    C 2544 0.936
  2542  H   0.998        C 2541 0.973
  2543  H   0.996        C 2541 0.948
  2544  C   3.944        O 2546 1.518    O 2545 1.466    C 2541 0.936
  2545  O   1.773        C 2544 1.466    O 2546 0.222
  2546  O   1.812        C 2544 1.518    O 2545 0.222
  2547  C   3.947        O 2548 1.654    N 2549 1.281    C 2539 0.928
  2548  O   1.986        C 2547 1.654    N 2549 0.190
  2549  N   3.444        C 2547 1.281    C 2551 0.949    H 2550 0.926    O 2548 0.190
  2550  H   0.957        N 2549 0.926
  2551  C   3.943        C 2553 1.007    N 2549 0.949    H 2552 0.948    C 2557 0.906
  2552  H   0.989        C 2551 0.948
  2553  C   3.977        C 2551 1.007    H 2556 0.978    H 2554 0.973    H 2555 0.961
  2554  H   0.991        C 2553 0.973
  2555  H   0.990        C 2553 0.961
  2556  H   0.995        C 2553 0.978
  2557  C   3.943        O 2558 1.597    N 2559 1.363    C 2551 0.906
  2558  O   1.923        C 2557 1.597    N 2559 0.194
  2559  N   3.502        C 2557 1.363    C 2561 0.969    H 2560 0.886    O 2558 0.194
  2560  H   0.955        N 2559 0.886
  2561  C   3.954        N 2559 0.969    C 2563 0.962    C 2578 0.937    H 2562 0.934
  2562  H   0.994        C 2561 0.934
  2563  C   3.981        C 2566 1.001    H 2565 0.968    C 2561 0.962    H 2564 0.958
  2564  H   0.994        C 2563 0.958
  2565  H   0.994        C 2563 0.968
  2566  C   3.982        C 2576 1.413    C 2567 1.407    C 2563 1.001
  2567  C   3.987        C 2569 1.442    C 2566 1.407    H 2568 0.967    C 2574 0.108
  2568  H   0.996        C 2567 0.967
  2569  C   3.982        C 2567 1.442    C 2571 1.369    H 2570 0.963    C 2576 0.111
  2570  H   0.993        C 2569 0.963
  2571  C   3.941        C 2574 1.374    C 2569 1.369    O 2572 1.073
  2572  O   2.104        C 2571 1.073    H 2573 0.857
  2573  H   0.897        O 2572 0.857
  2574  C   3.987        C 2576 1.441    C 2571 1.374    H 2575 0.963    C 2567 0.108
  2575  H   0.999        C 2574 0.963
  2576  C   3.989        C 2574 1.441    C 2566 1.413    H 2577 0.969    C 2569 0.111
  2577  H   0.999        C 2576 0.969
  2578  C   3.945        O 2579 1.632    N 2580 1.296    C 2561 0.937
  2579  O   1.953        C 2578 1.632    N 2580 0.193
  2580  N   3.455        C 2578 1.296    C 2582 0.961    H 2581 0.927    O 2579 0.193
  2581  H   0.963        N 2580 0.927
  2582  C   3.957        C 2584 0.998    N 2580 0.961    H 2583 0.949    C 2600 0.918
  2583  H   0.998        C 2582 0.949
  2584  C   3.992        C 2587 1.000    C 2582 0.998    H 2586 0.974    H 2585 0.968
  2585  H   0.998        C 2584 0.968
  2586  H   0.997        C 2584 0.974
  2587  C   3.994        C 2590 1.001    C 2584 1.000    H 2588 0.981    H 2589 0.971
  2588  H   0.999        C 2587 0.981
  2589  H   0.997        C 2587 0.971
  2590  C   3.989        C 2593 1.013    C 2587 1.001    H 2591 0.970    H 2592 0.970
  2591  H   0.995        C 2590 0.970
  2592  H   0.995        C 2590 0.970
  2593  C   3.927        C 2590 1.013    N 2596 0.965    H 2594 0.965    H 2595 0.964
  2594  H   0.987        C 2593 0.965
  2595  H   0.988        C 2593 0.964
  2596  N   3.664        C 2593 0.965    H 2598 0.891    H 2597 0.890    H 2599 0.879
  2597  H   0.917        N 2596 0.890
  2598  H   0.908        N 2596 0.891
  2599  H   0.916        N 2596 0.879
  2600  C   3.935        O 2601 1.489    O 2602 1.487    C 2582 0.918
  2601  O   1.776        C 2600 1.489    O 2602 0.217
  2602  O   1.778        C 2600 1.487    O 2601 0.217

molecular dipole:
                 x           y           z       tot (Debye)
 q only:      556.601     682.573     657.329
   full:      556.961     682.803     665.697    2806.966
molecular quadrupole (traceless):
                xx          xy          yy          xz          yz          zz
 q only:   -17086.624   67628.496   12394.759   63814.590   79565.410    4691.865
  q+dip:   -17979.946   67309.607   11760.633   64584.917   80498.776    6219.313
   full:   -17972.953   67306.884   11744.749   64587.669   80493.085    6228.204


           -------------------------------------------------
          | TOTAL ENERGY            -4085.255527623777 Eh   |
          | GRADIENT NORM               1.302548204889 Eh/α |
          | HOMO-LUMO GAP               2.100539416174 eV   |
           -------------------------------------------------
########################################################################
[WARNING] Runtime exception occurred
-2- restart_readRestart: Dimension missmatch in restart file.
-1- restart_readRestart: Number of electron missmatch in restart file.
########################################################################

------------------------------------------------------------------------
 * finished run on 2020/05/25 at 13:09:11.546     
------------------------------------------------------------------------
 total:
 * wall-time:     0 d,  0 h,  7 min, 12.557 sec
 *  cpu-time:     0 d,  5 h, 25 min, 39.767 sec
 * ratio c/w:    45.173 speedup
 SCF:
 * wall-time:     0 d,  0 h,  6 min, 45.019 sec
 *  cpu-time:     0 d,  5 h, 17 min, 16.335 sec
 * ratio c/w:    47.001 speedup

