      -----------------------------------------------------------      
     |                   =====================                   |     
     |                           x T B                           |     
     |                   =====================                   |     
     |                         S. Grimme                         |     
     |          Mulliken Center for Theoretical Chemistry        |     
     |                    University of Bonn                     |     
      -----------------------------------------------------------      

   * xtb version 6.2.3 (d7bf61a) compiled by 'conda@06d140edd85e' on 2020-05-12

   xtb is free software: you can redistribute it and/or modify it under
   the terms of the GNU Lesser General Public License as published by
   the Free Software Foundation, either version 3 of the License, or
   (at your option) any later version.
   
   xtb is distributed in the hope that it will be useful,
   but WITHOUT ANY WARRANTY; without even the implied warranty of
   MERCHANTABILITY or FITNESS FOR A PARTICULAR PURPOSE.  See the
   GNU Lesser General Public License for more details.
   
   Cite this work as:
   * S. Grimme, C. Bannwarth, P. Shushkov, J. Chem. Theory Comput., 2017,
     13, 1989-2009. DOI: 10.1021/acs.jctc.7b00118
   * C. Bannwarth, S. Ehlert and S. Grimme., J. Chem. Theory Comput., 2019,
     15, 1652-1671. DOI: 10.1021/acs.jctc.8b01176
   * P. Pracht, E. Caldeweyher, S. Ehlert, S. Grimme, ChemRxiv, 2019, preprint.
     DOI: 10.26434/chemrxiv.8326202.v1
   
   for DFT-D4:
   * E. Caldeweyher, C. Bannwarth and S. Grimme, J. Chem. Phys., 2017,
     147, 034112. DOI: 10.1063/1.4993215
   * E. Caldeweyher, S. Ehlert, A. Hansen, H. Neugebauer, S. Spicher,
     C. Bannwarth and S. Grimme, J. Chem. Phys., 2019, 150, 154122.
     DOI: 10.1063/1.5090222
   
   for sTDA-xTB:
   * S. Grimme and C. Bannwarth, J. Chem. Phys., 2016, 145, 054103.
     DOI: 10.1063/1.4959605
   
   in the mass-spec context:
   * V. Asgeirsson, C. Bauer and S. Grimme, Chem. Sci., 2017, 8, 4879.
     DOI: 10.1039/c7sc00601b
   
   for metadynamics refer to:
   * S. Grimme, J. Chem. Theory Comput., 2019, 155, 2847-2862
     DOI: 10.1021/acs.jctc.9b00143
   
   with help from (in alphabetical order)
   C. Bannwarth, F. Bohle, G. Brandenburg, E. Caldeweyher, M. Checinski,
   S. Dohm, S. Ehlert, S. Ehrlich, F. März, H. Neugebauer, J. Pisarek,
   P. Pracht, P. Shushkov, and S. Spicher.
   
 * started run on 2020/07/24 at 22:41:37.752     

           -------------------------------------------------
          |                Calculation Setup                |
           -------------------------------------------------

          program call               : xtb complex_8461.xyz --chrg +9 --uhf 0 --gbsa water
          hostname                   : gold54.cluster.local
          coordinate file            : complex_8461.xyz
          omp threads                :                    64
          number of atoms            :                  2617
          number of electrons        :                  7234
          charge                     :                     9
          spin                       :                   0.0
          first test random number   :      0.16115061745680


molecular fragmentation (1/2 indicates fragments):
111111111111111111111111111111111111111111111111111111111111111111111111
111111111111111111111111111111111111111111111111111111111111111111111111
111111111111111111111111111111111111111111111111111111111111111111111111
111111111111111111111111111111111111111111111111111111111111111111111111
111111111111111111111111111111111111111111111111111111111111111111111111
111111111111111111111111111111111111111111111111111111111111111111111111
111111111111111111111111111111111111111111111111111111111111111111111111
111111111111111111111111111111111111111111111111111111111111111111111111
111111111111111111111111111111111111111111111111111111111111111111111111
111111111111111111111111111111111111111111111111111111111111111111111111
111111111111111111111111111111111111111111111111111111111111111111111111
111111111111111111111111111111111111111111111111111111111111111111111111
111111111111111111111111111111111111111111111111111111111111111111111111
111111111111111111111111111111111111111111111111111111111111111111111111
111111111111111111111111111111111111111111111111111111111111111111111111
111111111111111111111111111111111111111111111111111111111111111111111111
111111111111111111111111111111111111111111111111111111111111111111111111
111111111111111111111111111111111111111111111111111111111111111111111111
111111111111111111111111111111111111111111111111111111111111111111111111
111111111111111111111111111111111111111111111111111111111111111111111111
111111111111111111111111111111111111111111111111111111111111111111111111
111111111111111111111111111111111111111111111111111111111111111111111111
111111111111111111111111111111111111111111111111111111111111111111111111
111111111111111111111111111111111111111111111111111111111111111111111111
111111111111111111111111111111111111111111111111111111111111111111111111
111111111111111111111111111111111111111111111111111111111111111111111111
111111111111111111111111111111111111111111111111111111111111111111111111
111111111111111111111111111111111111111111111111111111111111111111111111
111111111111111111111111111111111111111111111111111111111111111111111111
111111111111111111111111111111111111111111111111111111111111111111111111
111111111111111111111111111111111111111111111111111111111111111111111111
111111111111111111111111111111111111111111111111111111111111111111111111
111111111111111111111111111111111111111111111111111111111111111111111111
111111111111111111111111111111111111111111111111111111111111111111111111
111111111111111111111111111111111111111111111111111111111111111111111111
111111111111111111111111111111111111111111111111111111111111111111111111
1111111111222222222222222
# atoms in fragment 1/2:  2602    15
 fragment masses (1/2) :    18371.93      109.13
CMA distance (Bohr)    :  20.658
constraining FC (au)   :  0.0500
########################################################################
[WARNING] Please study the warnings concerning your input carefully
-2- prog_main: XTBPATH is not set, using XTBHOME instead
-1- prog_main: XTBHOME is not set, using HOME instead
########################################################################
           ------------------------------------------------- 
          |                 G F N 2 - x T B                 |
          | Geometry, Frequencies, Noncovalent interactions |
          |            JCTC 2019 parametrisation            |
           ------------------------------------------------- 
             k(s)              :                1.8500
             k(p)              :                2.2300
             k(d)              :                2.2300
             k(f)              :                2.0000
             kEN (H0ij)        :               -2.0000
             D4 a1             :                0.5200
             D4 a2             :                5.0000
             D4 s6             :                1.0000
             D4 s8             :                2.7000
             D4 s9             :                5.0000
             alphaj            :                2.0000

  Z AO/shell   Hii/eV     exponent
  1     Wed Apr 25 08:07:45 CEST 2018   EN: 2.200 GM2: 0.406  GM3: 0.0800  RAES: 1.40
     1s    -10.707211    1.230000
  6     Wed Apr 25 08:07:45 CEST 2018   EN: 2.550 GM2: 0.538  GM3: 0.1500  RAES: 3.00
     2s    -13.970922    2.096432
     2p    -10.063292    1.800000
  7     Wed Apr 25 08:07:45 CEST 2018   EN: 3.040 GM2: 0.461  GM3:-0.0640  RAES: 1.90
     2s    -16.686243    2.339881
     2p    -12.523956    2.014332
  8     Wed Apr 25 08:07:45 CEST 2018   EN: 3.440 GM2: 0.452  GM3:-0.0517  RAES: 1.80
     2s    -20.229985    2.439742
     2p    -15.503117    2.137023
 16     Tue Apr 24 11:44:34 CEST 2018   EN: 2.580 GM2: 0.340  GM3:-0.0502  RAES: 3.10
     3s    -20.029654    1.981333
     3p    -11.377694    2.025643
     3d     -0.420282    1.702555

 Solvent             : water
 Using internal parameter file: .param_gbsa2_water
 Gsolv ref. state (COSMO-RS): gsolv [1 M gas/solution]
 temperature (mdtemp)       :    298.14999999999998     
 dielectric constant        :    80.200000000000003     
 rho                        :    1.0000000000000000     
 mass                       :    18.000000000000000     
 surface tension            :    15.568945408385856     
 probe radius               :   0.97531378999999996     
 Gshift (Eh)                :    1.8574431267947933E-003
 c1                         :    1.5524381700000001     
 soset                      :   0.13032636000000000     
 HB correction              :  T
           ------------------------------------------------- 
          |        Self-Consistent Charge Iterations        |
           ------------------------------------------------- 

          ...................................................
          :                      SETUP                      :
          :.................................................:
          :  # basis functions                6550          :
          :  # atomic orbitals                6544          :
          :  # shells                         3922          :
          :  # electrons                      7234          :
          :  max. iterations                   250          :
          :  Hamiltonian                  GFN2-xTB          :
          :  restarted?                      false          :
          :  GBSA solvation                   true          :
          :  PC potential                    false          :
          :  electronic temp.          300.0000000     K    :
          :  accuracy                    1.0000000          :
          :  -> integral cutoff          0.2500000E+02      :
          :  -> integral neglect         0.1000000E-07      :
          :  -> SCF convergence          0.1000000E-05 Eh   :
          :  -> wf. convergence          0.1000000E-03 e    :
          :  Broyden damping             0.4000000          :
          ...................................................

 iter      E             dE          RMSdq      gap      omega  full diag
   1  -4144.7967950 -0.414480E+04  0.426E+00    1.13       0.0  T
   2  -4156.9153988 -0.121186E+02  0.225E+00    1.23       1.0  T
   3  -4157.3833680 -0.467969E+00  0.118E+00    1.20       1.0  T
   4  -4157.4559122 -0.725442E-01  0.287E-01    1.07       1.0  T
   5  -4157.5581803 -0.102268E+00  0.140E-01    0.88       1.0  T
   6  -4157.5719781 -0.137978E-01  0.724E-02    0.93       1.0  T
   7  -4157.5744305 -0.245231E-02  0.374E-02    0.87       1.0  T
   8  -4157.5755183 -0.108784E-02  0.166E-02    0.84       1.0  T
   9  -4157.5756800 -0.161708E-03  0.100E-02    0.81       1.0  T
  10  -4157.5757623 -0.823149E-04  0.532E-03    0.80       1.0  T
  11  -4157.5757864 -0.240595E-04  0.266E-03    0.79       1.0  T
  12  -4157.5757924 -0.604890E-05  0.150E-03    0.78       1.3  T
  13  -4157.5757944 -0.196929E-05  0.823E-04    0.78       2.4  T
  14  -4157.5757950 -0.600237E-06  0.418E-04    0.78       4.7  T
  15  -4157.5757952 -0.171089E-06  0.212E-04    0.78       9.2  T

   *** convergence criteria satisfied after 15 iterations ***

         #    Occupation            Energy/Eh            Energy/eV
      -------------------------------------------------------------
         1        2.0000           -0.7576646             -20.6171
       ...           ...                  ...                  ...
      3611        2.0000           -0.3570783              -9.7166
      3612        2.0000           -0.3566909              -9.7061
      3613        2.0000           -0.3556025              -9.6764
      3614        2.0000           -0.3551395              -9.6638
      3615        2.0000           -0.3526687              -9.5966
      3616        2.0000           -0.3474984              -9.4559
      3617        2.0000           -0.3170179              -8.6265 (HOMO)
      3618        0.0000           -0.2884804              -7.8500 (LUMO)
      3619                         -0.2741540              -7.4601
      3620                         -0.2680921              -7.2952
      3621                         -0.2679508              -7.2913
      3622                         -0.2661063              -7.2411
       ...                                ...                  ...
      6544                          0.8931306              24.3033
      -------------------------------------------------------------
                  HL-Gap            0.0285375 Eh            0.7765 eV
             Fermi-level           -0.3027492 Eh           -8.2382 eV

 SCC (total)                   0 d,  0 h,  6 min, 35.677 sec
 SCC setup                      ...        0 min,  3.167 sec (  0.800%)
 Dispersion                     ...        0 min,  2.030 sec (  0.513%)
 integral evaluation            ...        0 min, 12.752 sec (  3.223%)
 zeroth order Hamiltonian       ...        0 min,  0.353 sec (  0.089%)
 iterations                     ...        5 min, 59.031 sec ( 90.738%)
 molecular gradient             ...        0 min, 17.473 sec (  4.416%)
 printout                       ...        0 min,  0.871 sec (  0.220%)

         :::::::::::::::::::::::::::::::::::::::::::::::::::::
         ::                     SUMMARY                     ::
         :::::::::::::::::::::::::::::::::::::::::::::::::::::
         :: total energy           -4108.674587059893 Eh    ::
         :: total w/o Gsasa/hb     -4108.288642355633 Eh    ::
         :: gradient norm              1.360680467118 Eh/a0 ::
         :: HOMO-LUMO gap              0.776544852135 eV    ::
         ::.................................................::
         :: SCC energy             -4157.638690248521 Eh    ::
         :: -> isotropic ES           14.125600430437 Eh    ::
         :: -> anisotropic ES         -0.773027079589 Eh    ::
         :: -> anisotropic XC          1.147239369982 Eh    ::
         :: -> dispersion             -3.959969661745 Eh    ::
         :: -> Gsolv                  -3.999914325495 Eh    ::
         ::    -> Gborn               -3.613969621234 Eh    ::
         ::    -> Gsasa               -0.064752532881 Eh    ::
         ::    -> Ghb                 -0.323049614506 Eh    ::
         ::    -> Gshift               0.001857443127 Eh    ::
         :: repulsion energy          48.400023078118 Eh    ::
         :: add. restraining           0.000000000000 Eh    ::
         :::::::::::::::::::::::::::::::::::::::::::::::::::::

           -------------------------------------------------
          |                Property Printout                |
           -------------------------------------------------

    * Orbital Energies and Occupations

         #    Occupation            Energy/Eh            Energy/eV
      -------------------------------------------------------------
         1        2.0000           -0.7576646             -20.6171
       ...           ...                  ...                  ...
      3605        2.0000           -0.3648859              -9.9290
      3606        2.0000           -0.3643061              -9.9133
      3607        2.0000           -0.3625712              -9.8661
      3608        2.0000           -0.3602192              -9.8021
      3609        2.0000           -0.3596822              -9.7875
      3610        2.0000           -0.3578960              -9.7388
      3611        2.0000           -0.3570783              -9.7166
      3612        2.0000           -0.3566909              -9.7061
      3613        2.0000           -0.3556025              -9.6764
      3614        2.0000           -0.3551395              -9.6638
      3615        2.0000           -0.3526687              -9.5966
      3616        2.0000           -0.3474984              -9.4559
      3617        2.0000           -0.3170179              -8.6265 (HOMO)
      3618        0.0000           -0.2884804              -7.8500 (LUMO)
      3619                         -0.2741540              -7.4601
      3620                         -0.2680921              -7.2952
      3621                         -0.2679508              -7.2913
      3622                         -0.2661063              -7.2411
      3623                         -0.2644844              -7.1970
      3624                         -0.2626031              -7.1458
      3625                         -0.2612523              -7.1090
      3626                         -0.2609170              -7.0999
      3627                         -0.2602097              -7.0807
      3628                         -0.2597287              -7.0676
       ...                                ...                  ...
      6544                          0.8931306              24.3033
      -------------------------------------------------------------
                  HL-Gap            0.0285375 Eh            0.7765 eV
             Fermi-level           -0.3027492 Eh           -8.2382 eV

     #   Z        covCN         q      C6AA      α(0)
     1   7 N      3.491    -0.146    24.154     7.299
     2   1 H      0.860     0.317     0.665     1.277
     3   1 H      0.860     0.306     0.695     1.306
     4   1 H      0.860     0.306     0.695     1.306
     5   6 C      3.789    -0.035    21.218     6.560
     6   1 H      0.925     0.116     1.642     2.004
     7   6 C      3.841    -0.086    22.106     6.689
     8   1 H      0.925     0.104     1.748     2.067
     9   1 H      0.925     0.098     1.808     2.103
    10   6 C      3.803    -0.011    20.773     6.489
    11   1 H      0.925     0.073     2.050     2.239
    12   1 H      0.925     0.054     2.266     2.354
    13  16 S      1.983    -0.241   151.368    20.707
    14   6 C      3.743    -0.061    21.747     6.653
    15   1 H      0.925     0.060     2.199     2.319
    16   1 H      0.925     0.037     2.489     2.467
    17   1 H      0.928     0.073     2.052     2.240
    18   6 C      2.748     0.274    22.361     7.743
    19   8 O      0.867    -0.413    21.932     6.279
    20   7 N      2.689    -0.169    24.650     7.374
    21   1 H      0.860     0.195     1.133     1.667
    22   6 C      3.782     0.011    20.410     6.436
    23   1 H      0.925     0.113     1.671     2.022
    24   6 C      3.800    -0.123    22.850     6.806
    25   1 H      0.924     0.107     1.719     2.050
    26   1 H      0.925     0.098     1.803     2.100
    27   6 C      2.736     0.283    22.198     7.714
    28   8 O      0.865    -0.513    24.062     6.577
    29   7 N      2.642    -0.261    26.772     7.685
    30   1 H      0.860     0.235     0.944     1.522
    31   1 H      0.860     0.247     0.897     1.484
    32   6 C      2.748     0.267    22.497     7.766
    33   8 O      0.857    -0.481    23.379     6.483
    34   7 N      2.685    -0.181    24.912     7.413
    35   1 H      0.860     0.222     1.000     1.567
    36   6 C      3.773     0.018    20.307     6.421
    37   1 H      0.924     0.085     1.928     2.171
    38   6 C      3.827    -0.036    21.197     6.551
    39   1 H      0.925     0.082     1.954     2.186
    40   6 C      3.738    -0.130    23.092     6.857
    41   1 H      0.924     0.056     2.248     2.345
    42   1 H      0.925     0.068     2.105     2.269
    43   1 H      0.925     0.033     2.544     2.494
    44   6 C      3.796    -0.066    21.765     6.643
    45   1 H      0.924     0.032     2.552     2.498
    46   1 H      0.925     0.052     2.290     2.366
    47   6 C      3.745    -0.117    22.817     6.814
    48   1 H      0.925     0.044     2.396     2.420
    49   1 H      0.925     0.040     2.454     2.450
    50   1 H      0.924     0.056     2.243     2.342
    51   6 C      2.744     0.274    22.365     7.743
    52   8 O      0.861    -0.482    23.398     6.485
    53   7 N      2.679    -0.193    25.185     7.453
    54   1 H      0.860     0.203     1.089     1.635
    55   6 C      3.778     0.021    20.244     6.410
    56   1 H      0.924     0.082     1.958     2.188
    57   6 C      3.800    -0.077    21.980     6.675
    58   1 H      0.924     0.055     2.261     2.351
    59   1 H      0.925     0.060     2.203     2.321
    60   6 C      2.953     0.008    27.831     8.653
    61   6 C      2.932    -0.034    28.850     8.809
    62   1 H      0.926     0.022     2.708     2.573
    63   6 C      2.902    -0.031    28.765     8.794
    64   1 H      0.925     0.029     2.600     2.522
    65   6 C      2.921    -0.036    28.906     8.817
    66   1 H      0.926     0.036     2.507     2.476
    67   6 C      2.897    -0.043    29.075     8.841
    68   1 H      0.926     0.066     2.126     2.280
    69   6 C      2.916    -0.045    29.124     8.850
    70   1 H      0.926     0.050     2.322     2.383
    71   6 C      2.746     0.263    22.562     7.778
    72   8 O      0.857    -0.501    23.801     6.541
    73   7 N      2.681    -0.190    25.127     7.445
    74   1 H      0.860     0.247     0.894     1.481
    75   6 C      3.785     0.026    20.148     6.394
    76   1 H      0.925     0.059     2.206     2.323
    77   6 C      3.802    -0.056    21.576     6.613
    78   1 H      0.924     0.049     2.328     2.386
    79   1 H      0.925     0.067     2.116     2.275
    80   6 C      3.792    -0.102    22.454     6.748
    81   1 H      0.925     0.045     2.383     2.414
    82   1 H      0.924     0.047     2.362     2.403
    83   6 C      2.679     0.349    21.071     7.512
    84   8 O      0.856    -0.652    27.434     7.022
    85   8 O      0.856    -0.656    27.524     7.034
    86   6 C      2.752     0.279    22.278     7.729
    87   8 O      0.857    -0.490    23.563     6.508
    88   7 N      2.685    -0.193    25.180     7.453
    89   1 H      0.860     0.221     1.003     1.569
    90   6 C      3.784     0.016    20.326     6.422
    91   1 H      0.925     0.080     1.980     2.200
    92   6 C      3.818    -0.080    22.006     6.676
    93   1 H      0.924     0.063     2.160     2.298
    94   1 H      0.925     0.062     2.171     2.304
    95   6 C      3.795    -0.021    20.957     6.519
    96   1 H      0.924     0.060     2.197     2.318
    97   1 H      0.925     0.046     2.376     2.411
    98  16 S      1.964    -0.173   148.367    20.501
    99   6 C      3.742    -0.079    22.094     6.706
   100   1 H      0.924     0.070     2.084     2.258
   101   1 H      0.925     0.083     1.952     2.185
   102   1 H      0.925     0.068     2.112     2.273
   103   6 C      2.744     0.282    22.223     7.719
   104   8 O      0.864    -0.463    22.979     6.427
   105   7 N      2.690    -0.189    25.104     7.441
   106   1 H      0.860     0.200     1.108     1.649
   107   6 C      3.781     0.025    20.176     6.399
   108   1 H      0.925     0.077     2.012     2.218
   109   6 C      3.796    -0.082    22.077     6.691
   110   1 H      0.925     0.064     2.155     2.296
   111   1 H      0.924     0.067     2.121     2.278
   112   6 C      3.847    -0.024    20.972     6.514
   113   1 H      0.925     0.036     2.506     2.475
   114   6 C      3.753    -0.124    22.928     6.828
   115   1 H      0.925     0.061     2.187     2.313
   116   1 H      0.925     0.050     2.320     2.382
   117   1 H      0.925     0.036     2.500     2.473
   118   6 C      3.753    -0.132    23.094     6.853
   119   1 H      0.924     0.041     2.434     2.440
   120   1 H      0.924     0.047     2.355     2.400
   121   1 H      0.924     0.055     2.261     2.351
   122   6 C      2.743     0.270    22.434     7.755
   123   8 O      0.867    -0.499    23.765     6.536
   124   7 N      2.682    -0.193    25.178     7.452
   125   1 H      0.860     0.192     1.146     1.677
   126   6 C      3.776     0.017    20.315     6.422
   127   1 H      0.925     0.091     1.868     2.137
   128   6 C      3.797    -0.071    21.865     6.658
   129   1 H      0.925     0.072     2.068     2.249
   130   1 H      0.925     0.043     2.413     2.429
   131   6 C      3.788    -0.086    22.157     6.704
   132   1 H      0.925     0.064     2.156     2.296
   133   1 H      0.924     0.079     1.987     2.205
   134   6 C      3.723    -0.020    21.038     6.550
   135   1 H      0.924     0.087     1.911     2.162
   136   1 H      0.925     0.067     2.122     2.278
   137   7 N      2.774    -0.167    24.610     7.368
   138   1 H      0.860     0.204     1.084     1.631
   139   6 C      2.733     0.254    22.719     7.804
   140   7 N      2.649    -0.260    26.755     7.682
   141   1 H      0.860     0.258     0.851     1.445
   142   1 H      0.860     0.239     0.928     1.509
   143   7 N      2.743    -0.259    26.708     7.676
   144   1 H      0.860     0.258     0.853     1.447
   145   1 H      0.860     0.228     0.972     1.545
   146   6 C      2.751     0.281    22.243     7.723
   147   8 O      0.864    -0.493    23.620     6.516
   148   7 N      2.683    -0.190    25.113     7.443
   149   1 H      0.860     0.207     1.069     1.620
   150   6 C      3.776     0.009    20.460     6.445
   151   1 H      0.925     0.086     1.920     2.167
   152   6 C      3.832    -0.022    20.945     6.511
   153   1 H      0.924     0.050     2.319     2.381
   154   6 C      3.751    -0.119    22.850     6.817
   155   1 H      0.925     0.061     2.193     2.316
   156   1 H      0.924     0.053     2.278     2.360
   157   1 H      0.924     0.051     2.309     2.376
   158   6 C      3.782    -0.064    21.740     6.642
   159   1 H      0.924     0.032     2.557     2.500
   160   1 H      0.925     0.028     2.619     2.531
   161   6 C      3.742    -0.118    22.829     6.817
   162   1 H      0.925     0.037     2.495     2.470
   163   1 H      0.924     0.054     2.266     2.354
   164   1 H      0.924     0.044     2.398     2.422
   165   6 C      2.749     0.284    22.191     7.714
   166   8 O      0.860    -0.489    23.543     6.505
   167   7 N      2.682    -0.185    25.021     7.429
   168   1 H      0.860     0.215     1.032     1.591
   169   6 C      3.794     0.026    20.141     6.391
   170   1 H      0.924     0.089     1.891     2.150
   171   6 C      3.806    -0.089    22.197     6.707
   172   1 H      0.924     0.079     1.993     2.208
   173   1 H      0.924     0.039     2.462     2.454
   174   6 C      2.692     0.353    21.013     7.502
   175   8 O      0.856    -0.611    26.391     6.888
   176   8 O      0.857    -0.587    25.790     6.809
   177   6 C      2.746     0.273    22.386     7.747
   178   8 O      0.859    -0.486    23.471     6.495
   179   7 N      2.675    -0.189    25.108     7.442
   180   1 H      0.860     0.182     1.204     1.719
   181   6 C      3.778     0.018    20.293     6.418
   182   1 H      0.925     0.080     1.980     2.200
   183   6 C      3.805    -0.048    21.428     6.590
   184   1 H      0.925     0.032     2.565     2.504
   185   1 H      0.925     0.039     2.466     2.456
   186   6 C      3.798    -0.089    22.192     6.708
   187   1 H      0.924     0.037     2.493     2.469
   188   1 H      0.925     0.027     2.627     2.534
   189   6 C      2.683     0.358    20.927     7.486
   190   8 O      0.856    -0.619    26.581     6.912
   191   8 O      0.855    -0.658    27.595     7.043
   192   6 C      2.751     0.282    22.224     7.719
   193   8 O      0.860    -0.460    22.915     6.418
   194   7 N      2.684    -0.148    24.204     7.307
   195   1 H      0.860     0.193     1.140     1.673
   196   6 C      3.741    -0.038    21.330     6.589
   197   1 H      0.924     0.103     1.760     2.075
   198   1 H      0.925     0.074     2.038     2.233
   199   6 C      2.752     0.273    22.387     7.748
   200   8 O      0.862    -0.479    23.320     6.475
   201   7 N      2.694    -0.164    24.547     7.358
   202   1 H      0.860     0.218     1.020     1.582
   203   6 C      3.796     0.005    20.495     6.446
   204   1 H      0.925     0.075     2.035     2.231
   205   6 C      3.806    -0.085    22.123     6.696
   206   1 H      0.925     0.068     2.112     2.273
   207   1 H      0.925     0.048     2.339     2.392
   208   6 C      3.845    -0.018    20.869     6.498
   209   1 H      0.924     0.058     2.226     2.333
   210   6 C      3.765    -0.118    22.795     6.805
   211   1 H      0.925     0.038     2.479     2.462
   212   1 H      0.925     0.031     2.578     2.511
   213   1 H      0.925     0.034     2.525     2.485
   214   6 C      3.766    -0.119    22.812     6.807
   215   1 H      0.924     0.034     2.532     2.488
   216   1 H      0.925     0.029     2.598     2.521
   217   1 H      0.925     0.057     2.236     2.338
   218   6 C      2.740     0.271    22.415     7.752
   219   8 O      0.859    -0.440    22.489     6.358
   220   7 N      2.681    -0.176    24.814     7.398
   221   1 H      0.860     0.211     1.052     1.607
   222   6 C      3.779     0.004    20.534     6.456
   223   1 H      0.924     0.089     1.885     2.147
   224   6 C      3.803    -0.080    22.028     6.682
   225   1 H      0.924     0.079     1.987     2.204
   226   1 H      0.925     0.063     2.163     2.300
   227   6 C      3.798    -0.100    22.401     6.739
   228   1 H      0.925     0.049     2.331     2.388
   229   1 H      0.924     0.089     1.889     2.149
   230   6 C      3.729    -0.049    21.545     6.626
   231   1 H      0.925     0.128     1.553     1.949
   232   1 H      0.925     0.077     2.008     2.216
   233   7 N      2.725    -0.157    24.399     7.336
   234   1 H      0.860     0.254     0.869     1.460
   235   6 C      2.734     0.239    22.997     7.851
   236   7 N      2.670    -0.228    25.994     7.572
   237   1 H      0.860     0.242     0.913     1.497
   238   1 H      0.860     0.235     0.946     1.523
   239   7 N      2.682    -0.281    27.263     7.755
   240   1 H      0.860     0.227     0.977     1.548
   241   1 H      0.860     0.269     0.814     1.413
   242   6 C      2.739     0.269    22.460     7.759
   243   8 O      0.861    -0.471    23.142     6.450
   244   7 N      2.693    -0.189    25.106     7.442
   245   1 H      0.860     0.221     1.007     1.572
   246   6 C      3.786     0.013    20.374     6.429
   247   1 H      0.925     0.080     1.981     2.201
   248   6 C      3.810    -0.087    22.160     6.701
   249   1 H      0.924     0.071     2.072     2.251
   250   1 H      0.925     0.067     2.123     2.278
   251   6 C      3.840    -0.020    20.909     6.505
   252   1 H      0.925     0.051     2.305     2.374
   253   6 C      3.748    -0.132    23.106     6.856
   254   1 H      0.925     0.043     2.413     2.429
   255   1 H      0.924     0.056     2.244     2.343
   256   1 H      0.924     0.053     2.279     2.361
   257   6 C      3.756    -0.122    22.888     6.821
   258   1 H      0.924     0.053     2.287     2.365
   259   1 H      0.925     0.041     2.436     2.441
   260   1 H      0.925     0.032     2.559     2.501
   261   6 C      2.749     0.274    22.371     7.745
   262   8 O      0.861    -0.474    23.221     6.461
   263   7 N      2.689    -0.161    24.483     7.349
   264   1 H      0.860     0.202     1.095     1.639
   265   6 C      3.774     0.002    20.582     6.464
   266   1 H      0.925     0.081     1.965     2.192
   267   6 C      3.793    -0.083    22.086     6.692
   268   1 H      0.924     0.069     2.100     2.266
   269   1 H      0.925     0.073     2.056     2.243
   270   6 C      3.795    -0.080    22.034     6.684
   271   1 H      0.925     0.068     2.111     2.272
   272   1 H      0.924     0.064     2.158     2.297
   273   6 C      3.801    -0.103    22.475     6.750
   274   1 H      0.924     0.080     1.981     2.201
   275   1 H      0.924     0.085     1.928     2.171
   276   6 C      3.732    -0.063    21.805     6.665
   277   1 H      0.925     0.123     1.587     1.970
   278   1 H      0.924     0.112     1.677     2.025
   279   7 N      3.489    -0.157    24.377     7.333
   280   1 H      0.860     0.308     0.691     1.302
   281   1 H      0.860     0.301     0.712     1.321
   282   1 H      0.860     0.303     0.705     1.315
   283   6 C      2.748     0.271    22.423     7.754
   284   8 O      0.866    -0.490    23.564     6.509
   285   7 N      2.690    -0.163    24.518     7.354
   286   1 H      0.860     0.205     1.083     1.630
   287   6 C      3.788     0.007    20.466     6.443
   288   1 H      0.925     0.073     2.052     2.240
   289   6 C      3.841    -0.033    21.139     6.541
   290   1 H      0.924     0.065     2.140     2.288
   291   6 C      3.752    -0.125    22.963     6.834
   292   1 H      0.925     0.067     2.122     2.278
   293   1 H      0.925     0.034     2.533     2.489
   294   1 H      0.925     0.051     2.310     2.377
   295   6 C      3.793    -0.081    22.055     6.688
   296   1 H      0.925     0.056     2.249     2.345
   297   1 H      0.925     0.033     2.542     2.493
   298   6 C      3.748    -0.123    22.928     6.830
   299   1 H      0.925     0.046     2.370     2.408
   300   1 H      0.925     0.066     2.130     2.282
   301   1 H      0.924     0.031     2.575     2.509
   302   6 C      2.747     0.281    22.237     7.721
   303   8 O      0.857    -0.458    22.875     6.412
   304   7 N      2.686    -0.183    24.972     7.422
   305   1 H      0.860     0.225     0.986     1.555
   306   6 C      3.790     0.005    20.504     6.449
   307   1 H      0.924     0.109     1.709     2.044
   308   6 C      3.829    -0.092    22.227     6.708
   309   1 H      0.924     0.105     1.739     2.062
   310   1 H      0.925     0.080     1.982     2.202
   311   6 C      2.957     0.002    27.988     8.677
   312   6 C      2.906    -0.057    29.417     8.893
   313   1 H      0.926     0.063     2.165     2.301
   314   6 C      2.899    -0.068    29.696     8.935
   315   1 H      0.926     0.006     2.963     2.692
   316   6 C      2.835     0.132    25.097     8.210
   317   8 O      1.657    -0.442    21.688     6.287
   318   1 H      0.805     0.295     0.737     1.349
   319   6 C      2.900    -0.058    29.449     8.898
   320   1 H      0.925     0.046     2.376     2.411
   321   6 C      2.918    -0.054    29.347     8.883
   322   1 H      0.926     0.086     1.913     2.163
   323   6 C      2.753     0.274    22.367     7.744
   324   8 O      0.860    -0.463    22.988     6.428
   325   7 N      2.684    -0.171    24.706     7.382
   326   1 H      0.860     0.220     1.008     1.573
   327   6 C      3.794     0.013    20.363     6.426
   328   1 H      0.925     0.078     2.001     2.212
   329   6 C      3.803    -0.069    21.814     6.649
   330   1 H      0.925     0.034     2.534     2.490
   331   1 H      0.924     0.071     2.070     2.250
   332   6 C      3.801    -0.084    22.095     6.692
   333   1 H      0.924     0.084     1.940     2.178
   334   1 H      0.925     0.062     2.174     2.306
   335   6 C      3.792    -0.096    22.350     6.732
   336   1 H      0.925     0.065     2.139     2.287
   337   1 H      0.924     0.076     2.022     2.224
   338   6 C      3.725    -0.062    21.795     6.666
   339   1 H      0.925     0.136     1.492     1.910
   340   1 H      0.924     0.115     1.654     2.011
   341   7 N      3.488    -0.140    24.012     7.278
   342   1 H      0.860     0.303     0.703     1.314
   343   1 H      0.860     0.288     0.749     1.356
   344   1 H      0.860     0.305     0.698     1.309
   345   6 C      2.759     0.269    22.450     7.759
   346   8 O      0.859    -0.522    24.280     6.606
   347   7 N      2.696    -0.174    24.765     7.391
   348   1 H      0.860     0.230     0.967     1.541
   349   6 C      3.780     0.049    19.766     6.334
   350   1 H      0.924     0.059     2.206     2.323
   351   6 C      3.817    -0.086    22.125     6.694
   352   1 H      0.925     0.026     2.643     2.542
   353   1 H      0.924     0.064     2.156     2.296
   354   6 C      2.692     0.367    20.782     7.461
   355   8 O      0.856    -0.635    27.004     6.967
   356   8 O      0.859    -0.647    27.291     7.004
   357   6 C      2.724     0.247    22.847     7.825
   358   8 O      0.856    -0.479    23.322     6.475
   359   7 N      2.676    -0.181    24.933     7.416
   360   1 H      0.860     0.198     1.114     1.654
   361   6 C      3.774     0.014    20.365     6.430
   362   1 H      0.925     0.099     1.799     2.097
   363   6 C      3.722     0.119    18.738     6.182
   364   1 H      0.925     0.037     2.489     2.467
   365   6 C      3.757    -0.135    23.151     6.860
   366   1 H      0.925     0.073     2.051     2.240
   367   1 H      0.924     0.065     2.137     2.286
   368   1 H      0.924     0.050     2.315     2.379
   369   8 O      1.661    -0.511    23.121     6.491
   370   1 H      0.806     0.350     0.588     1.204
   371   6 C      2.743     0.288    22.114     7.700
   372   8 O      0.881    -0.496    23.688     6.526
   373   7 N      2.700    -0.190    25.127     7.445
   374   1 H      0.860     0.188     1.168     1.693
   375   6 C      3.771     0.025    20.191     6.403
   376   1 H      0.924     0.080     1.979     2.200
   377   6 C      3.793    -0.040    21.300     6.572
   378   1 H      0.925     0.031     2.568     2.506
   379   1 H      0.924     0.047     2.354     2.399
   380   6 C      3.803    -0.092    22.261     6.717
   381   1 H      0.924     0.044     2.399     2.422
   382   1 H      0.924     0.050     2.326     2.385
   383   6 C      2.690     0.365    20.813     7.466
   384   8 O      0.857    -0.610    26.367     6.885
   385   8 O      0.857    -0.626    26.756     6.935
   386   6 C      2.750     0.277    22.317     7.736
   387   8 O      0.864    -0.493    23.622     6.517
   388   7 N      2.689    -0.180    24.897     7.411
   389   1 H      0.860     0.201     1.099     1.642
   390   6 C      3.744    -0.029    21.170     6.564
   391   1 H      0.925     0.106     1.733     2.059
   392   1 H      0.925     0.105     1.736     2.061
   393   6 C      2.750     0.269    22.463     7.761
   394   8 O      0.859    -0.506    23.928     6.558
   395   7 N      2.691    -0.136    23.958     7.270
   396   1 H      0.860     0.179     1.220     1.730
   397   6 C      3.790     0.015    20.329     6.421
   398   1 H      0.925     0.094     1.843     2.123
   399   6 C      3.813    -0.078    21.981     6.673
   400   1 H      0.925     0.084     1.936     2.176
   401   1 H      0.925     0.045     2.386     2.416
   402   6 C      2.957    -0.003    28.103     8.695
   403   6 C      2.922    -0.040    28.999     8.831
   404   1 H      0.926     0.033     2.537     2.491
   405   6 C      2.900    -0.064    29.587     8.919
   406   1 H      0.925     0.060     2.201     2.320
   407   6 C      2.848     0.137    25.006     8.196
   408   8 O      1.661    -0.418    21.200     6.216
   409   1 H      0.807     0.356     0.575     1.191
   410   6 C      2.903    -0.074    29.842     8.957
   411   1 H      0.926     0.058     2.223     2.332
   412   6 C      2.906    -0.039    28.977     8.827
   413   1 H      0.926     0.044     2.399     2.422
   414   6 C      2.744     0.266    22.518     7.770
   415   8 O      0.858    -0.507    23.930     6.559
   416   7 N      2.679    -0.158    24.416     7.339
   417   1 H      0.860     0.218     1.018     1.581
   418   6 C      3.786     0.002    20.557     6.458
   419   1 H      0.924     0.098     1.801     2.099
   420   6 C      3.807    -0.077    21.960     6.671
   421   1 H      0.925     0.078     2.001     2.212
   422   1 H      0.924     0.061     2.190     2.314
   423   6 C      2.952    -0.025    28.618     8.774
   424   6 C      2.911    -0.044    29.095     8.845
   425   1 H      0.926     0.022     2.701     2.570
   426   6 C      2.900    -0.077    29.918     8.968
   427   1 H      0.926     0.037     2.489     2.467
   428   6 C      2.834     0.147    24.804     8.162
   429   8 O      1.662    -0.383    20.516     6.115
   430   1 H      0.806     0.351     0.586     1.202
   431   6 C      2.900    -0.075    29.871     8.961
   432   1 H      0.925     0.081     1.972     2.196
   433   6 C      2.904    -0.056    29.390     8.889
   434   1 H      0.926     0.065     2.144     2.290
   435   6 C      2.750     0.274    22.375     7.746
   436   8 O      0.857    -0.492    23.613     6.515
   437   7 N      2.692    -0.186    25.032     7.431
   438   1 H      0.860     0.249     0.886     1.475
   439   6 C      3.777    -0.002    20.646     6.474
   440   1 H      0.924     0.072     2.065     2.247
   441   6 C      3.722     0.130    18.572     6.155
   442   1 H      0.925     0.018     2.765     2.600
   443   6 C      3.750    -0.119    22.842     6.816
   444   1 H      0.925     0.054     2.268     2.355
   445   1 H      0.924     0.050     2.316     2.380
   446   1 H      0.924     0.050     2.319     2.382
   447   8 O      1.662    -0.463    22.111     6.348
   448   1 H      0.805     0.321     0.660     1.276
   449   6 C      2.742     0.255    22.709     7.802
   450   8 O      0.860    -0.442    22.547     6.366
   451   7 N      2.675    -0.174    24.772     7.392
   452   1 H      0.860     0.207     1.072     1.622
   453   6 C      3.775     0.012    20.408     6.437
   454   1 H      0.925     0.096     1.822     2.111
   455   6 C      3.840    -0.030    21.081     6.532
   456   1 H      0.924     0.074     2.037     2.232
   457   6 C      3.743    -0.130    23.064     6.851
   458   1 H      0.924     0.044     2.401     2.423
   459   1 H      0.925     0.070     2.082     2.257
   460   1 H      0.924     0.034     2.526     2.485
   461   6 C      3.794    -0.085    22.131     6.699
   462   1 H      0.924     0.064     2.150     2.293
   463   1 H      0.925     0.053     2.278     2.360
   464   6 C      3.745    -0.116    22.799     6.811
   465   1 H      0.925     0.037     2.493     2.469
   466   1 H      0.924     0.043     2.412     2.429
   467   1 H      0.925     0.046     2.376     2.411
   468   6 C      2.741     0.265    22.522     7.770
   469   8 O      0.861    -0.496    23.692     6.526
   470   7 N      2.690    -0.167    24.618     7.369
   471   1 H      0.860     0.235     0.942     1.521
   472   6 C      3.747    -0.016    20.932     6.526
   473   1 H      0.925     0.054     2.270     2.356
   474   1 H      0.924     0.107     1.718     2.050
   475   6 C      2.757     0.280    22.264     7.727
   476   8 O      0.863    -0.460    22.910     6.417
   477   7 N      2.688    -0.181    24.915     7.413
   478   1 H      0.860     0.189     1.162     1.689
   479   6 C      3.795     0.001    20.564     6.457
   480   1 H      0.925     0.073     2.052     2.240
   481   6 C      3.841    -0.021    20.915     6.506
   482   1 H      0.924     0.040     2.455     2.450
   483   6 C      3.755    -0.108    22.617     6.781
   484   1 H      0.925     0.024     2.673     2.557
   485   1 H      0.924     0.046     2.369     2.407
   486   1 H      0.924     0.053     2.289     2.366
   487   6 C      3.793    -0.061    21.687     6.632
   488   1 H      0.924     0.022     2.704     2.572
   489   1 H      0.925     0.052     2.291     2.367
   490   6 C      3.748    -0.108    22.636     6.786
   491   1 H      0.925     0.050     2.323     2.383
   492   1 H      0.925     0.040     2.451     2.448
   493   1 H      0.924     0.035     2.522     2.483
   494   6 C      2.756     0.275    22.359     7.743
   495   8 O      0.858    -0.461    22.929     6.420
   496   7 N      2.693    -0.176    24.802     7.397
   497   1 H      0.860     0.217     1.023     1.585
   498   6 C      3.747    -0.042    21.397     6.598
   499   1 H      0.925     0.089     1.890     2.150
   500   1 H      0.925     0.088     1.901     2.156
   501   6 C      2.749     0.285    22.165     7.709
   502   8 O      0.861    -0.439    22.466     6.355
   503   7 N      2.682    -0.198    25.299     7.470
   504   1 H      0.860     0.223     0.998     1.565
   505   6 C      3.793     0.026    20.152     6.393
   506   1 H      0.925     0.055     2.258     2.350
   507   6 C      3.804    -0.082    22.063     6.687
   508   1 H      0.925     0.116     1.644     2.005
   509   1 H      0.925     0.090     1.882     2.146
   510   6 C      3.065     0.057    26.650     8.465
   511   7 N      2.746    -0.036    21.939     6.957
   512   1 H      0.860     0.259     0.850     1.445
   513   6 C      3.017     0.055    26.737     8.482
   514   1 H      0.926     0.142     1.444     1.879
   515   7 N      2.763    -0.002    21.305     6.855
   516   1 H      0.860     0.266     0.823     1.421
   517   6 C      2.993    -0.021    28.515     8.760
   518   1 H      0.926     0.131     1.531     1.935
   519   6 C      2.747     0.266    22.503     7.767
   520   8 O      0.858    -0.490    23.563     6.508
   521   7 N      2.686    -0.151    24.275     7.318
   522   1 H      0.860     0.213     1.043     1.600
   523   6 C      3.790     0.010    20.413     6.435
   524   1 H      0.924     0.067     2.115     2.274
   525   6 C      3.806    -0.079    22.012     6.679
   526   1 H      0.924     0.053     2.286     2.364
   527   1 H      0.924     0.060     2.200     2.320
   528   6 C      3.847    -0.015    20.816     6.490
   529   1 H      0.924     0.030     2.585     2.514
   530   6 C      3.758    -0.123    22.913     6.824
   531   1 H      0.925     0.047     2.354     2.399
   532   1 H      0.924     0.045     2.377     2.411
   533   1 H      0.925     0.036     2.505     2.475
   534   6 C      3.754    -0.136    23.182     6.865
   535   1 H      0.924     0.047     2.364     2.404
   536   1 H      0.925     0.064     2.158     2.297
   537   1 H      0.925     0.070     2.085     2.258
   538   6 C      2.755     0.286    22.154     7.707
   539   8 O      0.859    -0.461    22.948     6.423
   540   7 N      2.692    -0.195    25.224     7.459
   541   1 H      0.860     0.226     0.983     1.553
   542   6 C      3.801     0.021    20.214     6.401
   543   1 H      0.925     0.072     2.061     2.245
   544   6 C      3.802    -0.079    22.001     6.678
   545   1 H      0.924     0.050     2.320     2.382
   546   1 H      0.925     0.060     2.203     2.321
   547   6 C      3.846    -0.011    20.736     6.477
   548   1 H      0.925     0.046     2.372     2.409
   549   6 C      3.761    -0.116    22.766     6.802
   550   1 H      0.924     0.053     2.285     2.364
   551   1 H      0.924     0.041     2.432     2.439
   552   1 H      0.925     0.063     2.159     2.298
   553   6 C      3.757    -0.114    22.739     6.799
   554   1 H      0.924     0.044     2.396     2.420
   555   1 H      0.925     0.015     2.805     2.619
   556   1 H      0.925     0.036     2.501     2.473
   557   6 C      2.752     0.271    22.413     7.752
   558   8 O      0.859    -0.518    24.187     6.594
   559   7 N      2.688    -0.177    24.823     7.400
   560   1 H      0.860     0.220     1.008     1.573
   561   6 C      3.786     0.005    20.502     6.449
   562   1 H      0.925     0.072     2.069     2.249
   563   6 C      3.717     0.107    18.941     6.217
   564   1 H      0.925     0.046     2.369     2.407
   565   6 C      3.750    -0.127    23.010     6.841
   566   1 H      0.925     0.071     2.072     2.251
   567   1 H      0.925     0.057     2.230     2.335
   568   1 H      0.924     0.061     2.189     2.314
   569   8 O      1.657    -0.479    22.445     6.396
   570   1 H      0.805     0.347     0.596     1.213
   571   6 C      2.750     0.265    22.533     7.773
   572   8 O      0.857    -0.466    23.048     6.437
   573   7 N      2.706    -0.179    24.885     7.409
   574   1 H      0.860     0.226     0.982     1.553
   575   6 C      3.793     0.021    20.236     6.406
   576   1 H      0.925     0.101     1.779     2.086
   577   6 C      3.818    -0.084    22.085     6.688
   578   1 H      0.925     0.076     2.016     2.221
   579   1 H      0.924     0.073     2.053     2.241
   580   6 C      3.800    -0.082    22.066     6.688
   581   1 H      0.924     0.050     2.320     2.382
   582   1 H      0.925     0.054     2.276     2.359
   583   6 C      3.803    -0.097    22.347     6.730
   584   1 H      0.925     0.080     1.977     2.199
   585   1 H      0.924     0.081     1.971     2.196
   586   6 C      3.737    -0.053    21.609     6.634
   587   1 H      0.925     0.120     1.611     1.985
   588   1 H      0.925     0.119     1.622     1.992
   589   7 N      3.488    -0.151    24.257     7.315
   590   1 H      0.860     0.298     0.719     1.329
   591   1 H      0.860     0.306     0.696     1.307
   592   1 H      0.860     0.302     0.707     1.317
   593   6 C      2.754     0.264    22.545     7.775
   594   8 O      0.859    -0.508    23.956     6.562
   595   7 N      2.686    -0.168    24.645     7.373
   596   1 H      0.860     0.223     0.997     1.564
   597   6 C      3.788     0.019    20.260     6.411
   598   1 H      0.925     0.088     1.901     2.156
   599   6 C      3.688     0.059    19.766     6.364
   600   1 H      0.925     0.055     2.261     2.352
   601   1 H      0.924     0.072     2.066     2.248
   602   8 O      1.651    -0.482    22.506     6.404
   603   1 H      0.805     0.346     0.597     1.214
   604   6 C      2.770     0.253    22.750     7.812
   605   8 O      0.862    -0.492    23.607     6.514
   606   7 N      2.751    -0.102    23.238     7.160
   607   6 C      3.786    -0.016    20.885     6.509
   608   1 H      0.925     0.070     2.090     2.261
   609   1 H      0.924     0.066     2.130     2.282
   610   6 C      3.813    -0.074    21.898     6.660
   611   1 H      0.925     0.062     2.179     2.308
   612   1 H      0.925     0.067     2.116     2.275
   613   6 C      3.856    -0.069    21.778     6.637
   614   1 H      0.924     0.066     2.129     2.282
   615   1 H      0.925     0.054     2.268     2.355
   616   6 C      3.804     0.019    20.247     6.406
   617   1 H      0.924     0.094     1.839     2.121
   618   6 C      2.745     0.268    22.467     7.761
   619   8 O      0.858    -0.464    23.010     6.431
   620   7 N      2.682    -0.165    24.575     7.363
   621   1 H      0.860     0.203     1.089     1.634
   622   6 C      3.809     0.009    20.417     6.432
   623   1 H      0.924     0.092     1.861     2.133
   624   6 C      3.700     0.074    19.490     6.313
   625   1 H      0.925     0.043     2.412     2.429
   626   1 H      0.925     0.046     2.370     2.408
   627   8 O      1.659    -0.476    22.374     6.386
   628   1 H      0.806     0.352     0.584     1.200
   629   6 C      2.779     0.286    22.157     7.710
   630   8 O      0.863    -0.465    23.014     6.432
   631   7 N      2.704    -0.181    24.929     7.415
   632   1 H      0.860     0.220     1.008     1.572
   633   6 C      3.794     0.016    20.306     6.417
   634   1 H      0.925     0.104     1.750     2.069
   635   6 C      3.799    -0.090    22.219     6.711
   636   1 H      0.925     0.049     2.334     2.389
   637   1 H      0.925     0.075     2.027     2.227
   638   6 C      3.841    -0.016    20.833     6.493
   639   1 H      0.925     0.047     2.359     2.402
   640   6 C      3.753    -0.133    23.123     6.857
   641   1 H      0.924     0.060     2.204     2.322
   642   1 H      0.924     0.060     2.199     2.319
   643   1 H      0.924     0.040     2.454     2.450
   644   6 C      3.757    -0.127    22.995     6.837
   645   1 H      0.925     0.042     2.428     2.437
   646   1 H      0.924     0.065     2.140     2.288
   647   1 H      0.925     0.038     2.481     2.463
   648   6 C      2.743     0.262    22.585     7.781
   649   8 O      0.856    -0.487    23.507     6.500
   650   7 N      2.688    -0.188    25.075     7.437
   651   1 H      0.860     0.226     0.981     1.551
   652   6 C      3.798     0.024    20.175     6.396
   653   1 H      0.924     0.101     1.778     2.085
   654   6 C      3.821    -0.121    22.789     6.794
   655   1 H      0.924     0.086     1.922     2.168
   656   1 H      0.925     0.106     1.732     2.058
   657   6 C      2.744     0.294    22.011     7.682
   658   8 O      0.861    -0.517    24.155     6.589
   659   7 N      2.646    -0.274    27.096     7.731
   660   1 H      0.860     0.239     0.929     1.510
   661   1 H      0.860     0.237     0.935     1.514
   662   6 C      2.756     0.279    22.273     7.728
   663   8 O      0.859    -0.476    23.254     6.465
   664   7 N      2.688    -0.190    25.129     7.445
   665   1 H      0.860     0.229     0.969     1.542
   666   6 C      3.778     0.015    20.347     6.426
   667   1 H      0.924     0.081     1.968     2.194
   668   6 C      3.759    -0.145    23.356     6.890
   669   1 H      0.924     0.090     1.880     2.144
   670   1 H      0.925     0.081     1.968     2.194
   671   1 H      0.925     0.060     2.202     2.320
   672   6 C      2.746     0.266    22.510     7.769
   673   8 O      0.861    -0.494    23.646     6.520
   674   7 N      2.692    -0.190    25.121     7.444
   675   1 H      0.860     0.214     1.035     1.594
   676   6 C      3.791     0.023    20.203     6.401
   677   1 H      0.925     0.073     2.055     2.242
   678   6 C      3.757    -0.139    23.233     6.872
   679   1 H      0.925     0.066     2.132     2.283
   680   1 H      0.924     0.090     1.876     2.142
   681   1 H      0.924     0.075     2.029     2.227
   682   6 C      2.752     0.269    22.454     7.759
   683   8 O      0.860    -0.504    23.862     6.549
   684   7 N      2.683    -0.200    25.346     7.477
   685   1 H      0.860     0.241     0.921     1.503
   686   6 C      3.796     0.008    20.443     6.438
   687   1 H      0.924     0.090     1.877     2.143
   688   6 C      3.822    -0.083    22.060     6.684
   689   1 H      0.924     0.062     2.171     2.304
   690   1 H      0.924     0.078     2.003     2.213
   691   6 C      3.816    -0.085    22.106     6.692
   692   1 H      0.924     0.095     1.833     2.117
   693   1 H      0.925     0.069     2.095     2.263
   694   6 C      3.817    -0.107    22.524     6.755
   695   1 H      0.924     0.086     1.922     2.168
   696   1 H      0.924     0.095     1.835     2.119
   697   6 C      3.733    -0.049    21.542     6.625
   698   1 H      0.925     0.104     1.746     2.067
   699   1 H      0.925     0.097     1.815     2.107
   700   7 N      3.490    -0.161    24.476     7.348
   701   1 H      0.860     0.303     0.705     1.315
   702   1 H      0.860     0.285     0.759     1.365
   703   1 H      0.860     0.308     0.691     1.302
   704   6 C      2.741     0.270    22.441     7.756
   705   8 O      0.866    -0.522    24.267     6.605
   706   7 N      2.706    -0.194    25.200     7.456
   707   1 H      0.860     0.223     0.995     1.562
   708   6 C      3.789     0.013    20.374     6.429
   709   1 H      0.925     0.087     1.904     2.158
   710   6 C      3.697     0.060    19.739     6.355
   711   1 H      0.925     0.047     2.354     2.399
   712   1 H      0.924     0.071     2.075     2.253
   713   8 O      1.655    -0.484    22.557     6.411
   714   1 H      0.805     0.364     0.556     1.171
   715   6 C      2.756     0.274    22.365     7.744
   716   8 O      0.859    -0.469    23.105     6.445
   717   7 N      2.688    -0.181    24.919     7.414
   718   1 H      0.860     0.213     1.044     1.600
   719   6 C      3.807     0.035    19.984     6.364
   720   1 H      0.924     0.065     2.140     2.288
   721   6 C      3.821    -0.059    21.609     6.615
   722   1 H      0.925     0.053     2.282     2.362
   723   1 H      0.924     0.062     2.181     2.309
   724   6 C      3.805    -0.087    22.157     6.701
   725   1 H      0.924     0.014     2.821     2.627
   726   1 H      0.924     0.047     2.355     2.400
   727   6 C      2.693     0.377    20.611     7.430
   728   8 O      0.857    -0.644    27.233     6.997
   729   8 O      0.858    -0.677    28.075     7.104
   730   6 C      2.766     0.282    22.218     7.719
   731   8 O      0.859    -0.516    24.153     6.589
   732   7 N      2.687    -0.182    24.948     7.418
   733   1 H      0.860     0.224     0.992     1.561
   734   6 C      3.790     0.018    20.280     6.414
   735   1 H      0.924     0.064     2.148     2.292
   736   6 C      3.800    -0.082    22.067     6.688
   737   1 H      0.925     0.053     2.282     2.362
   738   1 H      0.925     0.077     2.007     2.215
   739   6 C      3.840    -0.018    20.863     6.498
   740   1 H      0.925     0.035     2.512     2.478
   741   6 C      3.751    -0.119    22.851     6.817
   742   1 H      0.925     0.060     2.199     2.319
   743   1 H      0.925     0.018     2.760     2.598
   744   1 H      0.925     0.052     2.297     2.370
   745   6 C      3.755    -0.124    22.943     6.830
   746   1 H      0.925     0.041     2.435     2.441
   747   1 H      0.925     0.073     2.053     2.241
   748   1 H      0.925     0.050     2.322     2.383
   749   6 C      2.748     0.281    22.245     7.723
   750   8 O      0.860    -0.495    23.667     6.523
   751   7 N      2.690    -0.199    25.317     7.473
   752   1 H      0.860     0.213     1.041     1.598
   753   6 C      3.797     0.036    19.968     6.363
   754   1 H      0.924     0.075     2.033     2.230
   755   6 C      3.808    -0.084    22.101     6.692
   756   1 H      0.924     0.030     2.593     2.518
   757   1 H      0.925     0.050     2.314     2.379
   758   6 C      2.688     0.378    20.603     7.428
   759   8 O      0.856    -0.633    26.938     6.959
   760   8 O      0.859    -0.613    26.445     6.895
   761   6 C      2.748     0.286    22.150     7.706
   762   8 O      0.859    -0.463    22.970     6.426
   763   7 N      2.683    -0.210    25.569     7.510
   764   1 H      0.860     0.193     1.141     1.673
   765   6 C      3.775     0.015    20.356     6.429
   766   1 H      0.925     0.079     1.988     2.205
   767   6 C      3.801    -0.070    21.834     6.653
   768   1 H      0.924     0.053     2.287     2.365
   769   1 H      0.924     0.054     2.270     2.356
   770   6 C      3.801    -0.077    21.976     6.674
   771   1 H      0.925     0.068     2.108     2.270
   772   1 H      0.925     0.062     2.172     2.304
   773   6 C      3.810    -0.086    22.128     6.696
   774   1 H      0.925     0.076     2.016     2.220
   775   1 H      0.925     0.074     2.037     2.232
   776   6 C      3.729    -0.049    21.549     6.627
   777   1 H      0.924     0.123     1.591     1.973
   778   1 H      0.925     0.136     1.488     1.908
   779   7 N      3.486    -0.138    23.973     7.272
   780   1 H      0.860     0.285     0.759     1.365
   781   1 H      0.860     0.278     0.782     1.385
   782   1 H      0.860     0.302     0.706     1.316
   783   6 C      2.744     0.266    22.512     7.769
   784   8 O      0.858    -0.503    23.848     6.547
   785   7 N      2.683    -0.201    25.364     7.480
   786   1 H      0.860     0.219     1.014     1.577
   787   6 C      3.774     0.024    20.194     6.403
   788   1 H      0.925     0.070     2.089     2.260
   789   6 C      3.747    -0.125    22.967     6.836
   790   1 H      0.925     0.078     2.002     2.212
   791   1 H      0.925     0.054     2.276     2.359
   792   1 H      0.924     0.064     2.156     2.296
   793   6 C      2.740     0.272    22.399     7.749
   794   8 O      0.864    -0.483    23.412     6.487
   795   7 N      2.693    -0.173    24.739     7.387
   796   1 H      0.860     0.201     1.101     1.644
   797   6 C      3.791     0.019    20.259     6.410
   798   1 H      0.925     0.090     1.877     2.143
   799   6 C      3.857    -0.020    20.893     6.501
   800   1 H      0.925     0.061     2.189     2.314
   801   6 C      3.755    -0.110    22.655     6.787
   802   1 H      0.924     0.059     2.209     2.324
   803   1 H      0.925     0.031     2.572     2.508
   804   1 H      0.924     0.032     2.560     2.502
   805   6 C      3.799    -0.069    21.818     6.651
   806   1 H      0.925     0.043     2.403     2.424
   807   1 H      0.924     0.053     2.278     2.361
   808   6 C      3.748    -0.116    22.778     6.807
   809   1 H      0.924     0.054     2.275     2.359
   810   1 H      0.924     0.038     2.470     2.458
   811   1 H      0.925     0.048     2.350     2.397
   812   6 C      2.744     0.278    22.287     7.730
   813   8 O      0.859    -0.450    22.695     6.387
   814   7 N      2.680    -0.197    25.290     7.469
   815   1 H      0.860     0.174     1.248     1.750
   816   6 C      3.737    -0.026    21.120     6.558
   817   1 H      0.924     0.102     1.767     2.079
   818   1 H      0.925     0.094     1.841     2.122
   819   6 C      2.744     0.281    22.245     7.723
   820   8 O      0.858    -0.489    23.548     6.506
   821   7 N      2.681    -0.160    24.462     7.346
   822   1 H      0.860     0.197     1.119     1.657
   823   6 C      3.775     0.014    20.364     6.430
   824   1 H      0.924     0.084     1.935     2.175
   825   6 C      3.793    -0.081    22.056     6.688
   826   1 H      0.925     0.085     1.928     2.171
   827   1 H      0.924     0.072     2.067     2.248
   828   6 C      3.794    -0.067    21.788     6.647
   829   1 H      0.925     0.044     2.391     2.418
   830   1 H      0.924     0.054     2.266     2.354
   831   6 C      3.729    -0.031    21.219     6.576
   832   1 H      0.924     0.096     1.825     2.113
   833   1 H      0.924     0.094     1.837     2.119
   834   7 N      2.702    -0.171    24.696     7.381
   835   1 H      0.860     0.248     0.890     1.478
   836   6 C      2.735     0.243    22.936     7.841
   837   7 N      2.668    -0.268    26.941     7.709
   838   1 H      0.860     0.246     0.898     1.484
   839   1 H      0.860     0.237     0.937     1.517
   840   7 N      2.678    -0.294    27.580     7.800
   841   1 H      0.860     0.223     0.995     1.562
   842   1 H      0.860     0.247     0.896     1.483
   843   6 C      2.751     0.278    22.293     7.731
   844   8 O      0.859    -0.473    23.188     6.456
   845   7 N      2.685    -0.216    25.717     7.532
   846   1 H      0.860     0.216     1.027     1.588
   847   6 C      3.787     0.044    19.846     6.345
   848   1 H      0.925     0.058     2.224     2.332
   849   6 C      3.817    -0.108    22.548     6.758
   850   1 H      0.924     0.094     1.838     2.120
   851   1 H      0.925     0.085     1.924     2.169
   852   6 C      2.750     0.295    22.002     7.681
   853   8 O      0.872    -0.537    24.616     6.652
   854   7 N      2.654    -0.279    27.210     7.747
   855   1 H      0.860     0.262     0.840     1.435
   856   1 H      0.860     0.242     0.914     1.498
   857   6 C      2.742     0.272    22.393     7.748
   858   8 O      0.857    -0.499    23.759     6.535
   859   7 N      2.684    -0.191    25.150     7.448
   860   1 H      0.860     0.215     1.032     1.591
   861   6 C      3.818     0.035    19.978     6.361
   862   1 H      0.925     0.086     1.913     2.163
   863   6 C      3.796    -0.026    21.048     6.533
   864   1 H      0.925     0.060     2.197     2.318
   865   1 H      0.925     0.101     1.771     2.081
   866  16 S      1.916    -0.252   151.890    20.743
   867   1 H      0.922     0.157     1.348     1.816
   868   6 C      2.748     0.279    22.286     7.730
   869   8 O      0.859    -0.501    23.816     6.543
   870   7 N      2.679    -0.169    24.659     7.375
   871   1 H      0.860     0.211     1.051     1.606
   872   6 C      3.785     0.024    20.189     6.400
   873   1 H      0.925     0.098     1.807     2.102
   874   6 C      3.807    -0.092    22.250     6.715
   875   1 H      0.924     0.071     2.072     2.251
   876   1 H      0.924     0.080     1.984     2.203
   877   6 C      2.744     0.292    22.043     7.687
   878   8 O      0.867    -0.490    23.562     6.508
   879   7 N      2.643    -0.274    27.082     7.729
   880   1 H      0.860     0.262     0.839     1.435
   881   1 H      0.860     0.221     1.006     1.571
   882   6 C      2.750     0.273    22.376     7.746
   883   8 O      0.860    -0.475    23.239     6.463
   884   7 N      2.685    -0.166    24.584     7.364
   885   1 H      0.860     0.207     1.071     1.621
   886   6 C      3.739    -0.048    21.511     6.618
   887   1 H      0.925     0.124     1.580     1.966
   888   1 H      0.924     0.110     1.693     2.035
   889   6 C      2.741     0.267    22.483     7.764
   890   8 O      0.858    -0.489    23.547     6.506
   891   7 N      2.679    -0.154    24.330     7.326
   892   1 H      0.860     0.185     1.188     1.708
   893   6 C      3.779     0.011    20.418     6.437
   894   1 H      0.925     0.094     1.839     2.121
   895   6 C      3.833    -0.013    20.780     6.486
   896   1 H      0.925     0.038     2.482     2.464
   897   6 C      3.741    -0.124    22.964     6.837
   898   1 H      0.924     0.062     2.175     2.306
   899   1 H      0.924     0.030     2.587     2.515
   900   1 H      0.925     0.053     2.289     2.366
   901   6 C      3.746    -0.127    23.010     6.842
   902   1 H      0.925     0.051     2.302     2.372
   903   1 H      0.924     0.069     2.093     2.262
   904   1 H      0.925     0.058     2.218     2.329
   905   6 C      2.744     0.277    22.313     7.734
   906   8 O      0.860    -0.502    23.817     6.543
   907   7 N      2.684    -0.181    24.916     7.413
   908   1 H      0.860     0.237     0.936     1.515
   909   6 C      3.787     0.020    20.256     6.410
   910   1 H      0.924     0.074     2.039     2.233
   911   6 C      3.848    -0.022    20.935     6.508
   912   1 H      0.925     0.033     2.547     2.496
   913   6 C      3.756    -0.118    22.818     6.811
   914   1 H      0.925     0.053     2.287     2.365
   915   1 H      0.925     0.051     2.304     2.374
   916   1 H      0.925     0.037     2.492     2.469
   917   6 C      3.800    -0.070    21.835     6.653
   918   1 H      0.925     0.030     2.585     2.514
   919   1 H      0.924     0.058     2.220     2.330
   920   6 C      3.745    -0.117    22.808     6.812
   921   1 H      0.924     0.055     2.261     2.352
   922   1 H      0.924     0.026     2.638     2.540
   923   1 H      0.925     0.057     2.233     2.337
   924   6 C      2.749     0.264    22.553     7.776
   925   8 O      0.857    -0.473    23.195     6.457
   926   7 N      2.680    -0.175    24.782     7.393
   927   1 H      0.860     0.211     1.050     1.605
   928   6 C      3.777     0.002    20.570     6.462
   929   1 H      0.924     0.092     1.856     2.130
   930   6 C      3.724     0.108    18.907     6.209
   931   1 H      0.924     0.048     2.345     2.395
   932   6 C      3.747    -0.143    23.322     6.888
   933   1 H      0.925     0.059     2.217     2.328
   934   1 H      0.925     0.060     2.197     2.318
   935   1 H      0.925     0.066     2.134     2.285
   936   8 O      1.656    -0.515    23.214     6.504
   937   1 H      0.806     0.337     0.620     1.237
   938   6 C      2.743     0.265    22.528     7.771
   939   8 O      0.858    -0.471    23.144     6.450
   940   7 N      2.687    -0.187    25.060     7.435
   941   1 H      0.860     0.216     1.026     1.587
   942   6 C      3.795    -0.004    20.659     6.472
   943   1 H      0.925     0.106     1.730     2.057
   944   6 C      3.801    -0.087    22.152     6.701
   945   1 H      0.924     0.056     2.249     2.345
   946   1 H      0.924     0.090     1.877     2.142
   947   6 C      3.797    -0.078    21.999     6.679
   948   1 H      0.925     0.078     2.002     2.213
   949   1 H      0.925     0.045     2.381     2.413
   950   6 C      3.799    -0.097    22.357     6.732
   951   1 H      0.925     0.067     2.121     2.277
   952   1 H      0.924     0.081     1.969     2.194
   953   6 C      3.726    -0.051    21.598     6.635
   954   1 H      0.924     0.135     1.496     1.913
   955   1 H      0.925     0.119     1.625     1.993
   956   7 N      3.484    -0.152    24.280     7.318
   957   1 H      0.860     0.305     0.699     1.310
   958   1 H      0.860     0.293     0.735     1.343
   959   1 H      0.860     0.298     0.720     1.329
   960   6 C      2.766     0.292    22.055     7.691
   961   8 O      0.867    -0.464    23.007     6.431
   962   7 N      2.714    -0.180    24.901     7.411
   963   1 H      0.860     0.204     1.087     1.633
   964   6 C      3.806     0.041    19.881     6.347
   965   1 H      0.925     0.074     2.044     2.236
   966   6 C      3.824    -0.094    22.264     6.714
   967   1 H      0.925     0.038     2.476     2.461
   968   1 H      0.924     0.057     2.231     2.336
   969   6 C      2.691     0.364    20.830     7.469
   970   8 O      0.859    -0.665    27.761     7.064
   971   8 O      0.859    -0.664    27.741     7.062
   972   6 C      2.743     0.270    22.438     7.756
   973   8 O      0.858    -0.495    23.679     6.524
   974   7 N      2.687    -0.178    24.866     7.406
   975   1 H      0.860     0.217     1.024     1.586
   976   6 C      3.793     0.032    20.041     6.375
   977   1 H      0.925     0.075     2.031     2.229
   978   6 C      3.815    -0.053    21.519     6.602
   979   1 H      0.925     0.056     2.241     2.341
   980   1 H      0.924     0.066     2.129     2.282
   981   6 C      3.811    -0.094    22.275     6.718
   982   1 H      0.924     0.042     2.417     2.431
   983   1 H      0.925     0.043     2.414     2.430
   984   6 C      2.696     0.368    20.767     7.458
   985   8 O      0.856    -0.586    25.788     6.808
   986   8 O      0.858    -0.587    25.799     6.810
   987   6 C      2.749     0.254    22.722     7.805
   988   8 O      0.858    -0.516    24.153     6.589
   989   7 N      2.680    -0.185    25.008     7.427
   990   1 H      0.860     0.228     0.973     1.545
   991   6 C      3.780     0.013    20.375     6.430
   992   1 H      0.924     0.089     1.890     2.150
   993   6 C      3.748    -0.136    23.181     6.867
   994   1 H      0.924     0.080     1.983     2.202
   995   1 H      0.924     0.076     2.017     2.221
   996   1 H      0.924     0.096     1.820     2.110
   997   6 C      2.745     0.272    22.398     7.749
   998   8 O      0.864    -0.500    23.776     6.538
   999   7 N      2.704    -0.191    25.135     7.446
  1000   1 H      0.860     0.228     0.974     1.546
  1001   6 C      3.790     0.035    19.997     6.369
  1002   1 H      0.925     0.076     2.021     2.223
  1003   6 C      3.811    -0.068    21.797     6.646
  1004   1 H      0.925     0.044     2.402     2.424
  1005   1 H      0.924     0.088     1.902     2.156
  1006   6 C      3.796    -0.095    22.309     6.726
  1007   1 H      0.925     0.025     2.653     2.547
  1008   1 H      0.925     0.044     2.396     2.421
  1009   6 C      2.687     0.360    20.895     7.481
  1010   8 O      0.857    -0.604    26.225     6.866
  1011   8 O      0.858    -0.632    26.910     6.955
  1012   6 C      2.753     0.274    22.373     7.745
  1013   8 O      0.863    -0.520    24.233     6.600
  1014   7 N      2.688    -0.178    24.855     7.404
  1015   1 H      0.860     0.198     1.117     1.656
  1016   6 C      3.791     0.025    20.171     6.396
  1017   1 H      0.925     0.081     1.968     2.194
  1018   6 C      3.803    -0.083    22.082     6.690
  1019   1 H      0.925     0.072     2.066     2.248
  1020   1 H      0.925     0.069     2.092     2.262
  1021   6 C      3.793    -0.079    22.022     6.683
  1022   1 H      0.924     0.066     2.135     2.285
  1023   1 H      0.925     0.052     2.291     2.367
  1024   6 C      3.792    -0.097    22.361     6.734
  1025   1 H      0.925     0.073     2.051     2.240
  1026   1 H      0.925     0.069     2.098     2.265
  1027   6 C      3.733    -0.061    21.761     6.658
  1028   1 H      0.924     0.127     1.560     1.953
  1029   1 H      0.925     0.118     1.630     1.996
  1030   7 N      3.489    -0.138    23.989     7.274
  1031   1 H      0.860     0.297     0.723     1.332
  1032   1 H      0.860     0.295     0.728     1.337
  1033   1 H      0.860     0.309     0.687     1.299
  1034   6 C      2.749     0.278    22.289     7.731
  1035   8 O      0.862    -0.496    23.684     6.525
  1036   7 N      2.688    -0.173    24.746     7.388
  1037   1 H      0.860     0.220     1.010     1.574
  1038   6 C      3.776     0.015    20.345     6.427
  1039   1 H      0.925     0.077     2.015     2.220
  1040   6 C      3.797    -0.087    22.163     6.703
  1041   1 H      0.924     0.058     2.227     2.334
  1042   1 H      0.925     0.083     1.945     2.181
  1043   6 C      3.851    -0.016    20.826     6.491
  1044   1 H      0.925     0.021     2.712     2.575
  1045   6 C      3.761    -0.119    22.822     6.810
  1046   1 H      0.925     0.060     2.205     2.322
  1047   1 H      0.925     0.028     2.622     2.532
  1048   1 H      0.925     0.045     2.385     2.415
  1049   6 C      3.757    -0.128    23.001     6.838
  1050   1 H      0.925     0.045     2.378     2.412
  1051   1 H      0.925     0.042     2.419     2.432
  1052   1 H      0.924     0.062     2.180     2.309
  1053   6 C      2.744     0.284    22.181     7.711
  1054   8 O      0.864    -0.504    23.863     6.550
  1055   7 N      2.689    -0.196    25.248     7.463
  1056   1 H      0.860     0.232     0.956     1.531
  1057   6 C      3.784     0.034    20.020     6.373
  1058   1 H      0.924     0.065     2.145     2.290
  1059   6 C      3.808    -0.082    22.053     6.685
  1060   1 H      0.925     0.058     2.218     2.329
  1061   1 H      0.925     0.069     2.092     2.262
  1062   6 C      2.962     0.013    27.723     8.636
  1063   6 C      2.922    -0.030    28.761     8.795
  1064   1 H      0.926     0.027     2.623     2.533
  1065   6 C      2.910    -0.034    28.835     8.805
  1066   1 H      0.926     0.045     2.380     2.412
  1067   6 C      2.906    -0.036    28.907     8.816
  1068   1 H      0.926     0.046     2.373     2.409
  1069   6 C      2.905    -0.039    28.957     8.823
  1070   1 H      0.926     0.046     2.369     2.407
  1071   6 C      2.916    -0.047    29.166     8.856
  1072   1 H      0.926     0.045     2.386     2.416
  1073   6 C      2.752     0.282    22.227     7.720
  1074   8 O      0.865    -0.494    23.648     6.520
  1075   7 N      2.691    -0.185    25.016     7.428
  1076   1 H      0.860     0.222     0.999     1.566
  1077   6 C      3.797     0.045    19.820     6.339
  1078   1 H      0.925     0.073     2.048     2.238
  1079   6 C      3.816    -0.110    22.590     6.765
  1080   1 H      0.925     0.083     1.952     2.185
  1081   1 H      0.925     0.098     1.799     2.097
  1082   6 C      2.743     0.282    22.230     7.720
  1083   8 O      0.860    -0.506    23.927     6.558
  1084   7 N      2.644    -0.290    27.468     7.784
  1085   1 H      0.860     0.257     0.856     1.449
  1086   1 H      0.860     0.234     0.948     1.525
  1087   6 C      2.749     0.265    22.536     7.773
  1088   8 O      0.856    -0.503    23.852     6.548
  1089   7 N      2.710    -0.182    24.944     7.418
  1090   1 H      0.860     0.233     0.950     1.527
  1091   6 C      3.804     0.032    20.028     6.371
  1092   1 H      0.925     0.068     2.108     2.271
  1093   6 C      3.832    -0.064    21.695     6.627
  1094   1 H      0.925     0.062     2.172     2.305
  1095   1 H      0.925     0.059     2.206     2.323
  1096   6 C      3.818    -0.114    22.660     6.775
  1097   1 H      0.925     0.085     1.931     2.173
  1098   1 H      0.925     0.071     2.073     2.251
  1099   6 C      2.745     0.291    22.057     7.690
  1100   8 O      0.864    -0.517    24.163     6.591
  1101   7 N      2.654    -0.274    27.097     7.731
  1102   1 H      0.860     0.254     0.868     1.460
  1103   1 H      0.860     0.234     0.949     1.526
  1104   6 C      2.753     0.272    22.397     7.750
  1105   8 O      0.857    -0.482    23.387     6.484
  1106   7 N      2.684    -0.184    24.985     7.424
  1107   1 H      0.860     0.209     1.062     1.615
  1108   6 C      3.771     0.038    19.960     6.367
  1109   1 H      0.925     0.068     2.105     2.269
  1110   6 C      3.803    -0.085    22.127     6.697
  1111   1 H      0.925     0.033     2.550     2.497
  1112   1 H      0.925     0.027     2.632     2.537
  1113   6 C      2.685     0.384    20.497     7.409
  1114   8 O      0.857    -0.582    25.674     6.793
  1115   8 O      0.857    -0.646    27.275     7.002
  1116   6 C      2.728     0.259    22.629     7.788
  1117   8 O      0.867    -0.500    23.771     6.537
  1118   7 N      2.690    -0.178    24.859     7.405
  1119   1 H      0.860     0.199     1.114     1.653
  1120   6 C      3.789     0.025    20.170     6.396
  1121   1 H      0.925     0.084     1.934     2.175
  1122   6 C      3.850    -0.010    20.728     6.476
  1123   1 H      0.925     0.040     2.444     2.445
  1124   6 C      3.756    -0.121    22.878     6.820
  1125   1 H      0.924     0.074     2.038     2.232
  1126   1 H      0.925     0.069     2.091     2.261
  1127   1 H      0.924     0.037     2.495     2.470
  1128   6 C      3.768    -0.121    22.853     6.813
  1129   1 H      0.925     0.039     2.467     2.456
  1130   1 H      0.925     0.067     2.118     2.276
  1131   1 H      0.925     0.048     2.340     2.392
  1132   6 C      2.745     0.261    22.602     7.784
  1133   8 O      0.860    -0.477    23.286     6.470
  1134   7 N      2.688    -0.187    25.055     7.434
  1135   1 H      0.860     0.191     1.154     1.683
  1136   6 C      3.780     0.042    19.890     6.353
  1137   1 H      0.924     0.077     2.010     2.217
  1138   6 C      3.809    -0.093    22.259     6.716
  1139   1 H      0.924     0.024     2.679     2.560
  1140   1 H      0.924     0.040     2.454     2.450
  1141   6 C      2.689     0.376    20.629     7.433
  1142   8 O      0.858    -0.639    27.099     6.979
  1143   8 O      0.857    -0.605    26.233     6.867
  1144   6 C      2.744     0.256    22.694     7.800
  1145   8 O      0.862    -0.484    23.437     6.491
  1146   7 N      2.689    -0.160    24.460     7.345
  1147   1 H      0.860     0.194     1.135     1.669
  1148   6 C      3.784     0.020    20.252     6.410
  1149   1 H      0.925     0.091     1.871     2.139
  1150   6 C      3.750    -0.140    23.270     6.880
  1151   1 H      0.925     0.084     1.939     2.177
  1152   1 H      0.925     0.050     2.316     2.380
  1153   1 H      0.924     0.085     1.926     2.170
  1154   6 C      2.738     0.266    22.506     7.767
  1155   8 O      0.858    -0.483    23.416     6.488
  1156   7 N      2.691    -0.179    24.868     7.406
  1157   1 H      0.860     0.197     1.124     1.661
  1158   6 C      3.789     0.030    20.087     6.383
  1159   1 H      0.925     0.074     2.037     2.232
  1160   6 C      3.759    -0.122    22.888     6.820
  1161   1 H      0.925     0.056     2.243     2.342
  1162   1 H      0.924     0.075     2.033     2.230
[...]
  2298  C   3.983        C 2295 1.005    C 2301 0.993    H 2299 0.975    H 2300 0.972
  2299  H   0.995        C 2298 0.975
  2300  H   0.994        C 2298 0.972
  2301  C   3.950        C 2298 0.993    N 2304 0.975    H 2302 0.966    H 2303 0.962
  2302  H   0.993        C 2301 0.966
  2303  H   0.995        C 2301 0.962
  2304  N   3.440        C 2306 1.315    C 2301 0.975    H 2305 0.888
  2305  H   0.938        N 2304 0.888
  2306  C   3.978        N 2307 1.330    N 2304 1.315    N 2310 1.305
  2307  N   3.410        C 2306 1.330    H 2308 0.918    H 2309 0.916    N 2310 0.103
  2308  H   0.945        N 2307 0.918
  2309  H   0.944        N 2307 0.916
  2310  N   3.394        C 2306 1.305    H 2311 0.922    H 2312 0.900    N 2307 0.103
  2311  H   0.951        N 2310 0.922
  2312  H   0.939        N 2310 0.900
  2313  C   3.959        O 2314 1.619    N 2315 1.322    C 2293 0.940
  2314  O   1.977        C 2313 1.619    N 2315 0.203
  2315  N   3.486        C 2313 1.322    C 2317 0.972    H 2316 0.903    O 2314 0.203
  2316  H   0.951        N 2315 0.903
  2317  C   3.958        C 2319 1.003    N 2315 0.972    H 2318 0.947    C 2323 0.926
  2318  H   0.992        C 2317 0.947
  2319  C   3.982        C 2317 1.003    H 2321 0.980    H 2322 0.975    H 2320 0.974
  2320  H   0.994        C 2319 0.974
  2321  H   0.997        C 2319 0.980
  2322  H   0.996        C 2319 0.975
  2323  C   3.951        O 2324 1.641    N 2325 1.298    C 2317 0.926
  2324  O   1.987        C 2323 1.641    N 2325 0.197
  2325  N   3.456        C 2323 1.298    C 2327 0.972    H 2326 0.899    O 2324 0.197
  2326  H   0.949        N 2325 0.899
  2327  C   3.956        N 2325 0.972    C 2329 0.965    C 2345 0.950    H 2328 0.944
  2328  H   0.991        C 2327 0.944
  2329  C   3.973        C 2332 0.999    H 2330 0.968    C 2327 0.965    H 2331 0.962
  2330  H   0.993        C 2329 0.968
  2331  H   0.989        C 2329 0.962
  2332  C   3.991        C 2335 1.019    C 2329 0.999    H 2334 0.974    H 2333 0.969
  2333  H   0.994        C 2332 0.969
  2334  H   0.998        C 2332 0.974
  2335  C   3.985        C 2332 1.019    C 2338 1.004    H 2337 0.967    H 2336 0.962
  2336  H   0.992        C 2335 0.962
  2337  H   0.992        C 2335 0.967
  2338  C   3.904        C 2335 1.004    H 2339 0.960    H 2340 0.960    N 2341 0.956
  2339  H   0.985        C 2338 0.960
  2340  H   0.988        C 2338 0.960
  2341  N   3.659        C 2338 0.956    H 2344 0.896    H 2343 0.895    H 2342 0.890
  2342  H   0.908        N 2341 0.890
  2343  H   0.911        N 2341 0.895
  2344  H   0.913        N 2341 0.896
  2345  C   3.945        O 2346 1.628    N 2347 1.280    C 2327 0.950
  2346  O   2.000        C 2345 1.628    N 2347 0.196
  2347  N   3.457        C 2345 1.280    C 2349 0.982    H 2348 0.902    O 2346 0.196
  2348  H   0.948        N 2347 0.902
  2349  C   3.965        C 2351 0.995    N 2347 0.982    H 2350 0.955    C 2369 0.892
  2350  H   0.992        C 2349 0.955
  2351  C   3.979        C 2354 0.997    C 2349 0.995    H 2352 0.966    H 2353 0.961
  2352  H   0.995        C 2351 0.966
  2353  H   0.992        C 2351 0.961
  2354  C   3.984        C 2351 0.997    C 2357 0.992    H 2356 0.973    H 2355 0.969
  2355  H   0.994        C 2354 0.969
  2356  H   0.996        C 2354 0.973
  2357  C   3.946        C 2354 0.992    N 2360 0.970    H 2359 0.969    H 2358 0.965
  2358  H   0.993        C 2357 0.965
  2359  H   0.995        C 2357 0.969
  2360  N   3.457        C 2362 1.315    C 2357 0.970    H 2361 0.895    N 2366 0.103    N 2363 0.100
  2361  H   0.948        N 2360 0.895
  2362  C   3.977        N 2366 1.316    N 2363 1.316    N 2360 1.315
  2363  N   3.382        C 2362 1.316    H 2365 0.914    H 2364 0.884    N 2366 0.101    N 2360 0.100
  2364  H   0.938        N 2363 0.884
  2365  H   0.942        N 2363 0.914
  2366  N   3.391        C 2362 1.316    H 2367 0.918    H 2368 0.867    N 2360 0.103    N 2363 0.101
  2367  H   0.943        N 2366 0.918
  2368  H   0.947        N 2366 0.867
  2369  C   3.942        O 2370 1.573    N 2371 1.395    C 2349 0.892
  2370  O   1.963        C 2369 1.573    N 2371 0.196
  2371  N   3.500        C 2369 1.395    C 2373 0.923    H 2372 0.890    O 2370 0.196
  2372  H   0.941        N 2371 0.890
  2373  C   3.955        C 2375 0.975    C 2385 0.968    H 2374 0.949    N 2371 0.923
  2374  H   0.992        C 2373 0.949
  2375  C   3.987        C 2381 1.012    C 2377 0.993    C 2373 0.975    H 2376 0.959
  2376  H   0.995        C 2375 0.959
  2377  C   3.986        C 2375 0.993    H 2379 0.982    H 2378 0.981    H 2380 0.980
  2378  H   0.997        C 2377 0.981
  2379  H   0.997        C 2377 0.982
  2380  H   0.998        C 2377 0.980
  2381  C   3.991        C 2375 1.012    H 2383 0.983    H 2382 0.982    H 2384 0.979
  2382  H   0.998        C 2381 0.982
  2383  H   0.996        C 2381 0.983
  2384  H   0.996        C 2381 0.979
  2385  C   3.954        O 2386 1.612    N 2387 1.303    C 2373 0.968
  2386  O   1.953        C 2385 1.612    N 2387 0.203
  2387  N   3.449        C 2385 1.303    C 2389 0.944    H 2388 0.896    O 2386 0.203
  2388  H   0.949        N 2387 0.896
  2389  C   3.945        C 2391 0.956    H 2390 0.952    C 2404 0.948    N 2387 0.944
  2390  H   0.993        C 2389 0.952
  2391  C   3.979        C 2397 1.002    C 2393 1.001    C 2389 0.956    H 2392 0.954
  2392  H   0.995        C 2391 0.954
  2393  C   3.985        C 2391 1.001    H 2396 0.981    H 2395 0.980    H 2394 0.979
  2394  H   0.998        C 2393 0.979
  2395  H   0.998        C 2393 0.980
  2396  H   0.994        C 2393 0.981
  2397  C   3.990        C 2400 1.018    C 2391 1.002    H 2399 0.969    H 2398 0.967
  2398  H   0.997        C 2397 0.967
  2399  H   0.999        C 2397 0.969
  2400  C   3.989        C 2397 1.018    H 2402 0.980    H 2403 0.978    H 2401 0.976
  2401  H   0.998        C 2400 0.976
  2402  H   0.997        C 2400 0.980
  2403  H   0.996        C 2400 0.978
  2404  C   3.946        O 2405 1.628    N 2406 1.299    C 2389 0.948
  2405  O   1.957        C 2404 1.628    N 2406 0.197
  2406  N   3.459        C 2404 1.299    C 2408 0.967    H 2407 0.896    O 2405 0.197
  2407  H   0.950        N 2406 0.896
  2408  C   3.963        N 2406 0.967    C 2410 0.962    H 2409 0.949    C 2418 0.938
  2409  H   0.991        C 2408 0.949
  2410  C   3.965        C 2412 0.999    O 2416 0.996    H 2411 0.966    C 2408 0.962
  2411  H   0.999        C 2410 0.966
  2412  C   3.988        C 2410 0.999    H 2413 0.986    H 2415 0.984    H 2414 0.980
  2413  H   0.998        C 2412 0.986
  2414  H   0.994        C 2412 0.980
  2415  H   0.996        C 2412 0.984
  2416  O   1.936        C 2410 0.996    H 2417 0.849
  2417  H   0.885        O 2416 0.849
  2418  C   3.949        O 2419 1.580    N 2420 1.353    C 2408 0.938
  2419  O   1.922        C 2418 1.580    N 2420 0.195
  2420  N   3.494        C 2418 1.353    C 2422 0.969    H 2421 0.887    O 2419 0.195
  2421  H   0.949        N 2420 0.887
  2422  C   3.962        N 2420 0.969    C 2432 0.956    C 2424 0.951    H 2423 0.946
  2423  H   0.991        C 2422 0.946
  2424  C   3.951        C 2426 0.996    O 2430 0.990    H 2425 0.963    C 2422 0.951
  2425  H   0.998        C 2424 0.963
  2426  C   3.984        C 2424 0.996    H 2429 0.983    H 2428 0.983    H 2427 0.982
  2427  H   0.997        C 2426 0.982
  2428  H   0.995        C 2426 0.983
  2429  H   0.995        C 2426 0.983
  2430  O   1.935        C 2424 0.990    H 2431 0.851
  2431  H   0.898        O 2430 0.851
  2432  C   3.953        O 2433 1.624    N 2434 1.294    C 2422 0.956
  2433  O   1.942        C 2432 1.624    N 2434 0.193
  2434  N   3.452        C 2432 1.294    C 2436 0.965    H 2435 0.903    O 2433 0.193
  2435  H   0.954        N 2434 0.903
  2436  C   3.951        C 2438 0.971    N 2434 0.965    C 2452 0.946    H 2437 0.942
  2437  H   0.990        C 2436 0.942
  2438  C   3.980        C 2441 1.002    C 2436 0.971    H 2440 0.965    H 2439 0.957
  2439  H   0.993        C 2438 0.957
  2440  H   0.994        C 2438 0.965
  2441  C   3.984        C 2442 1.459    C 2450 1.360    C 2438 1.002    C 2446 0.116
  2442  C   3.988        C 2441 1.459    C 2444 1.398    H 2443 0.966    C 2448 0.105
  2443  H   0.998        C 2442 0.966
  2444  C   3.987        C 2446 1.477    C 2442 1.398    H 2445 0.971    C 2450 0.109
  2445  H   0.998        C 2444 0.971
  2446  C   3.980        C 2444 1.477    C 2448 1.382    H 2447 0.966    C 2441 0.116
  2447  H   0.997        C 2446 0.966
  2448  C   3.989        C 2450 1.505    C 2446 1.382    H 2449 0.964    C 2442 0.105
  2449  H   0.997        C 2448 0.964
  2450  C   3.987        C 2448 1.505    C 2441 1.360    H 2451 0.958    C 2444 0.109
  2451  H   0.998        C 2450 0.958
  2452  C   3.945        O 2453 1.561    N 2454 1.349    C 2436 0.946
  2453  O   1.910        C 2452 1.561    N 2454 0.185
  2454  N   3.503        C 2452 1.349    C 2456 0.978    H 2455 0.899    O 2453 0.185
  2455  H   0.952        N 2454 0.899
  2456  C   3.959        C 2458 0.990    N 2454 0.978    H 2457 0.944    C 2476 0.932
  2457  H   0.990        C 2456 0.944
  2458  C   3.986        C 2461 0.998    C 2456 0.990    H 2459 0.972    H 2460 0.963
  2459  H   0.996        C 2458 0.972
  2460  H   0.994        C 2458 0.963
  2461  C   3.991        C 2464 1.008    C 2458 0.998    H 2463 0.978    H 2462 0.971
  2462  H   0.995        C 2461 0.971
  2463  H   0.997        C 2461 0.978
  2464  C   3.956        C 2461 1.008    N 2467 0.982    H 2465 0.964    H 2466 0.961
  2465  H   0.995        C 2464 0.964
  2466  H   0.992        C 2464 0.961
  2467  N   3.439        C 2469 1.295    C 2464 0.982    H 2468 0.885    N 2473 0.105
  2468  H   0.951        N 2467 0.885
  2469  C   3.976        N 2473 1.364    N 2467 1.295    N 2470 1.285
  2470  N   3.357        C 2469 1.285    H 2472 0.921    H 2471 0.910    N 2473 0.106
  2471  H   0.932        N 2470 0.910
  2472  H   0.940        N 2470 0.921
  2473  N   3.417        C 2469 1.364    H 2474 0.901    H 2475 0.888    N 2470 0.106    N 2467 0.105
  2474  H   0.931        N 2473 0.901
  2475  H   0.940        N 2473 0.888
  2476  C   3.947        O 2477 1.613    N 2478 1.329    C 2456 0.932
  2477  O   1.919        C 2476 1.613    N 2478 0.197
  2478  N   3.468        C 2476 1.329    C 2480 0.952    H 2479 0.904    O 2477 0.197
  2479  H   0.946        N 2478 0.904
  2480  C   3.964        C 2482 0.970    C 2490 0.956    N 2478 0.952    H 2481 0.951
  2481  H   0.990        C 2480 0.951
  2482  C   3.960        O 2488 1.010    C 2480 0.970    C 2484 0.963    H 2483 0.960
  2483  H   0.998        C 2482 0.960
  2484  C   3.986        H 2485 0.989    H 2487 0.989    H 2486 0.986    C 2482 0.963
  2485  H   0.997        C 2484 0.989
  2486  H   0.995        C 2484 0.986
  2487  H   0.998        C 2484 0.989
  2488  O   1.959        C 2482 1.010    H 2489 0.848
  2489  H   0.887        O 2488 0.848
  2490  C   3.954        O 2491 1.627    N 2492 1.293    C 2480 0.956
  2491  O   1.939        C 2490 1.627    N 2492 0.198
  2492  N   3.459        C 2490 1.293    C 2494 0.979    H 2493 0.914    O 2491 0.198
  2493  H   0.955        N 2492 0.914
  2494  C   3.947        N 2492 0.979    H 2495 0.949    H 2496 0.947    C 2497 0.946
  2495  H   0.988        C 2494 0.949
  2496  H   0.988        C 2494 0.947
  2497  C   3.949        O 2498 1.661    N 2499 1.277    C 2494 0.946
  2498  O   1.982        C 2497 1.661    N 2499 0.195
  2499  N   3.463        C 2497 1.277    C 2501 1.000    H 2500 0.913    O 2498 0.195
  2500  H   0.953        N 2499 0.913
  2501  C   3.975        N 2499 1.000    C 2511 0.956    C 2503 0.947    H 2502 0.941
  2502  H   0.992        C 2501 0.941
  2503  C   3.945        C 2505 1.010    H 2504 0.962    O 2509 0.953    C 2501 0.947
  2504  H   0.997        C 2503 0.962
  2505  C   3.984        C 2503 1.010    H 2508 0.981    H 2507 0.979    H 2506 0.976
  2506  H   0.996        C 2505 0.976
  2507  H   0.996        C 2505 0.979
  2508  H   0.996        C 2505 0.981
  2509  O   1.940        C 2503 0.953    H 2510 0.878
  2510  H   0.897        O 2509 0.878
  2511  C   3.956        O 2512 1.659    N 2513 1.260    C 2501 0.956
  2512  O   1.986        C 2511 1.659    N 2513 0.202
  2513  N   3.440        C 2511 1.260    C 2515 0.969    H 2514 0.926    O 2512 0.202
  2514  H   0.956        N 2513 0.926
  2515  C   3.956        C 2517 0.972    N 2513 0.969    C 2535 0.952    H 2516 0.928
  2516  H   0.990        C 2515 0.928
  2517  C   3.980        C 2520 1.013    C 2515 0.972    H 2519 0.970    H 2518 0.952
  2518  H   0.995        C 2517 0.952
  2519  H   0.996        C 2517 0.970
  2520  C   3.971        C 2521 1.605    C 2534 1.181    C 2517 1.013
  2521  C   3.958        C 2520 1.605    N 2523 1.198    H 2522 0.964
  2522  H   0.995        C 2521 0.964
  2523  N   3.528        C 2521 1.198    C 2525 1.178    H 2524 0.929
  2524  H   0.959        N 2523 0.929
  2525  C   3.957        C 2534 1.277    C 2526 1.275    N 2523 1.178
  2526  C   3.984        C 2528 1.554    C 2525 1.275    H 2527 0.966    C 2532 0.111
  2527  H   0.996        C 2526 0.966
  2528  C   3.991        C 2526 1.554    C 2530 1.339    H 2529 0.967
  2529  H   0.998        C 2528 0.967
  2530  C   3.983        C 2532 1.500    C 2528 1.339    H 2531 0.964
  2531  H   0.999        C 2530 0.964
  2532  C   3.991        C 2530 1.500    C 2534 1.336    H 2533 0.963    C 2526 0.111
  2533  H   1.000        C 2532 0.963
  2534  C   3.985        C 2532 1.336    C 2525 1.277    C 2520 1.181
  2535  C   3.949        O 2536 1.600    N 2537 1.317    C 2515 0.952
  2536  O   1.911        C 2535 1.600    N 2537 0.191
  2537  N   3.481        C 2535 1.317    C 2539 0.978    H 2538 0.913    O 2536 0.191
  2538  H   0.958        N 2537 0.913
  2539  C   3.956        C 2541 0.984    N 2537 0.978    H 2540 0.946    C 2547 0.895
  2540  H   0.994        C 2539 0.946
  2541  C   3.989        C 2539 0.984    H 2542 0.974    H 2543 0.957    C 2544 0.953
  2542  H   0.997        C 2541 0.974
  2543  H   0.997        C 2541 0.957
  2544  C   3.940        O 2546 1.518    O 2545 1.438    C 2541 0.953
  2545  O   1.815        C 2544 1.438    O 2546 0.215
  2546  O   1.805        C 2544 1.518    O 2545 0.215
  2547  C   3.953        O 2548 1.643    N 2549 1.343    C 2539 0.895
  2548  O   1.973        C 2547 1.643    N 2549 0.196
  2549  N   3.477        C 2547 1.343    C 2551 0.945    H 2550 0.921    O 2548 0.196
  2550  H   0.960        N 2549 0.921
  2551  C   3.940        C 2553 1.002    H 2552 0.948    N 2549 0.945    C 2557 0.912
  2552  H   0.988        C 2551 0.948
  2553  C   3.979        C 2551 1.002    H 2554 0.981    H 2555 0.977    H 2556 0.973
  2554  H   0.995        C 2553 0.981
  2555  H   0.994        C 2553 0.977
  2556  H   0.992        C 2553 0.973
  2557  C   3.945        O 2558 1.626    N 2559 1.330    C 2551 0.912
  2558  O   1.945        C 2557 1.626    N 2559 0.191
  2559  N   3.490        C 2557 1.330    C 2561 0.966    H 2560 0.925    O 2558 0.191
  2560  H   0.964        N 2559 0.925
  2561  C   3.954        C 2563 0.976    N 2559 0.966    H 2562 0.948    C 2578 0.893
  2562  H   0.992        C 2561 0.948
  2563  C   3.984        C 2566 1.002    C 2561 0.976    H 2565 0.967    H 2564 0.961
  2564  H   0.995        C 2563 0.961
  2565  H   0.997        C 2563 0.967
  2566  C   3.981        C 2567 1.449    C 2576 1.347    C 2563 1.002
  2567  C   3.985        C 2566 1.449    C 2569 1.421    H 2568 0.966
  2568  H   0.997        C 2567 0.966
  2569  C   3.978        C 2567 1.421    C 2571 1.365    H 2570 0.962    C 2576 0.107
  2570  H   0.995        C 2569 0.962
  2571  C   3.943        C 2569 1.365    C 2574 1.319    O 2572 1.118
  2572  O   2.152        C 2571 1.118    H 2573 0.835
  2573  H   0.888        O 2572 0.835
  2574  C   3.988        C 2576 1.508    C 2571 1.319    H 2575 0.960
  2575  H   0.998        C 2574 0.960
  2576  C   3.990        C 2574 1.508    C 2566 1.347    H 2577 0.967    C 2569 0.107
  2577  H   1.000        C 2576 0.967
  2578  C   3.939        O 2579 1.635    N 2580 1.337    C 2561 0.893
  2579  O   1.973        C 2578 1.635    N 2580 0.202
  2580  N   3.482        C 2578 1.337    C 2582 0.942    H 2581 0.926    O 2579 0.202
  2581  H   0.964        N 2580 0.926
  2582  C   3.946        C 2584 0.985    H 2583 0.962    N 2580 0.942    C 2600 0.918
  2583  H   0.998        C 2582 0.962
  2584  C   3.993        C 2587 1.013    C 2582 0.985    H 2586 0.974    H 2585 0.968
  2585  H   0.997        C 2584 0.968
  2586  H   0.998        C 2584 0.974
  2587  C   3.994        C 2584 1.013    C 2590 0.998    H 2588 0.978    H 2589 0.974
  2588  H   0.998        C 2587 0.978
  2589  H   0.998        C 2587 0.974
  2590  C   3.986        C 2593 1.006    C 2587 0.998    H 2592 0.977    H 2591 0.964
  2591  H   0.993        C 2590 0.964
  2592  H   0.996        C 2590 0.977
  2593  C   3.918        C 2590 1.006    H 2594 0.969    H 2595 0.968    N 2596 0.957
  2594  H   0.987        C 2593 0.969
  2595  H   0.988        C 2593 0.968
  2596  N   3.649        C 2593 0.957    H 2598 0.905    H 2599 0.903    H 2597 0.827
  2597  H   0.912        N 2596 0.827
  2598  H   0.918        N 2596 0.905
  2599  H   0.918        N 2596 0.903
  2600  C   3.938        O 2601 1.544    O 2602 1.442    C 2582 0.918
  2601  O   1.842        C 2600 1.544    O 2602 0.223
  2602  O   1.737        C 2600 1.442    O 2601 0.223
  2603  O   2.113        C 2605 1.087    H 2604 0.822
  2604  H   0.885        O 2603 0.822
  2605  C   3.942        C 2606 1.425    C 2614 1.239    O 2603 1.087
  2606  C   3.985        C 2605 1.425    C 2608 1.388    H 2607 0.957
  2607  H   0.998        C 2606 0.957
  2608  C   3.986        C 2610 1.452    C 2606 1.388    H 2609 0.965
  2609  H   1.000        C 2608 0.965
  2610  C   3.990        C 2608 1.452    C 2612 1.423    H 2611 0.969
  2611  H   0.999        C 2610 0.969
  2612  C   3.971        C 2610 1.423    C 2614 1.334    H 2613 0.962
  2613  H   1.000        C 2612 0.962
  2614  C   3.972        C 2612 1.334    C 2605 1.239    N 2615 1.226
  2615  N   3.322        C 2614 1.226    H 2616 0.946    H 2617 0.881
  2616  H   0.971        N 2615 0.946
  2617  H   0.953        N 2615 0.881

molecular dipole:
                 x           y           z       tot (Debye)
 q only:      577.868     660.883     655.939
   full:      579.813     661.349     665.215    2802.934
molecular quadrupole (traceless):
                xx          xy          yy          xz          yz          zz
 q only:   -12035.045   66757.586    6124.312   66211.377   76251.917    5910.732
  q+dip:   -12671.334   66587.069    5330.447   67208.953   77213.215    7340.887
   full:   -12661.994   66580.584    5315.561   67210.059   77204.384    7346.433


           -------------------------------------------------
          | TOTAL ENERGY            -4108.674587059893 Eh   |
          | GRADIENT NORM               1.360680467118 Eh/α |
          | HOMO-LUMO GAP               0.776544852135 eV   |
           -------------------------------------------------
########################################################################
[WARNING] Runtime exception occurred
-2- restart_readRestart: Dimension missmatch in restart file.
-1- restart_readRestart: Number of electron missmatch in restart file.
########################################################################

------------------------------------------------------------------------
 * finished run on 2020/07/24 at 22:48:44.980     
------------------------------------------------------------------------
 total:
 * wall-time:     0 d,  0 h,  7 min,  7.228 sec
 *  cpu-time:     0 d,  5 h, 13 min, 29.081 sec
 * ratio c/w:    44.026 speedup
 SCF:
 * wall-time:     0 d,  0 h,  6 min, 35.802 sec
 *  cpu-time:     0 d,  5 h,  1 min, 29.439 sec
 * ratio c/w:    45.703 speedup

