      -----------------------------------------------------------      
     |                   =====================                   |     
     |                           x T B                           |     
     |                   =====================                   |     
     |                         S. Grimme                         |     
     |          Mulliken Center for Theoretical Chemistry        |     
     |                    University of Bonn                     |     
      -----------------------------------------------------------      

   * xtb version 6.2.3 (d7bf61a) compiled by 'conda@06d140edd85e' on 2020-05-12

   xtb is free software: you can redistribute it and/or modify it under
   the terms of the GNU Lesser General Public License as published by
   the Free Software Foundation, either version 3 of the License, or
   (at your option) any later version.
   
   xtb is distributed in the hope that it will be useful,
   but WITHOUT ANY WARRANTY; without even the implied warranty of
   MERCHANTABILITY or FITNESS FOR A PARTICULAR PURPOSE.  See the
   GNU Lesser General Public License for more details.
   
   Cite this work as:
   * S. Grimme, C. Bannwarth, P. Shushkov, J. Chem. Theory Comput., 2017,
     13, 1989-2009. DOI: 10.1021/acs.jctc.7b00118
   * C. Bannwarth, S. Ehlert and S. Grimme., J. Chem. Theory Comput., 2019,
     15, 1652-1671. DOI: 10.1021/acs.jctc.8b01176
   * P. Pracht, E. Caldeweyher, S. Ehlert, S. Grimme, ChemRxiv, 2019, preprint.
     DOI: 10.26434/chemrxiv.8326202.v1
   
   for DFT-D4:
   * E. Caldeweyher, C. Bannwarth and S. Grimme, J. Chem. Phys., 2017,
     147, 034112. DOI: 10.1063/1.4993215
   * E. Caldeweyher, S. Ehlert, A. Hansen, H. Neugebauer, S. Spicher,
     C. Bannwarth and S. Grimme, J. Chem. Phys., 2019, 150, 154122.
     DOI: 10.1063/1.5090222
   
   for sTDA-xTB:
   * S. Grimme and C. Bannwarth, J. Chem. Phys., 2016, 145, 054103.
     DOI: 10.1063/1.4959605
   
   in the mass-spec context:
   * V. Asgeirsson, C. Bauer and S. Grimme, Chem. Sci., 2017, 8, 4879.
     DOI: 10.1039/c7sc00601b
   
   for metadynamics refer to:
   * S. Grimme, J. Chem. Theory Comput., 2019, 155, 2847-2862
     DOI: 10.1021/acs.jctc.9b00143
   
   with help from (in alphabetical order)
   C. Bannwarth, F. Bohle, G. Brandenburg, E. Caldeweyher, M. Checinski,
   S. Dohm, S. Ehlert, S. Ehrlich, F. März, H. Neugebauer, J. Pisarek,
   P. Pracht, P. Shushkov, and S. Spicher.
   
 * started run on 2020/05/29 at 02:17:39.783     

           -------------------------------------------------
          |                Calculation Setup                |
           -------------------------------------------------

          program call               : xtb host_14921.xyz --chrg +9 --uhf 0 --gbsa water
          hostname                   : gold58.cluster.local
          coordinate file            : host_14921.xyz
          omp threads                :                    64
          number of atoms            :                  2602
          number of electrons        :                  7192
          charge                     :                     9
          spin                       :                   0.0
          first test random number   :      0.25867630138979

########################################################################
[WARNING] Please study the warnings concerning your input carefully
-2- prog_main: XTBPATH is not set, using XTBHOME instead
-1- prog_main: XTBHOME is not set, using HOME instead
########################################################################
           ------------------------------------------------- 
          |                 G F N 2 - x T B                 |
          | Geometry, Frequencies, Noncovalent interactions |
          |            JCTC 2019 parametrisation            |
           ------------------------------------------------- 
             k(s)              :                1.8500
             k(p)              :                2.2300
             k(d)              :                2.2300
             k(f)              :                2.0000
             kEN (H0ij)        :               -2.0000
             D4 a1             :                0.5200
             D4 a2             :                5.0000
             D4 s6             :                1.0000
             D4 s8             :                2.7000
             D4 s9             :                5.0000
             alphaj            :                2.0000

  Z AO/shell   Hii/eV     exponent
  1     Wed Apr 25 08:07:45 CEST 2018   EN: 2.200 GM2: 0.406  GM3: 0.0800  RAES: 1.40
     1s    -10.707211    1.230000
  6     Wed Apr 25 08:07:45 CEST 2018   EN: 2.550 GM2: 0.538  GM3: 0.1500  RAES: 3.00
     2s    -13.970922    2.096432
     2p    -10.063292    1.800000
  7     Wed Apr 25 08:07:45 CEST 2018   EN: 3.040 GM2: 0.461  GM3:-0.0640  RAES: 1.90
     2s    -16.686243    2.339881
     2p    -12.523956    2.014332
  8     Wed Apr 25 08:07:45 CEST 2018   EN: 3.440 GM2: 0.452  GM3:-0.0517  RAES: 1.80
     2s    -20.229985    2.439742
     2p    -15.503117    2.137023
 16     Tue Apr 24 11:44:34 CEST 2018   EN: 2.580 GM2: 0.340  GM3:-0.0502  RAES: 3.10
     3s    -20.029654    1.981333
     3p    -11.377694    2.025643
     3d     -0.420282    1.702555

 Solvent             : water
 Using internal parameter file: .param_gbsa2_water
 Gsolv ref. state (COSMO-RS): gsolv [1 M gas/solution]
 temperature (mdtemp)       :    298.14999999999998     
 dielectric constant        :    80.200000000000003     
 rho                        :    1.0000000000000000     
 mass                       :    18.000000000000000     
 surface tension            :    15.568945408385856     
 probe radius               :   0.97531378999999996     
 Gshift (Eh)                :    1.8574431267947933E-003
 c1                         :    1.5524381700000001     
 soset                      :   0.13032636000000000     
 HB correction              :  T
           ------------------------------------------------- 
          |        Self-Consistent Charge Iterations        |
           ------------------------------------------------- 

          ...................................................
          :                      SETUP                      :
          :.................................................:
          :  # basis functions                6511          :
          :  # atomic orbitals                6505          :
          :  # shells                         3899          :
          :  # electrons                      7192          :
          :  max. iterations                   250          :
          :  Hamiltonian                  GFN2-xTB          :
          :  restarted?                      false          :
          :  GBSA solvation                   true          :
          :  PC potential                    false          :
          :  electronic temp.          300.0000000     K    :
          :  accuracy                    1.0000000          :
          :  -> integral cutoff          0.2500000E+02      :
          :  -> integral neglect         0.1000000E-07      :
          :  -> SCF convergence          0.1000000E-05 Eh   :
          :  -> wf. convergence          0.1000000E-03 e    :
          :  Broyden damping             0.4000000          :
          ...................................................

 iter      E             dE          RMSdq      gap      omega  full diag
   1  -4120.7106493 -0.412071E+04  0.427E+00    2.11       0.0  T
   2  -4132.8760675 -0.121654E+02  0.226E+00    2.36       1.0  T
   3  -4133.3495197 -0.473452E+00  0.119E+00    2.12       1.0  T
   4  -4133.4162816 -0.667619E-01  0.296E-01    1.79       1.0  T
   5  -4133.5253483 -0.109067E+00  0.147E-01    1.69       1.0  T
   6  -4133.5410842 -0.157358E-01  0.764E-02    1.80       1.0  T
   7  -4133.5437592 -0.267506E-02  0.396E-02    1.79       1.0  T
   8  -4133.5449254 -0.116614E-02  0.180E-02    1.77       1.0  T
   9  -4133.5451186 -0.193230E-03  0.112E-02    1.76       1.0  T
  10  -4133.5452261 -0.107461E-03  0.604E-03    1.74       1.0  T
  11  -4133.5452585 -0.324368E-04  0.304E-03    1.73       1.0  T
  12  -4133.5452671 -0.862838E-05  0.167E-03    1.72       1.2  T
  13  -4133.5452697 -0.259868E-05  0.887E-04    1.72       2.2  T
  14  -4133.5452704 -0.706735E-06  0.443E-04    1.72       4.4  T
  15  -4133.5452706 -0.193050E-06  0.229E-04    1.72       8.6  T

   *** convergence criteria satisfied after 15 iterations ***

         #    Occupation            Energy/Eh            Energy/eV
      -------------------------------------------------------------
         1        2.0000           -0.7583997             -20.6371
       ...           ...                  ...                  ...
      3590        2.0000           -0.3618545              -9.8466
      3591        2.0000           -0.3610544              -9.8248
      3592        2.0000           -0.3589769              -9.7683
      3593        2.0000           -0.3587653              -9.7625
      3594        2.0000           -0.3581915              -9.7469
      3595        2.0000           -0.3555147              -9.6740
      3596        2.0000           -0.3515902              -9.5673 (HOMO)
      3597                         -0.2884500              -7.8491 (LUMO)
      3598                         -0.2717428              -7.3945
      3599                         -0.2687501              -7.3131
      3600                         -0.2656374              -7.2284
      3601                         -0.2641333              -7.1874
       ...                                ...                  ...
      6505                          0.8337458              22.6874
      -------------------------------------------------------------
                  HL-Gap            0.0631402 Eh            1.7181 eV
             Fermi-level           -0.3200201 Eh           -8.7082 eV

 SCC (total)                   0 d,  0 h,  6 min, 27.229 sec
 SCC setup                      ...        0 min,  3.037 sec (  0.784%)
 Dispersion                     ...        0 min,  1.994 sec (  0.515%)
 integral evaluation            ...        0 min,  8.543 sec (  2.206%)
 zeroth order Hamiltonian       ...        0 min,  0.337 sec (  0.087%)
 iterations                     ...        5 min, 55.904 sec ( 91.910%)
 molecular gradient             ...        0 min, 16.901 sec (  4.365%)
 printout                       ...        0 min,  0.512 sec (  0.132%)

         :::::::::::::::::::::::::::::::::::::::::::::::::::::
         ::                     SUMMARY                     ::
         :::::::::::::::::::::::::::::::::::::::::::::::::::::
         :: total energy           -4085.291837595907 Eh    ::
         :: total w/o Gsasa/hb     -4084.894625035163 Eh    ::
         :: gradient norm              1.329611716740 Eh/a0 ::
         :: HOMO-LUMO gap              1.718131303296 eV    ::
         ::.................................................::
         :: SCC energy             -4133.608206601717 Eh    ::
         :: -> isotropic ES           14.246143964952 Eh    ::
         :: -> anisotropic ES         -0.824408549360 Eh    ::
         :: -> anisotropic XC          1.151080070665 Eh    ::
         :: -> dispersion             -3.907712783464 Eh    ::
         :: -> Gsolv                  -4.105592277424 Eh    ::
         ::    -> Gborn               -3.708379716680 Eh    ::
         ::    -> Gsasa               -0.064793406704 Eh    ::
         ::    -> Ghb                 -0.334276597167 Eh    ::
         ::    -> Gshift               0.001857443127 Eh    ::
         :: repulsion energy          47.780598976983 Eh    ::
         :: add. restraining           0.000000000000 Eh    ::
         :::::::::::::::::::::::::::::::::::::::::::::::::::::

           -------------------------------------------------
          |                Property Printout                |
           -------------------------------------------------

    * Orbital Energies and Occupations

         #    Occupation            Energy/Eh            Energy/eV
      -------------------------------------------------------------
         1        2.0000           -0.7583997             -20.6371
       ...           ...                  ...                  ...
      3584        2.0000           -0.3675244             -10.0008
      3585        2.0000           -0.3673429              -9.9959
      3586        2.0000           -0.3667289              -9.9792
      3587        2.0000           -0.3657077              -9.9514
      3588        2.0000           -0.3637147              -9.8972
      3589        2.0000           -0.3633944              -9.8885
      3590        2.0000           -0.3618545              -9.8466
      3591        2.0000           -0.3610544              -9.8248
      3592        2.0000           -0.3589769              -9.7683
      3593        2.0000           -0.3587653              -9.7625
      3594        2.0000           -0.3581915              -9.7469
      3595        2.0000           -0.3555147              -9.6740
      3596        2.0000           -0.3515902              -9.5673 (HOMO)
      3597                         -0.2884500              -7.8491 (LUMO)
      3598                         -0.2717428              -7.3945
      3599                         -0.2687501              -7.3131
      3600                         -0.2656374              -7.2284
      3601                         -0.2641333              -7.1874
      3602                         -0.2636824              -7.1752
      3603                         -0.2635753              -7.1722
      3604                         -0.2634610              -7.1691
      3605                         -0.2631668              -7.1611
      3606                         -0.2623486              -7.1389
      3607                         -0.2609997              -7.1022
       ...                                ...                  ...
      6505                          0.8337458              22.6874
      -------------------------------------------------------------
                  HL-Gap            0.0631402 Eh            1.7181 eV
             Fermi-level           -0.3200201 Eh           -8.7082 eV

     #   Z        covCN         q      C6AA      α(0)
     1   7 N      3.488    -0.150    24.230     7.311
     2   1 H      0.860     0.319     0.660     1.273
     3   1 H      0.860     0.306     0.695     1.306
     4   1 H      0.860     0.313     0.675     1.287
     5   6 C      3.774    -0.040    21.327     6.580
     6   1 H      0.925     0.113     1.669     2.020
     7   6 C      3.803    -0.101    22.426     6.742
     8   1 H      0.925     0.110     1.696     2.036
     9   1 H      0.925     0.107     1.723     2.053
    10   6 C      3.791    -0.023    20.999     6.526
    11   1 H      0.925     0.065     2.137     2.286
    12   1 H      0.925     0.062     2.180     2.309
    13  16 S      1.948    -0.217   150.312    20.635
    14   6 C      3.741    -0.048    21.515     6.618
    15   1 H      0.924     0.037     2.485     2.465
    16   1 H      0.925     0.025     2.654     2.548
    17   1 H      0.924     0.051     2.302     2.373
    18   6 C      2.737     0.277    22.321     7.735
    19   8 O      0.859    -0.402    21.714     6.248
    20   7 N      2.681    -0.162    24.495     7.351
    21   1 H      0.860     0.202     1.095     1.639
    22   6 C      3.780     0.009    20.445     6.441
    23   1 H      0.924     0.121     1.605     1.981
    24   6 C      3.801    -0.120    22.806     6.799
    25   1 H      0.925     0.102     1.769     2.080
    26   1 H      0.924     0.104     1.745     2.066
    27   6 C      2.741     0.290    22.091     7.696
    28   8 O      0.865    -0.497    23.719     6.530
    29   7 N      2.641    -0.270    26.992     7.716
    30   1 H      0.860     0.218     1.018     1.580
    31   1 H      0.860     0.240     0.923     1.505
    32   6 C      2.746     0.272    22.408     7.751
    33   8 O      0.858    -0.497    23.727     6.531
    34   7 N      2.683    -0.178    24.866     7.406
    35   1 H      0.860     0.224     0.991     1.560
    36   6 C      3.773     0.006    20.505     6.453
    37   1 H      0.925     0.092     1.864     2.135
    38   6 C      3.833    -0.035    21.171     6.546
    39   1 H      0.924     0.085     1.923     2.169
    40   6 C      3.748    -0.130    23.071     6.851
    41   1 H      0.925     0.058     2.220     2.330
    42   1 H      0.924     0.067     2.119     2.276
    43   1 H      0.925     0.034     2.526     2.486
    44   6 C      3.796    -0.072    21.877     6.660
    45   1 H      0.924     0.045     2.378     2.412
    46   1 H      0.925     0.062     2.177     2.307
    47   6 C      3.750    -0.120    22.861     6.819
    48   1 H      0.925     0.039     2.458     2.452
    49   1 H      0.925     0.048     2.340     2.392
    50   1 H      0.925     0.035     2.523     2.484
    51   6 C      2.754     0.272    22.399     7.750
    52   8 O      0.860    -0.493    23.639     6.519
    53   7 N      2.692    -0.179    24.886     7.409
    54   1 H      0.860     0.227     0.977     1.548
    55   6 C      3.783     0.024    20.192     6.401
    56   1 H      0.924     0.072     2.059     2.244
    57   6 C      3.799    -0.084    22.107     6.694
    58   1 H      0.925     0.041     2.429     2.437
    59   1 H      0.924     0.073     2.058     2.243
    60   6 C      2.963     0.007    27.869     8.659
    61   6 C      2.913    -0.039    28.970     8.826
    62   1 H      0.926     0.036     2.508     2.477
    63   6 C      2.903    -0.031    28.783     8.797
    64   1 H      0.926     0.027     2.630     2.536
    65   6 C      2.908    -0.040    28.987     8.828
    66   1 H      0.926     0.041     2.431     2.438
    67   6 C      2.907    -0.040    29.006     8.831
    68   1 H      0.926     0.063     2.166     2.302
    69   6 C      2.912    -0.042    29.051     8.838
    70   1 H      0.926     0.054     2.265     2.353
    71   6 C      2.753     0.276    22.323     7.737
    72   8 O      0.863    -0.478    23.293     6.471
    73   7 N      2.688    -0.185    25.011     7.428
    74   1 H      0.860     0.231     0.961     1.536
    75   6 C      3.782     0.039    19.935     6.360
    76   1 H      0.924     0.057     2.234     2.337
    77   6 C      3.797    -0.054    21.555     6.611
    78   1 H      0.925     0.045     2.384     2.415
    79   1 H      0.924     0.059     2.211     2.326
    80   6 C      3.801    -0.098    22.372     6.734
    81   1 H      0.925     0.044     2.393     2.419
    82   1 H      0.924     0.035     2.513     2.479
    83   6 C      2.685     0.364    20.826     7.468
    84   8 O      0.856    -0.635    27.007     6.968
    85   8 O      0.856    -0.669    27.883     7.080
    86   6 C      2.735     0.258    22.662     7.794
    87   8 O      0.857    -0.519    24.216     6.598
    88   7 N      2.677    -0.193    25.183     7.453
    89   1 H      0.860     0.219     1.014     1.578
    90   6 C      3.774     0.025    20.181     6.401
    91   1 H      0.924     0.065     2.141     2.288
    92   6 C      3.825    -0.074    21.899     6.659
    93   1 H      0.925     0.065     2.142     2.288
    94   1 H      0.925     0.073     2.050     2.239
    95   6 C      3.779    -0.028    21.095     6.543
    96   1 H      0.925     0.056     2.250     2.346
    97   1 H      0.925     0.060     2.195     2.317
    98  16 S      1.948    -0.188   149.027    20.547
    99   6 C      3.741    -0.074    21.986     6.690
   100   1 H      0.925     0.061     2.185     2.312
   101   1 H      0.924     0.065     2.144     2.290
   102   1 H      0.925     0.073     2.054     2.241
   103   6 C      2.747     0.284    22.196     7.714
   104   8 O      0.869    -0.508    23.955     6.562
   105   7 N      2.690    -0.177    24.822     7.400
   106   1 H      0.860     0.228     0.973     1.545
   107   6 C      3.788     0.022    20.225     6.405
   108   1 H      0.925     0.075     2.034     2.230
   109   6 C      3.794    -0.080    22.033     6.684
   110   1 H      0.925     0.056     2.247     2.344
   111   1 H      0.924     0.068     2.109     2.271
   112   6 C      3.843    -0.018    20.872     6.499
   113   1 H      0.925     0.048     2.340     2.392
   114   6 C      3.769    -0.116    22.760     6.799
   115   1 H      0.924     0.053     2.280     2.361
   116   1 H      0.925     0.034     2.525     2.485
   117   1 H      0.925     0.051     2.304     2.374
   118   6 C      3.767    -0.118    22.806     6.806
   119   1 H      0.925     0.053     2.288     2.365
   120   1 H      0.924     0.029     2.600     2.522
   121   1 H      0.924     0.036     2.503     2.474
   122   6 C      2.746     0.278    22.292     7.731
   123   8 O      0.867    -0.482    23.382     6.483
   124   7 N      2.689    -0.191    25.141     7.447
   125   1 H      0.860     0.208     1.065     1.617
   126   6 C      3.780     0.019    20.272     6.414
   127   1 H      0.925     0.081     1.972     2.196
   128   6 C      3.803    -0.073    21.903     6.663
   129   1 H      0.924     0.083     1.946     2.182
   130   1 H      0.925     0.049     2.337     2.391
   131   6 C      3.797    -0.081    22.058     6.687
   132   1 H      0.925     0.068     2.110     2.271
   133   1 H      0.925     0.074     2.044     2.236
   134   6 C      3.739    -0.011    20.846     6.515
   135   1 H      0.925     0.084     1.938     2.177
   136   1 H      0.925     0.068     2.103     2.268
   137   7 N      2.715    -0.157    24.403     7.337
   138   1 H      0.860     0.196     1.126     1.662
   139   6 C      2.739     0.248    22.843     7.825
   140   7 N      2.673    -0.262    26.800     7.689
   141   1 H      0.860     0.267     0.819     1.418
   142   1 H      0.860     0.240     0.925     1.506
   143   7 N      2.681    -0.293    27.548     7.795
   144   1 H      0.860     0.257     0.855     1.449
   145   1 H      0.860     0.216     1.030     1.590
   146   6 C      2.742     0.271    22.428     7.754
   147   8 O      0.860    -0.477    23.276     6.468
   148   7 N      2.683    -0.185    25.008     7.427
   149   1 H      0.860     0.191     1.155     1.684
   150   6 C      3.791     0.014    20.342     6.423
   151   1 H      0.925     0.092     1.863     2.134
   152   6 C      3.853    -0.017    20.842     6.493
   153   1 H      0.925     0.053     2.280     2.361
   154   6 C      3.767    -0.114    22.725     6.794
   155   1 H      0.925     0.054     2.276     2.359
   156   1 H      0.925     0.043     2.415     2.430
   157   1 H      0.924     0.052     2.292     2.367
   158   6 C      3.802    -0.062    21.687     6.630
   159   1 H      0.924     0.034     2.533     2.489
   160   1 H      0.925     0.043     2.415     2.430
   161   6 C      3.753    -0.098    22.440     6.755
   162   1 H      0.925     0.034     2.535     2.490
   163   1 H      0.924     0.027     2.626     2.534
   164   1 H      0.925     0.042     2.424     2.435
   165   6 C      2.755     0.268    22.471     7.763
   166   8 O      0.859    -0.475    23.246     6.464
   167   7 N      2.708    -0.198    25.300     7.470
   168   1 H      0.860     0.220     1.008     1.573
   169   6 C      3.803     0.034    20.002     6.367
   170   1 H      0.924     0.094     1.839     2.121
   171   6 C      3.828    -0.103    22.436     6.740
   172   1 H      0.924     0.068     2.103     2.268
   173   1 H      0.925     0.036     2.500     2.473
   174   6 C      2.694     0.362    20.863     7.475
   175   8 O      0.855    -0.586    25.790     6.809
   176   8 O      0.857    -0.572    25.434     6.762
   177   6 C      2.758     0.246    22.876     7.832
   178   8 O      0.859    -0.504    23.876     6.551
   179   7 N      2.688    -0.162    24.506     7.352
   180   1 H      0.860     0.190     1.161     1.688
   181   6 C      3.794     0.019    20.260     6.410
   182   1 H      0.925     0.096     1.819     2.109
   183   6 C      3.784    -0.064    21.746     6.642
   184   1 H      0.925     0.038     2.476     2.461
   185   1 H      0.925     0.046     2.367     2.406
   186   6 C      3.781    -0.094    22.311     6.729
   187   1 H      0.924     0.022     2.696     2.568
   188   1 H      0.925     0.033     2.540     2.492
   189   6 C      2.687     0.376    20.637     7.434
   190   8 O      0.860    -0.618    26.573     6.911
   191   8 O      0.861    -0.635    27.004     6.967
   192   6 C      2.759     0.270    22.439     7.757
   193   8 O      0.859    -0.457    22.846     6.408
   194   7 N      2.687    -0.138    23.981     7.273
   195   1 H      0.860     0.191     1.152     1.681
   196   6 C      3.760    -0.035    21.237     6.570
   197   1 H      0.925     0.105     1.743     2.065
   198   1 H      0.925     0.077     2.007     2.216
   199   6 C      2.746     0.269    22.449     7.758
   200   8 O      0.865    -0.520    24.219     6.598
   201   7 N      2.690    -0.148    24.196     7.306
   202   1 H      0.860     0.217     1.022     1.584
   203   6 C      3.787     0.015    20.345     6.424
   204   1 H      0.925     0.076     2.018     2.221
   205   6 C      3.796    -0.085    22.129     6.699
   206   1 H      0.924     0.066     2.132     2.283
   207   1 H      0.925     0.063     2.166     2.302
   208   6 C      3.835    -0.020    20.907     6.505
   209   1 H      0.924     0.048     2.349     2.397
   210   6 C      3.751    -0.128    23.021     6.842
   211   1 H      0.924     0.053     2.279     2.361
   212   1 H      0.925     0.021     2.718     2.578
   213   1 H      0.925     0.064     2.153     2.294
   214   6 C      3.759    -0.128    23.014     6.839
   215   1 H      0.925     0.051     2.306     2.375
   216   1 H      0.925     0.055     2.261     2.351
   217   1 H      0.925     0.048     2.343     2.394
   218   6 C      2.749     0.260    22.612     7.786
   219   8 O      0.858    -0.467    23.066     6.439
   220   7 N      2.685    -0.173    24.745     7.388
   221   1 H      0.860     0.197     1.123     1.660
   222   6 C      3.784     0.013    20.378     6.430
   223   1 H      0.924     0.086     1.920     2.167
   224   6 C      3.805    -0.078    21.977     6.674
   225   1 H      0.925     0.076     2.016     2.221
   226   1 H      0.925     0.063     2.169     2.303
   227   6 C      3.803    -0.088    22.176     6.704
   228   1 H      0.925     0.050     2.319     2.381
   229   1 H      0.924     0.084     1.937     2.176
   230   6 C      3.731    -0.029    21.186     6.570
   231   1 H      0.924     0.109     1.703     2.041
   232   1 H      0.925     0.058     2.228     2.334
   233   7 N      2.691    -0.140    24.030     7.280
   234   1 H      0.860     0.250     0.884     1.473
   235   6 C      2.732     0.240    22.992     7.850
   236   7 N      2.690    -0.256    26.643     7.666
   237   1 H      0.860     0.237     0.937     1.516
   238   1 H      0.860     0.215     1.034     1.593
   239   7 N      2.691    -0.251    26.518     7.648
   240   1 H      0.860     0.258     0.852     1.446
   241   1 H      0.860     0.255     0.865     1.457
   242   6 C      2.750     0.269    22.456     7.760
   243   8 O      0.862    -0.465    23.025     6.433
   244   7 N      2.691    -0.187    25.060     7.435
   245   1 H      0.860     0.207     1.072     1.622
   246   6 C      3.791     0.017    20.299     6.416
   247   1 H      0.925     0.093     1.847     2.125
   248   6 C      3.805    -0.092    22.259     6.716
   249   1 H      0.925     0.092     1.862     2.134
   250   1 H      0.925     0.071     2.074     2.252
   251   6 C      3.847    -0.020    20.894     6.502
   252   1 H      0.924     0.036     2.497     2.471
   253   6 C      3.778    -0.120    22.828     6.807
   254   1 H      0.925     0.044     2.400     2.423
   255   1 H      0.924     0.037     2.486     2.466
   256   1 H      0.924     0.042     2.421     2.433
   257   6 C      3.779    -0.110    22.623     6.776
   258   1 H      0.925     0.039     2.465     2.455
   259   1 H      0.924     0.026     2.649     2.545
   260   1 H      0.925     0.040     2.455     2.450
   261   6 C      2.763     0.263    22.572     7.780
   262   8 O      0.859    -0.487    23.498     6.499
   263   7 N      2.687    -0.147    24.177     7.303
   264   1 H      0.860     0.211     1.050     1.605
   265   6 C      3.795     0.015    20.322     6.419
   266   1 H      0.924     0.104     1.748     2.068
   267   6 C      3.802    -0.090    22.212     6.710
   268   1 H      0.925     0.063     2.163     2.300
   269   1 H      0.925     0.070     2.090     2.261
   270   6 C      3.795    -0.094    22.298     6.724
   271   1 H      0.925     0.079     1.994     2.208
   272   1 H      0.924     0.080     1.977     2.199
   273   6 C      3.799    -0.097    22.356     6.732
   274   1 H      0.925     0.084     1.942     2.179
   275   1 H      0.925     0.078     1.995     2.209
   276   6 C      3.725    -0.066    21.871     6.678
   277   1 H      0.925     0.127     1.560     1.953
   278   1 H      0.925     0.138     1.474     1.899
   279   7 N      3.481    -0.152    24.273     7.317
   280   1 H      0.860     0.293     0.733     1.341
   281   1 H      0.860     0.301     0.710     1.320
   282   1 H      0.860     0.298     0.719     1.328
   283   6 C      2.748     0.243    22.921     7.839
   284   8 O      0.856    -0.525    24.356     6.617
   285   7 N      2.677    -0.174    24.773     7.392
   286   1 H      0.860     0.225     0.988     1.557
   287   6 C      3.786     0.001    20.582     6.462
   288   1 H      0.925     0.068     2.107     2.270
   289   6 C      3.855    -0.029    21.049     6.525
   290   1 H      0.925     0.086     1.914     2.164
   291   6 C      3.760    -0.134    23.128     6.856
   292   1 H      0.925     0.032     2.558     2.501
   293   1 H      0.925     0.055     2.255     2.349
   294   1 H      0.925     0.066     2.127     2.281
   295   6 C      3.816    -0.081    22.033     6.681
   296   1 H      0.925     0.069     2.099     2.266
   297   1 H      0.925     0.041     2.436     2.441
   298   6 C      3.749    -0.134    23.144     6.861
   299   1 H      0.925     0.032     2.559     2.501
   300   1 H      0.925     0.041     2.434     2.440
   301   1 H      0.924     0.066     2.133     2.284
   302   6 C      2.748     0.281    22.247     7.723
   303   8 O      0.860    -0.468    23.091     6.443
   304   7 N      2.694    -0.177    24.830     7.401
   305   1 H      0.860     0.228     0.975     1.546
   306   6 C      3.788     0.015    20.342     6.424
   307   1 H      0.924     0.111     1.691     2.033
   308   6 C      3.819    -0.090    22.191     6.704
   309   1 H      0.924     0.100     1.786     2.090
   310   1 H      0.925     0.072     2.062     2.246
   311   6 C      2.956     0.005    27.909     8.665
   312   6 C      2.923    -0.053    29.314     8.879
   313   1 H      0.926     0.060     2.196     2.318
   314   6 C      2.909    -0.072    29.793     8.950
   315   1 H      0.926     0.028     2.619     2.531
   316   6 C      2.843     0.137    25.008     8.196
   317   8 O      1.657    -0.465    22.148     6.353
   318   1 H      0.805     0.308     0.696     1.311
   319   6 C      2.911    -0.062    29.549     8.914
   320   1 H      0.926     0.043     2.413     2.429
   321   6 C      2.917    -0.042    29.050     8.838
   322   1 H      0.926     0.086     1.915     2.164
   323   6 C      2.757     0.257    22.670     7.797
   324   8 O      0.859    -0.493    23.636     6.518
   325   7 N      2.685    -0.150    24.255     7.315
   326   1 H      0.860     0.220     1.010     1.574
   327   6 C      3.793     0.012    20.389     6.430
   328   1 H      0.925     0.081     1.972     2.196
   329   6 C      3.806    -0.082    22.054     6.685
   330   1 H      0.925     0.049     2.335     2.390
   331   1 H      0.925     0.086     1.919     2.166
   332   6 C      3.816    -0.087    22.146     6.698
   333   1 H      0.925     0.078     1.996     2.210
   334   1 H      0.924     0.039     2.456     2.451
   335   6 C      3.800    -0.101    22.436     6.744
   336   1 H      0.924     0.066     2.127     2.281
   337   1 H      0.925     0.095     1.831     2.116
   338   6 C      3.747    -0.051    21.566     6.624
   339   1 H      0.925     0.139     1.468     1.895
   340   1 H      0.925     0.105     1.738     2.062
   341   7 N      3.486    -0.148    24.200     7.306
   342   1 H      0.860     0.295     0.729     1.337
   343   1 H      0.860     0.291     0.740     1.347
   344   1 H      0.860     0.297     0.722     1.331
   345   6 C      2.746     0.266    22.513     7.769
   346   8 O      0.858    -0.504    23.875     6.551
   347   7 N      2.684    -0.173    24.746     7.388
   348   1 H      0.860     0.217     1.023     1.585
   349   6 C      3.781     0.040    19.917     6.357
   350   1 H      0.924     0.065     2.136     2.285
   351   6 C      3.797    -0.100    22.417     6.742
   352   1 H      0.925     0.036     2.504     2.474
   353   1 H      0.924     0.056     2.243     2.342
   354   6 C      2.687     0.362    20.862     7.475
   355   8 O      0.857    -0.638    27.065     6.975
   356   8 O      0.858    -0.637    27.033     6.971
   357   6 C      2.740     0.264    22.541     7.774
   358   8 O      0.864    -0.500    23.777     6.538
   359   7 N      2.685    -0.179    24.867     7.406
   360   1 H      0.860     0.214     1.038     1.596
   361   6 C      3.778     0.017    20.313     6.421
   362   1 H      0.924     0.110     1.696     2.037
   363   6 C      3.724     0.115    18.806     6.193
   364   1 H      0.924     0.042     2.425     2.435
   365   6 C      3.753    -0.142    23.301     6.883
   366   1 H      0.925     0.066     2.133     2.284
   367   1 H      0.924     0.073     2.049     2.238
   368   1 H      0.925     0.065     2.136     2.286
   369   8 O      1.659    -0.503    22.946     6.467
   370   1 H      0.806     0.339     0.615     1.232
   371   6 C      2.743     0.277    22.305     7.733
   372   8 O      0.862    -0.475    23.233     6.463
   373   7 N      2.686    -0.187    25.058     7.435
   374   1 H      0.860     0.178     1.225     1.734
   375   6 C      3.778     0.025    20.176     6.399
   376   1 H      0.924     0.089     1.885     2.147
   377   6 C      3.800    -0.042    21.332     6.576
   378   1 H      0.925     0.026     2.638     2.540
   379   1 H      0.925     0.037     2.484     2.465
   380   6 C      3.797    -0.093    22.283     6.722
   381   1 H      0.925     0.049     2.330     2.387
   382   1 H      0.925     0.033     2.544     2.494
   383   6 C      2.682     0.360    20.883     7.478
   384   8 O      0.857    -0.575    25.509     6.772
   385   8 O      0.855    -0.633    26.939     6.959
   386   6 C      2.739     0.267    22.496     7.766
   387   8 O      0.858    -0.481    23.377     6.482
   388   7 N      2.677    -0.189    25.108     7.442
   389   1 H      0.860     0.195     1.134     1.668
   390   6 C      3.734    -0.046    21.485     6.615
   391   1 H      0.925     0.121     1.607     1.982
   392   1 H      0.925     0.118     1.632     1.998
   393   6 C      2.749     0.276    22.334     7.738
   394   8 O      0.864    -0.459    22.903     6.417
   395   7 N      2.690    -0.145    24.150     7.299
   396   1 H      0.860     0.175     1.242     1.746
   397   6 C      3.790     0.011    20.394     6.432
   398   1 H      0.925     0.103     1.758     2.073
   399   6 C      3.808    -0.075    21.922     6.665
   400   1 H      0.924     0.082     1.957     2.188
   401   1 H      0.924     0.047     2.363     2.404
   402   6 C      2.951    -0.006    28.182     8.707
   403   6 C      2.935    -0.043    29.060     8.841
   404   1 H      0.926     0.025     2.664     2.553
   405   6 C      2.897    -0.059    29.468     8.900
   406   1 H      0.926     0.048     2.340     2.392
   407   6 C      2.853     0.143    24.877     8.175
   408   8 O      1.661    -0.433    21.498     6.259
   409   1 H      0.805     0.354     0.579     1.195
   410   6 C      2.897    -0.073    29.821     8.954
   411   1 H      0.926     0.063     2.167     2.302
   412   6 C      2.934    -0.040    29.002     8.832
   413   1 H      0.926     0.048     2.343     2.394
   414   6 C      2.750     0.263    22.570     7.779
   415   8 O      0.857    -0.506    23.913     6.556
   416   7 N      2.683    -0.166    24.601     7.367
   417   1 H      0.860     0.225     0.986     1.556
   418   6 C      3.794     0.002    20.556     6.456
   419   1 H      0.925     0.098     1.799     2.098
   420   6 C      3.818    -0.084    22.086     6.688
   421   1 H      0.925     0.076     2.022     2.224
   422   1 H      0.925     0.067     2.114     2.274
   423   6 C      2.968    -0.025    28.625     8.776
   424   6 C      2.907    -0.047    29.160     8.855
   425   1 H      0.925     0.033     2.540     2.492
   426   6 C      2.903    -0.078    29.947     8.973
   427   1 H      0.926     0.040     2.442     2.444
   428   6 C      2.846     0.142    24.894     8.177
   429   8 O      1.663    -0.399    20.821     6.160
   430   1 H      0.805     0.342     0.607     1.223
   431   6 C      2.909    -0.066    29.643     8.928
   432   1 H      0.926     0.084     1.938     2.177
   433   6 C      2.907    -0.048    29.186     8.858
   434   1 H      0.926     0.065     2.137     2.286
   435   6 C      2.745     0.280    22.263     7.726
   436   8 O      0.861    -0.490    23.566     6.509
   437   7 N      2.703    -0.176    24.806     7.397
   438   1 H      0.860     0.250     0.884     1.473
   439   6 C      3.784     0.004    20.527     6.453
   440   1 H      0.924     0.068     2.105     2.269
   441   6 C      3.728     0.121    18.702     6.174
   442   1 H      0.925     0.031     2.571     2.508
   443   6 C      3.751    -0.112    22.712     6.796
   444   1 H      0.925     0.033     2.543     2.494
   445   1 H      0.925     0.053     2.284     2.363
   446   1 H      0.924     0.045     2.389     2.417
   447   8 O      1.655    -0.496    22.809     6.447
   448   1 H      0.805     0.330     0.637     1.254
   449   6 C      2.748     0.264    22.537     7.773
   450   8 O      0.864    -0.433    22.343     6.338
   451   7 N      2.687    -0.171    24.709     7.383
   452   1 H      0.860     0.205     1.081     1.629
   453   6 C      3.772     0.005    20.525     6.456
   454   1 H      0.925     0.084     1.942     2.179
   455   6 C      3.850    -0.025    20.987     6.516
   456   1 H      0.925     0.078     1.996     2.209
   457   6 C      3.755    -0.124    22.926     6.827
   458   1 H      0.925     0.030     2.586     2.515
   459   1 H      0.925     0.066     2.133     2.284
   460   1 H      0.925     0.031     2.571     2.508
   461   6 C      3.812    -0.066    21.754     6.639
   462   1 H      0.925     0.045     2.388     2.417
   463   1 H      0.924     0.041     2.429     2.437
   464   6 C      3.756    -0.126    22.979     6.835
   465   1 H      0.925     0.057     2.240     2.340
   466   1 H      0.925     0.053     2.288     2.365
   467   1 H      0.924     0.051     2.309     2.376
   468   6 C      2.736     0.268    22.468     7.761
   469   8 O      0.857    -0.503    23.854     6.548
   470   7 N      2.675    -0.154    24.328     7.326
   471   1 H      0.860     0.247     0.894     1.481
   472   6 C      3.728    -0.032    21.241     6.580
   473   1 H      0.924     0.071     2.075     2.253
   474   1 H      0.925     0.116     1.649     2.008
   475   6 C      2.740     0.261    22.607     7.785
   476   8 O      0.857    -0.453    22.780     6.399
   477   7 N      2.684    -0.190    25.113     7.443
   478   1 H      0.860     0.191     1.155     1.683
   479   6 C      3.791     0.008    20.455     6.441
   480   1 H      0.925     0.100     1.782     2.088
   481   6 C      3.851    -0.017    20.848     6.494
   482   1 H      0.925     0.040     2.448     2.447
   483   6 C      3.756    -0.103    22.529     6.768
   484   1 H      0.925     0.049     2.327     2.385
   485   1 H      0.924     0.048     2.341     2.393
   486   1 H      0.924     0.015     2.815     2.624
   487   6 C      3.804    -0.074    21.917     6.665
   488   1 H      0.924     0.053     2.286     2.364
   489   1 H      0.925     0.059     2.211     2.325
   490   6 C      3.750    -0.122    22.906     6.826
   491   1 H      0.925     0.041     2.434     2.440
   492   1 H      0.924     0.030     2.582     2.513
   493   1 H      0.925     0.065     2.145     2.290
   494   6 C      2.748     0.287    22.133     7.703
   495   8 O      0.859    -0.457    22.851     6.409
   496   7 N      2.676    -0.212    25.614     7.517
   497   1 H      0.860     0.214     1.039     1.597
   498   6 C      3.721    -0.021    21.061     6.555
   499   1 H      0.924     0.062     2.177     2.308
   500   1 H      0.924     0.082     1.962     2.190
   501   6 C      2.771     0.287    22.146     7.707
   502   8 O      0.865    -0.521    24.244     6.602
   503   7 N      2.692    -0.144    24.122     7.294
   504   1 H      0.860     0.237     0.934     1.514
   505   6 C      3.817     0.038    19.929     6.353
   506   1 H      0.925     0.066     2.125     2.280
   507   6 C      3.808    -0.085    22.107     6.693
   508   1 H      0.925     0.111     1.689     2.032
   509   1 H      0.924     0.091     1.871     2.139
   510   6 C      3.004     0.055    26.746     8.483
   511   7 N      2.819    -0.038    21.967     6.961
   512   1 H      0.860     0.249     0.888     1.476
   513   6 C      2.993     0.060    26.652     8.469
   514   1 H      0.926     0.153     1.374     1.833
   515   7 N      2.780    -0.006    21.370     6.866
   516   1 H      0.860     0.280     0.775     1.379
   517   6 C      3.081    -0.008    28.127     8.695
   518   1 H      0.926     0.120     1.614     1.987
   519   6 C      2.749     0.255    22.703     7.802
   520   8 O      0.858    -0.463    22.978     6.427
   521   7 N      2.688    -0.171    24.694     7.380
   522   1 H      0.860     0.197     1.122     1.659
   523   6 C      3.789     0.022    20.209     6.402
   524   1 H      0.924     0.068     2.104     2.268
   525   6 C      3.796    -0.079    22.022     6.682
   526   1 H      0.924     0.055     2.264     2.353
   527   1 H      0.925     0.055     2.253     2.347
   528   6 C      3.842    -0.017    20.846     6.495
   529   1 H      0.924     0.042     2.417     2.431
   530   6 C      3.775    -0.118    22.794     6.803
   531   1 H      0.924     0.038     2.480     2.463
   532   1 H      0.925     0.061     2.191     2.315
   533   1 H      0.924     0.036     2.499     2.472
   534   6 C      3.774    -0.138    23.186     6.861
   535   1 H      0.925     0.069     2.094     2.263
   536   1 H      0.925     0.051     2.306     2.375
   537   1 H      0.924     0.041     2.430     2.438
   538   6 C      2.755     0.275    22.354     7.742
   539   8 O      0.859    -0.501    23.798     6.541
   540   7 N      2.696    -0.185    25.019     7.429
   541   1 H      0.860     0.224     0.990     1.559
   542   6 C      3.787     0.002    20.567     6.459
   543   1 H      0.924     0.076     2.019     2.222
   544   6 C      3.807    -0.084    22.106     6.693
   545   1 H      0.924     0.057     2.235     2.338
   546   1 H      0.925     0.072     2.061     2.245
   547   6 C      3.846    -0.023    20.949     6.511
   548   1 H      0.924     0.045     2.386     2.416
   549   6 C      3.776    -0.131    23.034     6.838
   550   1 H      0.924     0.064     2.155     2.296
   551   1 H      0.925     0.064     2.148     2.292
   552   1 H      0.925     0.053     2.279     2.361
   553   6 C      3.763    -0.127    22.983     6.834
   554   1 H      0.925     0.068     2.110     2.272
   555   1 H      0.924     0.025     2.660     2.551
   556   1 H      0.925     0.026     2.648     2.545
   557   6 C      2.760     0.286    22.162     7.709
   558   8 O      0.864    -0.448    22.655     6.382
   559   7 N      2.690    -0.197    25.278     7.467
   560   1 H      0.860     0.220     1.012     1.576
   561   6 C      3.795     0.009    20.428     6.436
   562   1 H      0.925     0.063     2.163     2.300
   563   6 C      3.730     0.108    18.889     6.204
   564   1 H      0.925     0.026     2.640     2.541
   565   6 C      3.751    -0.121    22.884     6.822
   566   1 H      0.925     0.069     2.101     2.267
   567   1 H      0.924     0.051     2.305     2.374
   568   1 H      0.924     0.060     2.197     2.318
   569   8 O      1.657    -0.480    22.467     6.399
   570   1 H      0.812     0.346     0.597     1.213
   571   6 C      2.748     0.269    22.448     7.758
   572   8 O      0.862    -0.464    23.003     6.430
   573   7 N      2.689    -0.176    24.816     7.399
   574   1 H      0.860     0.210     1.058     1.612
   575   6 C      3.793     0.011    20.392     6.431
   576   1 H      0.925     0.104     1.745     2.066
   577   6 C      3.801    -0.082    22.070     6.689
   578   1 H      0.925     0.080     1.978     2.200
   579   1 H      0.925     0.070     2.087     2.259
   580   6 C      3.796    -0.083    22.094     6.693
   581   1 H      0.925     0.058     2.222     2.331
   582   1 H      0.924     0.056     2.243     2.342
   583   6 C      3.794    -0.102    22.458     6.748
   584   1 H      0.924     0.076     2.025     2.226
   585   1 H      0.925     0.090     1.879     2.144
   586   6 C      3.721    -0.059    21.754     6.661
   587   1 H      0.925     0.115     1.653     2.011
   588   1 H      0.925     0.133     1.511     1.922
   589   7 N      3.485    -0.140    24.018     7.279
   590   1 H      0.860     0.297     0.721     1.330
   591   1 H      0.860     0.301     0.710     1.319
   592   1 H      0.860     0.279     0.780     1.383
   593   6 C      2.752     0.265    22.527     7.772
   594   8 O      0.861    -0.547    24.839     6.682
   595   7 N      2.687    -0.148    24.196     7.306
   596   1 H      0.860     0.219     1.012     1.576
   597   6 C      3.788     0.018    20.279     6.414
   598   1 H      0.925     0.089     1.891     2.150
   599   6 C      3.673     0.071    19.621     6.348
   600   1 H      0.925     0.057     2.229     2.335
   601   1 H      0.925     0.053     2.279     2.361
   602   8 O      1.661    -0.484    22.541     6.409
   603   1 H      0.805     0.339     0.614     1.231
   604   6 C      2.759     0.256    22.689     7.800
   605   8 O      0.858    -0.492    23.610     6.515
   606   7 N      2.749    -0.092    23.034     7.128
   607   6 C      3.758    -0.017    20.928     6.522
   608   1 H      0.924     0.069     2.094     2.263
   609   1 H      0.924     0.077     2.013     2.219
   610   6 C      3.822    -0.076    21.933     6.665
   611   1 H      0.924     0.073     2.055     2.242
   612   1 H      0.925     0.062     2.174     2.306
   613   6 C      3.834    -0.070    21.816     6.645
   614   1 H      0.924     0.069     2.097     2.264
   615   1 H      0.924     0.069     2.098     2.265
   616   6 C      3.808     0.021    20.218     6.401
   617   1 H      0.924     0.096     1.819     2.109
   618   6 C      2.738     0.259    22.641     7.791
   619   8 O      0.857    -0.478    23.293     6.471
   620   7 N      2.674    -0.158    24.430     7.341
   621   1 H      0.860     0.196     1.128     1.664
   622   6 C      3.773     0.010    20.439     6.442
   623   1 H      0.924     0.104     1.752     2.070
   624   6 C      3.675     0.083    19.425     6.315
   625   1 H      0.925     0.026     2.644     2.543
   626   1 H      0.924     0.037     2.490     2.468
   627   8 O      1.661    -0.454    21.933     6.322
   628   1 H      0.806     0.355     0.577     1.193
   629   6 C      2.740     0.253    22.745     7.809
   630   8 O      0.856    -0.474    23.220     6.461
   631   7 N      2.677    -0.177    24.838     7.402
   632   1 H      0.860     0.222     0.999     1.566
   633   6 C      3.781     0.006    20.499     6.450
   634   1 H      0.925     0.120     1.615     1.988
   635   6 C      3.807    -0.084    22.104     6.693
   636   1 H      0.925     0.052     2.295     2.369
   637   1 H      0.924     0.077     2.014     2.220
   638   6 C      3.851    -0.021    20.913     6.504
   639   1 H      0.925     0.052     2.298     2.371
   640   6 C      3.778    -0.140    23.223     6.866
   641   1 H      0.924     0.039     2.464     2.455
   642   1 H      0.925     0.072     2.060     2.244
   643   1 H      0.925     0.050     2.321     2.382
   644   6 C      3.778    -0.136    23.138     6.853
   645   1 H      0.925     0.077     2.011     2.218
   646   1 H      0.924     0.037     2.492     2.469
   647   1 H      0.925     0.050     2.315     2.379
   648   6 C      2.749     0.269    22.451     7.759
   649   8 O      0.862    -0.465    23.023     6.433
   650   7 N      2.694    -0.186    25.020     7.429
   651   1 H      0.860     0.212     1.046     1.602
   652   6 C      3.784     0.034    20.013     6.372
   653   1 H      0.925     0.106     1.730     2.057
   654   6 C      3.814    -0.116    22.713     6.783
   655   1 H      0.924     0.092     1.860     2.133
   656   1 H      0.925     0.107     1.720     2.051
   657   6 C      2.744     0.291    22.067     7.692
   658   8 O      0.881    -0.562    25.186     6.729
   659   7 N      2.661    -0.261    26.776     7.685
   660   1 H      0.860     0.244     0.908     1.493
   661   1 H      0.860     0.240     0.921     1.504
   662   6 C      2.750     0.256    22.686     7.799
   663   8 O      0.857    -0.507    23.937     6.560
   664   7 N      2.688    -0.174    24.774     7.392
   665   1 H      0.860     0.211     1.053     1.608
   666   6 C      3.787     0.022    20.223     6.405
   667   1 H      0.925     0.086     1.920     2.167
   668   6 C      3.746    -0.131    23.087     6.854
   669   1 H      0.924     0.070     2.080     2.256
   670   1 H      0.925     0.072     2.063     2.246
   671   1 H      0.925     0.074     2.044     2.236
   672   6 C      2.762     0.258    22.650     7.794
   673   8 O      0.857    -0.543    24.755     6.671
   674   7 N      2.686    -0.169    24.653     7.374
   675   1 H      0.860     0.236     0.939     1.518
   676   6 C      3.794     0.016    20.313     6.418
   677   1 H      0.925     0.077     2.009     2.217
   678   6 C      3.752    -0.142    23.296     6.883
   679   1 H      0.924     0.077     2.008     2.216
   680   1 H      0.925     0.094     1.845     2.124
   681   1 H      0.925     0.074     2.041     2.234
   682   6 C      2.745     0.262    22.587     7.782
   683   8 O      0.859    -0.519    24.199     6.595
   684   7 N      2.690    -0.170    24.682     7.379
   685   1 H      0.860     0.238     0.931     1.511
   686   6 C      3.788     0.018    20.291     6.416
   687   1 H      0.925     0.111     1.691     2.033
   688   6 C      3.810    -0.082    22.052     6.684
   689   1 H      0.924     0.069     2.098     2.265
   690   1 H      0.924     0.055     2.258     2.350
   691   6 C      3.806    -0.097    22.341     6.729
   692   1 H      0.925     0.086     1.921     2.167
   693   1 H      0.925     0.077     2.011     2.218
   694   6 C      3.798    -0.099    22.397     6.739
   695   1 H      0.924     0.068     2.113     2.273
   696   1 H      0.925     0.078     2.001     2.212
   697   6 C      3.733    -0.064    21.819     6.667
   698   1 H      0.924     0.139     1.468     1.895
   699   1 H      0.925     0.120     1.616     1.988
   700   7 N      3.489    -0.143    24.084     7.289
   701   1 H      0.860     0.281     0.772     1.377
   702   1 H      0.860     0.294     0.733     1.341
   703   1 H      0.860     0.311     0.682     1.293
   704   6 C      2.762     0.266    22.503     7.769
   705   8 O      0.859    -0.529    24.441     6.628
   706   7 N      2.680    -0.170    24.674     7.377
   707   1 H      0.860     0.224     0.992     1.561
   708   6 C      3.784     0.021    20.235     6.408
   709   1 H      0.925     0.084     1.939     2.178
   710   6 C      3.676     0.073    19.581     6.340
   711   1 H      0.925     0.063     2.159     2.298
   712   1 H      0.924     0.048     2.343     2.394
   713   8 O      1.653    -0.480    22.469     6.399
   714   1 H      0.805     0.347     0.595     1.211
   715   6 C      2.741     0.272    22.409     7.751
   716   8 O      0.861    -0.472    23.176     6.455
   717   7 N      2.688    -0.191    25.141     7.447
   718   1 H      0.860     0.204     1.087     1.634
   719   6 C      3.792     0.028    20.114     6.387
   720   1 H      0.925     0.081     1.970     2.195
   721   6 C      3.807    -0.064    21.715     6.634
   722   1 H      0.925     0.053     2.286     2.365
   723   1 H      0.925     0.076     2.025     2.226
   724   6 C      3.804    -0.093    22.269     6.718
   725   1 H      0.924     0.031     2.569     2.507
   726   1 H      0.925     0.043     2.409     2.427
   727   6 C      2.690     0.367    20.776     7.460
   728   8 O      0.857    -0.663    27.729     7.060
   729   8 O      0.857    -0.619    26.603     6.915
   730   6 C      2.756     0.255    22.715     7.805
   731   8 O      0.857    -0.491    23.582     6.511
   732   7 N      2.692    -0.192    25.167     7.451
   733   1 H      0.860     0.233     0.954     1.530
   734   6 C      3.797     0.033    20.019     6.371
   735   1 H      0.925     0.085     1.932     2.173
   736   6 C      3.818    -0.093    22.250     6.713
   737   1 H      0.925     0.058     2.218     2.329
   738   1 H      0.925     0.092     1.864     2.135
   739   6 C      3.850    -0.012    20.764     6.481
   740   1 H      0.924     0.028     2.616     2.529
   741   6 C      3.764    -0.119    22.825     6.810
   742   1 H      0.925     0.056     2.245     2.343
   743   1 H      0.925     0.019     2.745     2.591
   744   1 H      0.925     0.046     2.366     2.405
   745   6 C      3.772    -0.132    23.078     6.845
   746   1 H      0.925     0.049     2.328     2.386
   747   1 H      0.925     0.073     2.050     2.239
   748   1 H      0.924     0.064     2.148     2.292
   749   6 C      2.752     0.267    22.490     7.765
   750   8 O      0.856    -0.516    24.139     6.587
   751   7 N      2.675    -0.201    25.371     7.481
   752   1 H      0.860     0.210     1.058     1.611
   753   6 C      3.767     0.036    20.008     6.375
   754   1 H      0.924     0.069     2.094     2.263
   755   6 C      3.800    -0.093    22.265     6.718
   756   1 H      0.925     0.036     2.496     2.471
   757   1 H      0.925     0.062     2.177     2.307
   758   6 C      2.688     0.373    20.687     7.443
   759   8 O      0.857    -0.633    26.936     6.958
   760   8 O      0.858    -0.668    27.856     7.076
   761   6 C      2.734     0.275    22.351     7.740
   762   8 O      0.858    -0.498    23.737     6.532
   763   7 N      2.685    -0.190    25.130     7.445
   764   1 H      0.860     0.203     1.089     1.635
   765   6 C      3.792     0.036    19.971     6.364
   766   1 H      0.925     0.065     2.142     2.289
   767   6 C      3.808    -0.082    22.065     6.687
   768   1 H      0.925     0.073     2.049     2.238
   769   1 H      0.925     0.074     2.046     2.237
   770   6 C      3.804    -0.072    21.866     6.657
   771   1 H      0.925     0.046     2.366     2.405
   772   1 H      0.925     0.047     2.357     2.401
   773   6 C      3.796    -0.086    22.148     6.701
   774   1 H      0.925     0.089     1.893     2.152
   775   1 H      0.924     0.070     2.087     2.259
   776   6 C      3.722    -0.047    21.528     6.626
   777   1 H      0.925     0.115     1.655     2.012
   778   1 H      0.924     0.118     1.627     1.995
   779   7 N      3.482    -0.156    24.365     7.331
   780   1 H      0.860     0.294     0.731     1.339
   781   1 H      0.860     0.265     0.826     1.424
   782   1 H      0.860     0.292     0.738     1.346
   783   6 C      2.751     0.279    22.287     7.730
   784   8 O      0.860    -0.494    23.646     6.520
   785   7 N      2.687    -0.180    24.893     7.410
   786   1 H      0.860     0.209     1.062     1.614
   787   6 C      3.789     0.013    20.373     6.428
   788   1 H      0.925     0.088     1.900     2.156
   789   6 C      3.750    -0.139    23.241     6.875
   790   1 H      0.924     0.072     2.062     2.246
   791   1 H      0.925     0.063     2.161     2.299
   792   1 H      0.925     0.079     1.987     2.204
   793   6 C      2.756     0.273    22.386     7.748
   794   8 O      0.859    -0.534    24.549     6.643
   795   7 N      2.685    -0.158    24.425     7.340
   796   1 H      0.860     0.236     0.939     1.518
   797   6 C      3.781     0.006    20.502     6.450
   798   1 H      0.924     0.094     1.844     2.123
   799   6 C      3.831    -0.033    21.145     6.543
   800   1 H      0.924     0.074     2.037     2.232
   801   6 C      3.745    -0.115    22.773     6.807
   802   1 H      0.925     0.075     2.030     2.228
   803   1 H      0.925     0.034     2.527     2.486
   804   1 H      0.924     0.026     2.649     2.545
   805   6 C      3.799    -0.068    21.799     6.648
   806   1 H      0.924     0.034     2.527     2.486
   807   1 H      0.924     0.071     2.080     2.255
   808   6 C      3.749    -0.112    22.714     6.797
   809   1 H      0.924     0.023     2.695     2.567
   810   1 H      0.925     0.053     2.284     2.363
   811   1 H      0.924     0.051     2.310     2.377
   812   6 C      2.748     0.269    22.448     7.758
   813   8 O      0.858    -0.497    23.727     6.531
   814   7 N      2.681    -0.159    24.433     7.341
   815   1 H      0.860     0.195     1.134     1.668
   816   6 C      3.742    -0.026    21.116     6.556
   817   1 H      0.924     0.099     1.795     2.095
   818   1 H      0.924     0.082     1.961     2.190
   819   6 C      2.746     0.273    22.385     7.747
   820   8 O      0.859    -0.507    23.948     6.561
   821   7 N      2.684    -0.163    24.524     7.355
   822   1 H      0.860     0.211     1.049     1.605
   823   6 C      3.782     0.014    20.355     6.427
   824   1 H      0.924     0.072     2.060     2.245
   825   6 C      3.792    -0.093    22.274     6.721
   826   1 H      0.925     0.080     1.975     2.198
   827   1 H      0.925     0.085     1.929     2.172
   828   6 C      3.799    -0.075    21.933     6.668
   829   1 H      0.925     0.062     2.179     2.309
   830   1 H      0.924     0.046     2.376     2.410
   831   6 C      3.744    -0.022    21.030     6.542
   832   1 H      0.925     0.087     1.904     2.158
   833   1 H      0.925     0.086     1.915     2.164
   834   7 N      2.703    -0.119    23.601     7.215
   835   1 H      0.860     0.239     0.925     1.507
   836   6 C      2.742     0.239    22.996     7.852
   837   7 N      2.684    -0.276    27.128     7.736
   838   1 H      0.860     0.239     0.926     1.508
   839   1 H      0.860     0.235     0.944     1.522
   840   7 N      2.695    -0.274    27.083     7.729
   841   1 H      0.860     0.232     0.955     1.531
   842   1 H      0.860     0.248     0.891     1.478
   843   6 C      2.747     0.271    22.413     7.752
   844   8 O      0.858    -0.468    23.085     6.442
   845   7 N      2.687    -0.185    25.004     7.427
   846   1 H      0.860     0.208     1.065     1.616
   847   6 C      3.778     0.024    20.198     6.403
   848   1 H      0.925     0.064     2.157     2.297
   849   6 C      3.800    -0.113    22.662     6.778
   850   1 H      0.925     0.100     1.787     2.091
   851   1 H      0.924     0.072     2.059     2.244
   852   6 C      2.741     0.294    22.009     7.681
   853   8 O      0.864    -0.505    23.901     6.555
   854   7 N      2.644    -0.267    26.909     7.704
   855   1 H      0.860     0.258     0.851     1.445
   856   1 H      0.860     0.230     0.967     1.540
   857   6 C      2.751     0.270    22.445     7.758
   858   8 O      0.860    -0.470    23.129     6.448
   859   7 N      2.683    -0.174    24.775     7.393
   860   1 H      0.860     0.195     1.134     1.668
   861   6 C      3.817     0.009    20.414     6.430
   862   1 H      0.925     0.102     1.763     2.076
   863   6 C      3.787    -0.025    21.029     6.532
   864   1 H      0.924     0.055     2.259     2.350
   865   1 H      0.925     0.109     1.706     2.043
   866  16 S      1.936    -0.239   151.306    20.703
   867   1 H      0.923     0.153     1.372     1.832
   868   6 C      2.745     0.266    22.502     7.767
   869   8 O      0.865    -0.445    22.596     6.373
   870   7 N      2.693    -0.196    25.254     7.464
   871   1 H      0.860     0.187     1.173     1.696
   872   6 C      3.798     0.023    20.187     6.397
   873   1 H      0.924     0.085     1.924     2.169
   874   6 C      3.819    -0.113    22.645     6.772
   875   1 H      0.925     0.091     1.872     2.140
   876   1 H      0.924     0.072     2.068     2.249
   877   6 C      2.749     0.304    21.836     7.652
   878   8 O      0.878    -0.456    22.831     6.407
   879   7 N      2.659    -0.291    27.500     7.788
   880   1 H      0.860     0.256     0.860     1.453
   881   1 H      0.860     0.222     1.002     1.568
   882   6 C      2.756     0.263    22.569     7.779
   883   8 O      0.860    -0.437    22.432     6.350
   884   7 N      2.686    -0.143    24.105     7.292
   885   1 H      0.860     0.185     1.183     1.704
   886   6 C      3.734    -0.046    21.496     6.617
   887   1 H      0.924     0.130     1.536     1.938
   888   1 H      0.925     0.097     1.810     2.104
   889   6 C      2.729     0.256    22.695     7.799
   890   8 O      0.861    -0.453    22.761     6.396
   891   7 N      2.683    -0.156    24.381     7.333
   892   1 H      0.860     0.201     1.101     1.644
   893   6 C      3.780     0.009    20.440     6.441
   894   1 H      0.924     0.095     1.831     2.116
   895   6 C      3.862    -0.020    20.890     6.500
   896   1 H      0.924     0.039     2.459     2.452
   897   6 C      3.778    -0.123    22.879     6.815
   898   1 H      0.925     0.014     2.824     2.628
   899   1 H      0.925     0.052     2.299     2.371
   900   1 H      0.924     0.056     2.243     2.342
   901   6 C      3.779    -0.137    23.161     6.856
   902   1 H      0.925     0.054     2.270     2.356
   903   1 H      0.925     0.056     2.244     2.343
   904   1 H      0.925     0.079     1.991     2.206
   905   6 C      2.761     0.271    22.419     7.754
   906   8 O      0.857    -0.516    24.145     6.588
   907   7 N      2.684    -0.157    24.389     7.335
   908   1 H      0.860     0.231     0.961     1.535
   909   6 C      3.795     0.014    20.351     6.424
   910   1 H      0.924     0.074     2.045     2.236
   911   6 C      3.862    -0.021    20.910     6.503
   912   1 H      0.925     0.039     2.457     2.451
   913   6 C      3.755    -0.126    22.969     6.834
   914   1 H      0.924     0.066     2.127     2.281
   915   1 H      0.925     0.044     2.401     2.423
   916   1 H      0.924     0.053     2.285     2.364
   917   6 C      3.808    -0.066    21.750     6.639
   918   1 H      0.924     0.029     2.604     2.523
   919   1 H      0.925     0.067     2.122     2.278
   920   6 C      3.750    -0.118    22.823     6.813
   921   1 H      0.925     0.043     2.408     2.427
   922   1 H      0.924     0.058     2.227     2.334
   923   1 H      0.925     0.020     2.734     2.586
   924   6 C      2.743     0.262    22.584     7.781
   925   8 O      0.859    -0.481    23.362     6.480
   926   7 N      2.685    -0.197    25.279     7.467
   927   1 H      0.860     0.218     1.020     1.582
   928   6 C      3.786     0.001    20.584     6.462
   929   1 H      0.925     0.075     2.030     2.228
   930   6 C      3.734     0.118    18.737     6.178
   931   1 H      0.924     0.040     2.443     2.444
   932   6 C      3.755    -0.142    23.304     6.883
   933   1 H      0.924     0.066     2.135     2.285
   934   1 H      0.925     0.059     2.212     2.326
   935   1 H      0.924     0.066     2.125     2.279
   936   8 O      1.660    -0.491    22.700     6.432
   937   1 H      0.807     0.325     0.650     1.266
   938   6 C      2.751     0.269    22.460     7.760
   939   8 O      0.857    -0.490    23.555     6.507
   940   7 N      2.685    -0.173    24.753     7.389
   941   1 H      0.860     0.224     0.991     1.559
   942   6 C      3.793     0.012    20.375     6.428
   943   1 H      0.925     0.107     1.721     2.051
   944   6 C      3.812    -0.089    22.179     6.703
   945   1 H      0.925     0.053     2.286     2.364
   946   1 H      0.925     0.083     1.946     2.181
   947   6 C      3.799    -0.080    22.036     6.684
   948   1 H      0.925     0.078     2.000     2.211
   949   1 H      0.925     0.061     2.190     2.314
   950   6 C      3.798    -0.108    22.563     6.764
   951   1 H      0.924     0.095     1.832     2.116
   952   1 H      0.924     0.091     1.865     2.136
   953   6 C      3.729    -0.058    21.713     6.652
   954   1 H      0.925     0.123     1.592     1.973
   955   1 H      0.925     0.121     1.609     1.984
   956   7 N      3.488    -0.144    24.104     7.292
   957   1 H      0.860     0.297     0.721     1.330
   958   1 H      0.860     0.300     0.713     1.322
   959   1 H      0.860     0.289     0.746     1.353
   960   6 C      2.749     0.267    22.484     7.764
   961   8 O      0.859    -0.483    23.411     6.487
   962   7 N      2.683    -0.179    24.880     7.408
   963   1 H      0.860     0.208     1.064     1.616
   964   6 C      3.783     0.027    20.142     6.393
   965   1 H      0.925     0.074     2.046     2.237
   966   6 C      3.804    -0.091    22.230     6.712
   967   1 H      0.925     0.030     2.584     2.514
   968   1 H      0.925     0.056     2.249     2.345
   969   6 C      2.692     0.361    20.877     7.478
   970   8 O      0.857    -0.649    27.355     7.012
   971   8 O      0.857    -0.665    27.773     7.066
   972   6 C      2.737     0.278    22.302     7.732
   973   8 O      0.859    -0.483    23.408     6.487
   974   7 N      2.695    -0.192    25.166     7.451
   975   1 H      0.860     0.208     1.064     1.616
   976   6 C      3.794     0.028    20.109     6.386
   977   1 H      0.924     0.074     2.046     2.237
   978   6 C      3.811    -0.069    21.804     6.647
   979   1 H      0.925     0.062     2.173     2.305
   980   1 H      0.925     0.068     2.105     2.269
   981   6 C      3.801    -0.101    22.429     6.743
   982   1 H      0.924     0.042     2.428     2.437
   983   1 H      0.925     0.045     2.385     2.415
   984   6 C      2.684     0.357    20.935     7.488
   985   8 O      0.857    -0.568    25.335     6.748
   986   8 O      0.857    -0.628    26.821     6.944
   987   6 C      2.759     0.263    22.568     7.780
   988   8 O      0.858    -0.484    23.426     6.489
   989   7 N      2.697    -0.172    24.729     7.386
   990   1 H      0.860     0.228     0.975     1.547
   991   6 C      3.798     0.026    20.138     6.390
   992   1 H      0.925     0.086     1.922     2.168
   993   6 C      3.766    -0.146    23.355     6.888
   994   1 H      0.925     0.080     1.974     2.197
   995   1 H      0.925     0.080     1.978     2.199
   996   1 H      0.925     0.087     1.911     2.162
   997   6 C      2.744     0.264    22.555     7.776
   998   8 O      0.858    -0.502    23.822     6.544
   999   7 N      2.682    -0.190    25.117     7.443
  1000   1 H      0.860     0.216     1.030     1.590
  1001   6 C      3.785     0.029    20.103     6.386
  1002   1 H      0.924     0.096     1.818     2.108
  1003   6 C      3.802    -0.060    21.655     6.625
  1004   1 H      0.924     0.028     2.610     2.527
  1005   1 H      0.925     0.090     1.877     2.143
  1006   6 C      3.804    -0.089    22.202     6.708
  1007   1 H      0.925     0.017     2.775     2.605
  1008   1 H      0.925     0.056     2.243     2.342
  1009   6 C      2.688     0.365    20.814     7.466
  1010   8 O      0.856    -0.601    26.143     6.855
  1011   8 O      0.857    -0.597    26.048     6.843
  1012   6 C      2.750     0.278    22.295     7.732
  1013   8 O      0.860    -0.510    24.016     6.570
  1014   7 N      2.682    -0.193    25.196     7.455
  1015   1 H      0.860     0.196     1.126     1.662
  1016   6 C      3.793     0.022    20.219     6.403
  1017   1 H      0.925     0.077     2.012     2.218
  1018   6 C      3.808    -0.081    22.031     6.682
  1019   1 H      0.925     0.056     2.244     2.342
  1020   1 H      0.925     0.063     2.167     2.302
  1021   6 C      3.801    -0.077    21.971     6.674
  1022   1 H      0.925     0.069     2.098     2.265
  1023   1 H      0.925     0.057     2.230     2.335
  1024   6 C      3.805    -0.099    22.377     6.734
  1025   1 H      0.925     0.078     2.005     2.214
  1026   1 H      0.924     0.074     2.037     2.232
  1027   6 C      3.736    -0.052    21.589     6.631
  1028   1 H      0.925     0.120     1.613     1.986
  1029   1 H      0.924     0.119     1.625     1.993
  1030   7 N      3.489    -0.143    24.080     7.288
  1031   1 H      0.860     0.300     0.713     1.323
  1032   1 H      0.860     0.298     0.719     1.329
  1033   1 H      0.860     0.311     0.682     1.294
  1034   6 C      2.751     0.283    22.215     7.718
  1035   8 O      0.860    -0.474    23.211     6.459
  1036   7 N      2.687    -0.194    25.211     7.457
  1037   1 H      0.860     0.215     1.031     1.590
  1038   6 C      3.788     0.029    20.099     6.385
  1039   1 H      0.925     0.072     2.062     2.246
  1040   6 C      3.804    -0.090    22.206     6.709
  1041   1 H      0.925     0.057     2.237     2.339
  1042   1 H      0.925     0.072     2.065     2.247
  1043   6 C      3.846    -0.010    20.720     6.475
  1044   1 H      0.924     0.016     2.800     2.617
  1045   6 C      3.758    -0.127    22.987     6.836
  1046   1 H      0.924     0.041     2.442     2.444
  1047   1 H      0.924     0.065     2.141     2.288
  1048   1 H      0.924     0.035     2.517     2.481
  1049   6 C      3.759    -0.127    22.984     6.835
  1050   1 H      0.924     0.043     2.412     2.429
  1051   1 H      0.925     0.070     2.090     2.261
  1052   1 H      0.925     0.055     2.252     2.347
  1053   6 C      2.746     0.283    22.198     7.715
  1054   8 O      0.859    -0.490    23.556     6.507
  1055   7 N      2.677    -0.223    25.882     7.556
  1056   1 H      0.860     0.237     0.937     1.517
  1057   6 C      3.784     0.033    20.036     6.376
  1058   1 H      0.924     0.057     2.236     2.338
  1059   6 C      3.804    -0.071    21.848     6.654
  1060   1 H      0.925     0.062     2.175     2.306
  1061   1 H      0.924     0.069     2.102     2.267
  1062   6 C      2.948     0.008    27.852     8.656
  1063   6 C      2.941    -0.027    28.677     8.783
  1064   1 H      0.926     0.015     2.812     2.622
  1065   6 C      2.900    -0.033    28.818     8.802
  1066   1 H      0.926     0.048     2.351     2.398
  1067   6 C      2.940    -0.032    28.796     8.801
  1068   1 H      0.926     0.038     2.478     2.462
  1069   6 C      2.898    -0.034    28.844     8.806
  1070   1 H      0.925     0.053     2.278     2.360
  1071   6 C      2.935    -0.037    28.927     8.821
  1072   1 H      0.926     0.039     2.457     2.451
  1073   6 C      2.763     0.278    22.301     7.734
  1074   8 O      0.862    -0.497    23.721     6.530
  1075   7 N      2.696    -0.169    24.653     7.374
  1076   1 H      0.860     0.220     1.010     1.574
  1077   6 C      3.810     0.040    19.899     6.350
  1078   1 H      0.925     0.066     2.128     2.281
  1079   6 C      3.812    -0.116    22.699     6.781
  1080   1 H      0.925     0.092     1.855     2.130
  1081   1 H      0.924     0.080     1.980     2.201
  1082   6 C      2.744     0.288    22.127     7.702
  1083   8 O      0.874    -0.521    24.251     6.603
  1084   7 N      2.656    -0.273    27.064     7.726
  1085   1 H      0.860     0.269     0.814     1.414
  1086   1 H      0.860     0.234     0.948     1.525
  1087   6 C      2.744     0.281    22.235     7.721
  1088   8 O      0.857    -0.465    23.032     6.434
  1089   7 N      2.687    -0.208    25.524     7.503
  1090   1 H      0.860     0.208     1.064     1.616
  1091   6 C      3.781     0.029    20.112     6.389
  1092   1 H      0.925     0.087     1.905     2.158
  1093   6 C      3.806    -0.064    21.726     6.635
  1094   1 H      0.925     0.081     1.965     2.192
  1095   1 H      0.924     0.066     2.129     2.282
  1096   6 C      3.812    -0.101    22.410     6.738
  1097   1 H      0.924     0.078     2.004     2.214
  1098   1 H      0.925     0.081     1.964     2.192
  1099   6 C      2.746     0.282    22.217     7.718
  1100   8 O      0.862    -0.531    24.473     6.633
  1101   7 N      2.644    -0.287    27.402     7.775
  1102   1 H      0.860     0.250     0.884     1.473
  1103   1 H      0.860     0.231     0.962     1.537
  1104   6 C      2.748     0.280    22.252     7.724
  1105   8 O      0.862    -0.479    23.320     6.475
  1106   7 N      2.678    -0.192    25.157     7.449
  1107   1 H      0.860     0.192     1.149     1.679
  1108   6 C      3.780     0.043    19.873     6.351
  1109   1 H      0.925     0.077     2.006     2.215
  1110   6 C      3.805    -0.081    22.044     6.684
  1111   1 H      0.925     0.044     2.398     2.421
  1112   1 H      0.925     0.037     2.489     2.467
  1113   6 C      2.688     0.365    20.814     7.466
  1114   8 O      0.858    -0.626    26.757     6.935
  1115   8 O      0.859    -0.623    26.683     6.926
  1116   6 C      2.750     0.266    22.508     7.769
  1117   8 O      0.857    -0.499    23.763     6.536
  1118   7 N      2.679    -0.189    25.089     7.439
  1119   1 H      0.860     0.225     0.989     1.558
  1120   6 C      3.779     0.011    20.412     6.436
  1121   1 H      0.925     0.073     2.057     2.243
  1122   6 C      3.846    -0.021    20.919     6.506
  1123   1 H      0.924     0.033     2.549     2.497
  1124   6 C      3.755    -0.118    22.807     6.809
  1125   1 H      0.924     0.065     2.139     2.287
  1126   1 H      0.924     0.062     2.176     2.307
  1127   1 H      0.925     0.030     2.583     2.513
  1128   6 C      3.751    -0.124    22.934     6.829
  1129   1 H      0.924     0.063     2.160     2.298
  1130   1 H      0.924     0.068     2.110     2.272
  1131   1 H      0.925     0.035     2.511     2.478
  1132   6 C      2.743     0.276    22.323     7.736
  1133   8 O      0.860    -0.482    23.384     6.483
  1134   7 N      2.684    -0.198    25.308     7.472
  1135   1 H      0.860     0.216     1.028     1.588
  1136   6 C      3.794     0.039    19.934     6.358
  1137   1 H      0.925     0.085     1.928     2.171
  1138   6 C      3.805    -0.093    22.264     6.717
  1139   1 H      0.924     0.034     2.532     2.488
  1140   1 H      0.925     0.048     2.346     2.395
  1141   6 C      2.692     0.351    21.047     7.508
  1142   8 O      0.856    -0.633    26.941     6.959
  1143   8 O      0.856    -0.623    26.698     6.928
  1144   6 C      2.756     0.260    22.623     7.789
  1145   8 O      0.859    -0.498    23.746     6.533
  1146   7 N      2.689    -0.173    24.744     7.388
  1147   1 H      0.860     0.219     1.015     1.578
  1148   6 C      3.797     0.027    20.131     6.389
  1149   1 H      0.925     0.085     1.925     2.169
  1150   6 C      3.754    -0.138    23.210     6.870
  1151   1 H      0.925     0.085     1.927     2.171
  1152   1 H      0.924     0.083     1.945     2.181
  1153   1 H      0.924     0.055     2.260     2.351
  1154   6 C      2.752     0.278    22.297     7.732
  1155   8 O      0.859    -0.487    23.489     6.498
  1156   7 N      2.685    -0.202    25.402     7.485
  1157   1 H      0.860     0.225     0.986     1.555
  1158   6 C      3.788     0.025    20.160     6.395
  1159   1 H      0.925     0.064     2.151     2.293
  1160   6 C      3.746    -0.127    23.006     6.842
  1161   1 H      0.925     0.055     2.259     2.350
  1162   1 H      0.925     0.052     2.293     2.368
  1163   1 H      0.925     0.077     2.008     2.216
  1164   6 C      2.751     0.264    22.547     7.775
  1165   8 O      0.862    -0.515    24.126     6.586
  1166   7 N      2.695    -0.147    24.182     7.304
  1167   1 H      0.860     0.209     1.063     1.615
  1168   6 C      3.816     0.017    20.270     6.408
  1169   1 H      0.925     0.099     1.790     2.092
  1170   6 C      3.863    -0.014    20.792     6.484
  1171   1 H      0.925     0.040     2.454     2.450
  1172   6 C      3.764    -0.127    22.977     6.832
  1173   1 H      0.924     0.066     2.134     2.284
  1174   1 H      0.924     0.047     2.363     2.404
  1175   1 H      0.925     0.067     2.122     2.278
  1176   6 C      3.774    -0.135    23.122     6.852
  1177   1 H      0.925     0.064     2.156     2.296
  1178   1 H      0.924     0.061     2.182     2.310
  1179   1 H      0.925     0.039     2.457     2.451
  1180   6 C      2.758     0.272    22.398     7.750
  1181   8 O      0.861    -0.462    22.947     6.423
  1182   7 N      2.691    -0.196    25.263     7.465
  1183   1 H      0.860     0.204     1.088     1.634
  1184   6 C      3.790     0.009    20.437     6.438
  1185   1 H      0.924     0.103     1.761     2.075
  1186   6 C      3.795    -0.086    22.154     6.702
  1187   1 H      0.924     0.042     2.428     2.437
  1188   1 H      0.925     0.070     2.087     2.259
  1189   6 C      3.791    -0.102    22.448     6.747
  1190   1 H      0.924     0.097     1.815     2.107
  1191   1 H      0.925     0.076     2.023     2.224
  1192   6 C      3.731    -0.042    21.413     6.605
  1193   1 H      0.924     0.100     1.787     2.091
  1194   1 H      0.925     0.120     1.615     1.987
  1195   7 N      2.726    -0.136    23.941     7.267
  1196   1 H      0.861     0.245     0.904     1.490
  1197   6 C      2.733     0.243    22.936     7.841
  1198   7 N      2.695    -0.253    26.563     7.655
  1199   1 H      0.860     0.210     1.056     1.609
  1200   1 H      0.860     0.229     0.969     1.542
  1201   7 N      2.677    -0.260    26.752     7.682
  1202   1 H      0.860     0.240     0.921     1.503
  1203   1 H      0.860     0.260     0.845     1.440
  1204   6 C      2.744     0.265    22.529     7.772
  1205   8 O      0.858    -0.458    22.880     6.413
  1206   7 N      2.682    -0.182    24.938     7.417
  1207   1 H      0.860     0.216     1.026     1.587
  1208   6 C      3.735    -0.023    21.080     6.553
  1209   1 H      0.925     0.075     2.029     2.228
  1210   1 H      0.925     0.092     1.859     2.132
  1211   6 C      2.750     0.275    22.346     7.741
  1212   8 O      0.863    -0.518    24.187     6.594
  1213   7 N      2.691    -0.181    24.923     7.415
  1214   1 H      0.860     0.216     1.027     1.588
  1215   6 C      3.803     0.026    20.129     6.387
[...]
  2283  H   0.988        C 2281 0.960
  2284  C   3.952        O 2285 1.612    N 2286 1.355    C 2281 0.963
  2285  O   1.935        C 2284 1.612    N 2286 0.202
  2286  N   3.426        C 2284 1.355    H 2288 0.920    H 2287 0.913    O 2285 0.202
  2287  H   0.938        N 2286 0.913
  2288  H   0.943        N 2286 0.920
  2289  C   3.944        O 2290 1.667    N 2291 1.255    C 2279 0.940
  2290  O   2.018        C 2289 1.667    N 2291 0.199
  2291  N   3.433        C 2289 1.255    C 2293 0.978    H 2292 0.925    O 2290 0.199
  2292  H   0.952        N 2291 0.925
  2293  C   3.964        C 2295 0.978    N 2291 0.978    H 2294 0.951    C 2313 0.944
  2294  H   0.992        C 2293 0.951
  2295  C   3.983        C 2298 0.994    C 2293 0.978    H 2297 0.975    H 2296 0.971
  2296  H   0.995        C 2295 0.971
  2297  H   0.993        C 2295 0.975
  2298  C   3.986        C 2301 1.001    C 2295 0.994    H 2300 0.973    H 2299 0.971
  2299  H   0.996        C 2298 0.971
  2300  H   0.994        C 2298 0.973
  2301  C   3.937        C 2298 1.001    N 2304 0.965    H 2303 0.961    H 2302 0.960
  2302  H   0.989        C 2301 0.960
  2303  H   0.995        C 2301 0.961
  2304  N   3.405        C 2306 1.273    C 2301 0.965    H 2305 0.904
  2305  H   0.946        N 2304 0.904
  2306  C   3.972        N 2310 1.339    N 2307 1.330    N 2304 1.273
  2307  N   3.392        C 2306 1.330    H 2309 0.900    H 2308 0.876    N 2310 0.106
  2308  H   0.939        N 2307 0.876
  2309  H   0.947        N 2307 0.900
  2310  N   3.400        C 2306 1.339    H 2312 0.915    H 2311 0.882    N 2307 0.106
  2311  H   0.943        N 2310 0.882
  2312  H   0.947        N 2310 0.915
  2313  C   3.952        O 2314 1.597    N 2315 1.331    C 2293 0.944
  2314  O   1.954        C 2313 1.597    N 2315 0.202
  2315  N   3.487        C 2313 1.331    C 2317 0.965    H 2316 0.906    O 2314 0.202
  2316  H   0.950        N 2315 0.906
  2317  C   3.956        C 2319 0.989    N 2315 0.965    C 2323 0.947    H 2318 0.944
  2318  H   0.992        C 2317 0.944
  2319  C   3.980        C 2317 0.989    H 2320 0.979    H 2322 0.979    H 2321 0.977
  2320  H   0.996        C 2319 0.979
  2321  H   0.996        C 2319 0.977
  2322  H   0.994        C 2319 0.979
  2323  C   3.956        O 2324 1.604    N 2325 1.325    C 2317 0.947
  2324  O   1.946        C 2323 1.604    N 2325 0.195
  2325  N   3.467        C 2323 1.325    C 2327 0.960    H 2326 0.887    O 2324 0.195
  2326  H   0.944        N 2325 0.887
  2327  C   3.955        C 2329 0.983    N 2325 0.960    H 2328 0.947    C 2345 0.944
  2328  H   0.990        C 2327 0.947
  2329  C   3.979        C 2332 1.001    C 2327 0.983    H 2330 0.968    H 2331 0.962
  2330  H   0.996        C 2329 0.968
  2331  H   0.991        C 2329 0.962
  2332  C   3.981        C 2329 1.001    C 2335 0.999    H 2334 0.976    H 2333 0.972
  2333  H   0.995        C 2332 0.972
  2334  H   0.998        C 2332 0.976
  2335  C   3.982        C 2338 0.999    C 2332 0.999    H 2337 0.973    H 2336 0.972
  2336  H   0.992        C 2335 0.972
  2337  H   0.992        C 2335 0.973
  2338  C   3.915        C 2335 0.999    N 2341 0.978    H 2340 0.959    H 2339 0.953
  2339  H   0.984        C 2338 0.953
  2340  H   0.983        C 2338 0.959
  2341  N   3.666        C 2338 0.978    H 2344 0.891    H 2343 0.890    H 2342 0.890
  2342  H   0.910        N 2341 0.890
  2343  H   0.907        N 2341 0.890
  2344  H   0.910        N 2341 0.891
  2345  C   3.946        O 2346 1.528    N 2347 1.389    C 2327 0.944
  2346  O   1.864        C 2345 1.528    N 2347 0.188
  2347  N   3.528        C 2345 1.389    C 2349 0.983    H 2348 0.879    O 2346 0.188
  2348  H   0.941        N 2347 0.879
  2349  C   3.969        N 2347 0.983    C 2351 0.971    C 2369 0.949    H 2350 0.946
  2350  H   0.993        C 2349 0.946
  2351  C   3.983        C 2354 1.006    C 2349 0.971    H 2352 0.968    H 2353 0.966
  2352  H   0.996        C 2351 0.968
  2353  H   0.994        C 2351 0.966
  2354  C   3.985        C 2351 1.006    C 2357 0.987    H 2355 0.968    H 2356 0.968
  2355  H   0.992        C 2354 0.968
  2356  H   0.995        C 2354 0.968
  2357  C   3.939        C 2354 0.987    H 2359 0.970    N 2360 0.968    H 2358 0.966
  2358  H   0.991        C 2357 0.966
  2359  H   0.993        C 2357 0.970
  2360  N   3.454        C 2362 1.310    C 2357 0.968    H 2361 0.903    N 2363 0.107
  2361  H   0.949        N 2360 0.903
  2362  C   3.980        N 2363 1.355    N 2360 1.310    N 2366 1.286
  2363  N   3.409        C 2362 1.355    H 2364 0.905    H 2365 0.889    N 2360 0.107    N 2366 0.106
  2364  H   0.937        N 2363 0.905
  2365  H   0.928        N 2363 0.889
  2366  N   3.361        C 2362 1.286    H 2367 0.919    H 2368 0.872    N 2363 0.106
  2367  H   0.947        N 2366 0.919
  2368  H   0.947        N 2366 0.872
  2369  C   3.950        O 2370 1.591    N 2371 1.321    C 2349 0.949
  2370  O   1.930        C 2369 1.591    N 2371 0.196
  2371  N   3.468        C 2369 1.321    C 2373 0.958    H 2372 0.891    O 2370 0.196
  2372  H   0.950        N 2371 0.891
  2373  C   3.954        C 2375 0.972    N 2371 0.958    H 2374 0.951    C 2385 0.932
  2374  H   0.994        C 2373 0.951
  2375  C   3.990        C 2377 1.013    C 2381 1.003    C 2373 0.972    H 2376 0.956
  2376  H   0.996        C 2375 0.956
  2377  C   3.992        C 2375 1.013    H 2380 0.980    H 2379 0.978    H 2378 0.977
  2378  H   0.998        C 2377 0.977
  2379  H   0.997        C 2377 0.978
  2380  H   0.998        C 2377 0.980
  2381  C   3.991        C 2375 1.003    H 2384 0.983    H 2382 0.982    H 2383 0.981
  2382  H   0.997        C 2381 0.982
  2383  H   0.997        C 2381 0.981
  2384  H   0.999        C 2381 0.983
  2385  C   3.948        O 2386 1.657    N 2387 1.280    C 2373 0.932
  2386  O   2.005        C 2385 1.657    N 2387 0.201
  2387  N   3.435        C 2385 1.280    C 2389 0.957    H 2388 0.901    O 2386 0.201
  2388  H   0.950        N 2387 0.901
  2389  C   3.953        C 2404 0.965    C 2391 0.961    N 2387 0.957    H 2390 0.944
  2390  H   0.993        C 2389 0.944
  2391  C   3.980        C 2393 1.005    C 2397 0.987    H 2392 0.962    C 2389 0.961
  2392  H   0.996        C 2391 0.962
  2393  C   3.987        C 2391 1.005    H 2396 0.984    H 2395 0.980    H 2394 0.975
  2394  H   0.994        C 2393 0.975
  2395  H   0.997        C 2393 0.980
  2396  H   0.999        C 2393 0.984
  2397  C   3.990        C 2400 1.025    C 2391 0.987    H 2399 0.967    H 2398 0.963
  2398  H   0.998        C 2397 0.963
  2399  H   0.999        C 2397 0.967
  2400  C   3.992        C 2397 1.025    H 2401 0.979    H 2403 0.978    H 2402 0.978
  2401  H   0.997        C 2400 0.979
  2402  H   0.998        C 2400 0.978
  2403  H   0.997        C 2400 0.978
  2404  C   3.948        O 2405 1.575    N 2406 1.326    C 2389 0.965
  2405  O   1.919        C 2404 1.575    N 2406 0.189
  2406  N   3.483        C 2404 1.326    C 2408 0.969    H 2407 0.906    O 2405 0.189
  2407  H   0.952        N 2406 0.906
  2408  C   3.959        N 2406 0.969    C 2410 0.962    H 2409 0.944    C 2418 0.927
  2409  H   0.989        C 2408 0.944
  2410  C   3.965        C 2412 1.008    O 2416 0.985    H 2411 0.963    C 2408 0.962
  2411  H   0.999        C 2410 0.963
  2412  C   3.989        C 2410 1.008    H 2414 0.982    H 2415 0.980    H 2413 0.977
  2413  H   0.995        C 2412 0.977
  2414  H   0.999        C 2412 0.982
  2415  H   0.995        C 2412 0.980
  2416  O   1.935        C 2410 0.985    H 2417 0.864
  2417  H   0.887        O 2416 0.864
  2418  C   3.947        O 2419 1.590    N 2420 1.331    C 2408 0.927
  2419  O   1.958        C 2418 1.590    N 2420 0.190
  2420  N   3.489        C 2418 1.331    C 2422 0.978    H 2421 0.903    O 2419 0.190
  2421  H   0.953        N 2420 0.903
  2422  C   3.954        N 2420 0.978    H 2423 0.949    C 2432 0.942    C 2424 0.931
  2423  H   0.991        C 2422 0.949
  2424  C   3.955        O 2430 1.018    C 2426 0.991    H 2425 0.960    C 2422 0.931
  2425  H   0.999        C 2424 0.960
  2426  C   3.986        C 2424 0.991    H 2429 0.983    H 2428 0.983    H 2427 0.981
  2427  H   0.997        C 2426 0.981
  2428  H   0.996        C 2426 0.983
  2429  H   0.995        C 2426 0.983
  2430  O   1.973        C 2424 1.018    H 2431 0.857
  2431  H   0.894        O 2430 0.857
  2432  C   3.957        O 2433 1.588    N 2434 1.355    C 2422 0.942
  2433  O   1.914        C 2432 1.588    N 2434 0.200
  2434  N   3.486        C 2432 1.355    C 2436 0.941    H 2435 0.899    O 2433 0.200
  2435  H   0.950        N 2434 0.899
  2436  C   3.949        C 2438 0.974    C 2452 0.956    H 2437 0.950    N 2434 0.941
  2437  H   0.989        C 2436 0.950
  2438  C   3.981        C 2441 0.988    C 2436 0.974    H 2440 0.968    H 2439 0.959
  2439  H   0.992        C 2438 0.959
  2440  H   0.995        C 2438 0.968
  2441  C   3.982        C 2450 1.437    C 2442 1.392    C 2438 0.988    C 2446 0.114
  2442  C   3.987        C 2444 1.463    C 2441 1.392    H 2443 0.962    C 2448 0.110
  2443  H   0.998        C 2442 0.962
  2444  C   3.989        C 2442 1.463    C 2446 1.415    H 2445 0.970    C 2450 0.110
  2445  H   0.999        C 2444 0.970
  2446  C   3.985        C 2448 1.453    C 2444 1.415    H 2447 0.968    C 2441 0.114
  2447  H   0.998        C 2446 0.968
  2448  C   3.988        C 2446 1.453    C 2450 1.426    H 2449 0.966    C 2442 0.110
  2449  H   0.997        C 2448 0.966
  2450  C   3.987        C 2441 1.437    C 2448 1.426    H 2451 0.963    C 2444 0.110
  2451  H   0.997        C 2450 0.963
  2452  C   3.948        O 2453 1.615    N 2454 1.304    C 2436 0.956
  2453  O   1.948        C 2452 1.615    N 2454 0.197
  2454  N   3.447        C 2452 1.304    C 2456 0.958    H 2455 0.893    O 2453 0.197
  2455  H   0.946        N 2454 0.893
  2456  C   3.955        C 2458 0.986    N 2454 0.958    H 2457 0.946    C 2476 0.934
  2457  H   0.991        C 2456 0.946
  2458  C   3.982        C 2461 0.996    C 2456 0.986    H 2459 0.970    H 2460 0.961
  2459  H   0.996        C 2458 0.970
  2460  H   0.992        C 2458 0.961
  2461  C   3.988        C 2464 1.005    C 2458 0.996    H 2463 0.975    H 2462 0.973
  2462  H   0.995        C 2461 0.973
  2463  H   0.995        C 2461 0.975
  2464  C   3.947        C 2461 1.005    N 2467 0.971    H 2465 0.966    H 2466 0.962
  2465  H   0.992        C 2464 0.966
  2466  H   0.991        C 2464 0.962
  2467  N   3.406        C 2469 1.260    C 2464 0.971    H 2468 0.920    N 2473 0.102
  2468  H   0.949        N 2467 0.920
  2469  C   3.975        N 2473 1.373    N 2470 1.316    N 2467 1.260
  2470  N   3.391        C 2469 1.316    H 2472 0.921    H 2471 0.878    N 2473 0.111
  2471  H   0.940        N 2470 0.878
  2472  H   0.948        N 2470 0.921
  2473  N   3.440        C 2469 1.373    H 2475 0.914    H 2474 0.888    N 2470 0.111    N 2467 0.102
  2474  H   0.936        N 2473 0.888
  2475  H   0.941        N 2473 0.914
  2476  C   3.944        O 2477 1.648    N 2478 1.290    C 2456 0.934
  2477  O   1.982        C 2476 1.648    N 2478 0.196
  2478  N   3.446        C 2476 1.290    C 2480 0.970    H 2479 0.896    O 2477 0.196
  2479  H   0.950        N 2478 0.896
  2480  C   3.961        N 2478 0.970    C 2482 0.956    H 2481 0.950    C 2490 0.924
  2481  H   0.991        C 2480 0.950
  2482  C   3.955        C 2484 1.008    O 2488 0.982    H 2483 0.963    C 2480 0.956
  2483  H   0.996        C 2482 0.963
  2484  C   3.979        C 2482 1.008    H 2485 0.977    H 2487 0.975    H 2486 0.968
  2485  H   0.996        C 2484 0.977
  2486  H   0.996        C 2484 0.968
  2487  H   0.996        C 2484 0.975
  2488  O   1.916        C 2482 0.982    H 2489 0.840
  2489  H   0.889        O 2488 0.840
  2490  C   3.951        O 2491 1.638    N 2492 1.314    C 2480 0.924
  2491  O   1.960        C 2490 1.638    N 2492 0.197
  2492  N   3.486        C 2490 1.314    C 2494 0.992    H 2493 0.917    O 2491 0.197
  2493  H   0.954        N 2492 0.917
  2494  C   3.958        N 2492 0.992    C 2497 0.959    H 2495 0.946    H 2496 0.945
  2495  H   0.988        C 2494 0.946
  2496  H   0.987        C 2494 0.945
  2497  C   3.953        O 2498 1.602    N 2499 1.328    C 2494 0.959
  2498  O   1.916        C 2497 1.602    N 2499 0.199
  2499  N   3.477        C 2497 1.328    C 2501 0.962    H 2500 0.919    O 2498 0.199
  2500  H   0.958        N 2499 0.919
  2501  C   3.958        N 2499 0.962    C 2511 0.951    C 2503 0.950    H 2502 0.942
  2502  H   0.991        C 2501 0.942
  2503  C   3.954        C 2505 1.003    O 2509 0.986    H 2504 0.965    C 2501 0.950
  2504  H   0.997        C 2503 0.965
  2505  C   3.990        C 2503 1.003    H 2506 0.984    H 2508 0.984    H 2507 0.982
  2506  H   0.996        C 2505 0.984
  2507  H   0.997        C 2505 0.982
  2508  H   0.995        C 2505 0.984
  2509  O   1.929        C 2503 0.986    H 2510 0.862
  2510  H   0.879        O 2509 0.862
  2511  C   3.957        O 2512 1.592    N 2513 1.347    C 2501 0.951
  2512  O   1.940        C 2511 1.592    N 2513 0.197
  2513  N   3.483        C 2511 1.347    C 2515 0.948    H 2514 0.908    O 2512 0.197
  2514  H   0.946        N 2513 0.908
  2515  C   3.958        C 2517 0.986    C 2535 0.966    N 2513 0.948    H 2516 0.927
  2516  H   0.991        C 2515 0.927
  2517  C   3.979        C 2520 1.020    C 2515 0.986    H 2519 0.961    H 2518 0.948
  2518  H   0.995        C 2517 0.948
  2519  H   0.995        C 2517 0.961
  2520  C   3.975        C 2521 1.655    C 2534 1.132    C 2517 1.020
  2521  C   3.955        C 2520 1.655    N 2523 1.156    H 2522 0.963
  2522  H   0.994        C 2521 0.963
  2523  N   3.520        C 2525 1.195    C 2521 1.156    H 2524 0.936
  2524  H   0.962        N 2523 0.936
  2525  C   3.961        C 2526 1.326    C 2534 1.253    N 2523 1.195
  2526  C   3.980        C 2528 1.470    C 2525 1.326    H 2527 0.968    C 2532 0.118
  2527  H   0.996        C 2526 0.968
  2528  C   3.990        C 2526 1.470    C 2530 1.402    H 2529 0.970
  2529  H   0.998        C 2528 0.970
  2530  C   3.989        C 2532 1.460    C 2528 1.402    H 2531 0.967
  2531  H   0.999        C 2530 0.967
  2532  C   3.991        C 2530 1.460    C 2534 1.373    H 2533 0.967    C 2526 0.118
  2533  H   0.999        C 2532 0.967
  2534  C   3.978        C 2532 1.373    C 2525 1.253    C 2520 1.132
  2535  C   3.946        O 2536 1.625    N 2537 1.277    C 2515 0.966
  2536  O   1.930        C 2535 1.625    N 2537 0.195
  2537  N   3.447        C 2535 1.277    C 2539 0.979    H 2538 0.904    O 2536 0.195
  2538  H   0.953        N 2537 0.904
  2539  C   3.959        N 2537 0.979    H 2540 0.961    C 2541 0.959    C 2547 0.924
  2540  H   0.995        C 2539 0.961
  2541  C   3.981        H 2542 0.980    H 2543 0.973    C 2539 0.959    C 2544 0.926
  2542  H   0.999        C 2541 0.980
  2543  H   0.997        C 2541 0.973
  2544  C   3.940        O 2545 1.500    O 2546 1.497    C 2541 0.926
  2545  O   1.793        C 2544 1.500    O 2546 0.223
  2546  O   1.791        C 2544 1.497    O 2545 0.223
  2547  C   3.943        O 2548 1.623    N 2549 1.318    C 2539 0.924
  2548  O   1.931        C 2547 1.623    N 2549 0.189
  2549  N   3.466        C 2547 1.318    C 2551 0.968    H 2550 0.917    O 2548 0.189
  2550  H   0.951        N 2549 0.917
  2551  C   3.955        C 2553 0.988    N 2549 0.968    C 2557 0.952    H 2552 0.938
  2552  H   0.991        C 2551 0.938
  2553  C   3.969        C 2551 0.988    H 2556 0.977    H 2555 0.972    H 2554 0.966
  2554  H   0.989        C 2553 0.966
  2555  H   0.993        C 2553 0.972
  2556  H   0.995        C 2553 0.977
  2557  C   3.946        O 2558 1.620    N 2559 1.289    C 2551 0.952
  2558  O   1.932        C 2557 1.620    N 2559 0.190
  2559  N   3.475        C 2557 1.289    C 2561 0.989    H 2560 0.929    O 2558 0.190
  2560  H   0.965        N 2559 0.929
  2561  C   3.955        N 2559 0.989    H 2562 0.943    C 2578 0.940    C 2563 0.934
  2562  H   0.994        C 2561 0.943
  2563  C   3.985        C 2566 1.028    H 2565 0.971    H 2564 0.966    C 2561 0.934
  2564  H   0.995        C 2563 0.966
  2565  H   0.997        C 2563 0.971
  2566  C   3.979        C 2576 1.413    C 2567 1.346    C 2563 1.028    C 2571 0.105
  2567  C   3.989        C 2569 1.515    C 2566 1.346    H 2568 0.966
  2568  H   0.999        C 2567 0.966
  2569  C   3.978        C 2567 1.515    C 2571 1.306    H 2570 0.957
  2570  H   0.994        C 2569 0.957
  2571  C   3.937        C 2574 1.365    C 2569 1.306    O 2572 1.112    C 2566 0.105
  2572  O   2.122        C 2571 1.112    H 2573 0.810
  2573  H   0.885        O 2572 0.810
  2574  C   3.982        C 2576 1.452    C 2571 1.365    H 2575 0.964
  2575  H   0.998        C 2574 0.964
  2576  C   3.990        C 2574 1.452    C 2566 1.413    H 2577 0.963
  2577  H   0.999        C 2576 0.963
  2578  C   3.946        O 2579 1.611    N 2580 1.307    C 2561 0.940
  2579  O   1.933        C 2578 1.611    N 2580 0.194
  2580  N   3.477        C 2578 1.307    C 2582 0.973    H 2581 0.922    O 2579 0.194
  2581  H   0.961        N 2580 0.922
  2582  C   3.954        C 2584 0.987    N 2580 0.973    H 2583 0.958    C 2600 0.909
  2583  H   0.999        C 2582 0.958
  2584  C   3.989        C 2587 0.999    C 2582 0.987    H 2586 0.972    H 2585 0.971
  2585  H   0.998        C 2584 0.971
  2586  H   0.997        C 2584 0.972
  2587  C   3.985        C 2590 1.002    C 2584 0.999    H 2589 0.975    H 2588 0.972
  2588  H   0.997        C 2587 0.972
  2589  H   0.999        C 2587 0.975
  2590  C   3.984        C 2593 1.008    C 2587 1.002    H 2592 0.970    H 2591 0.970
  2591  H   0.993        C 2590 0.970
  2592  H   0.992        C 2590 0.970
  2593  C   3.921        C 2590 1.008    H 2595 0.966    H 2594 0.966    N 2596 0.963
  2594  H   0.987        C 2593 0.966
  2595  H   0.990        C 2593 0.966
  2596  N   3.663        C 2593 0.963    H 2597 0.895    H 2599 0.894    H 2598 0.891
  2597  H   0.913        N 2596 0.895
  2598  H   0.909        N 2596 0.891
  2599  H   0.910        N 2596 0.894
  2600  C   3.936        O 2601 1.496    O 2602 1.487    C 2582 0.909
  2601  O   1.786        C 2600 1.496    O 2602 0.222
  2602  O   1.781        C 2600 1.487    O 2601 0.222

molecular dipole:
                 x           y           z       tot (Debye)
 q only:      604.031     650.528     659.154
   full:      605.096     650.593     668.365    2825.943
molecular quadrupole (traceless):
                xx          xy          yy          xz          yz          zz
 q only:    -8200.896   69680.923    4017.333   69773.905   75129.309    4183.562
  q+dip:    -8962.988   69505.658    3089.039   70745.932   76106.232    5873.949
   full:    -8954.604   69499.747    3071.999   70752.598   76095.120    5882.605


           -------------------------------------------------
          | TOTAL ENERGY            -4085.291837595907 Eh   |
          | GRADIENT NORM               1.329611716740 Eh/α |
          | HOMO-LUMO GAP               1.718131303296 eV   |
           -------------------------------------------------
########################################################################
[WARNING] Runtime exception occurred
-2- restart_readRestart: Dimension missmatch in restart file.
-1- restart_readRestart: Number of electron missmatch in restart file.
########################################################################

------------------------------------------------------------------------
 * finished run on 2020/05/29 at 02:24:38.097     
------------------------------------------------------------------------
 total:
 * wall-time:     0 d,  0 h,  6 min, 58.314 sec
 *  cpu-time:     0 d,  5 h,  9 min, 13.707 sec
 * ratio c/w:    44.354 speedup
 SCF:
 * wall-time:     0 d,  0 h,  6 min, 27.292 sec
 *  cpu-time:     0 d,  4 h, 57 min, 15.588 sec
 * ratio c/w:    46.052 speedup

