 +---------------------------------------------------------------+
 |                                                               |
 |        ####### #     # ####### ####### ####### ######         |
 |        #     # ##    # #          #    #       #     #        |
 |        #     # # #   # #          #    #       #     #        |
 |        #     # #  #  # #####      #    #####   ######         |
 |        #     # #   # # #          #    #       #              |
 |        #     # #    ## #          #    #       #              |
 |        ####### #     # #######    #    ####### #              |
 |                                                               |
 |        Linear-Scaling Ab Initio Total Energy Program          |
 |                                                               |
 |          Release for academic collaborators of ODG            |
 |                                             Version 5.3.2.6.  |
 |                                                               |
 +---------------------------------------------------------------+
 |                                                               |
 |  Authors:                                                     |
 |  Jacek Dziedzic, Peter D. Haynes, Nicholas D. M. Hine,        |
 |  Arash. A. Mostofi, Mike C. Payne and Chris-Kriton Skylaris   |
 |                                                               |
 |  Contributors:                                                |
 |  J. Aarons, L. Andrinopoulos, P. W. Avraam, R. A. Bell,       |
 |  A. Bhandari, G. A. Bramley, R. J. Charlton, S. J. Clark,     |
 |  R. J. Clements, G. C. Constantinescu, F. Corsetti,           |
 |  N. Corsini, O. Dieguez, S. M. M. Dubois, K. K. B. Duff,      |
 |  J. M. Escartin, A. Greco, H. Helal, Q. O. Hill, L. P. Lee,   |
 |  J.-H. Li, E. B. Linscott, G. Moynihan, D. D. O`Regan,        |
 |  O. K. Okan, M. J. S. Phipps, C. J. Pickard,                  |
 |  J. C. A. Prentice, M. I. J. Probert, L. E. Ratcliff,         |
 |  M. Robinson, A. Ruiz Serrano, J. S. Spencer, E. W. Tait,     |
 |  G. Teobaldi, D. Turban, V. Vitale, K. A. Wilkinson,          |
 |  C. Weber, J. C. Womack, N. Yeung and T. J. Zuehlsdorff       |
 |                                                               |
 |                                   Copyright (c) 2004-2019     |
 |                                                               |
 |  Please cite:                                                 |
 |  "Introducing ONETEP: Linear-scaling density functional       |
 |   simulations on parallel computers".                         |
 |   C.-K. Skylaris, P. D. Haynes, A. A. Mostofi, M. C. Payne.   |
 |   J. Chem. Phys. 122 084119 (2005).                           |
 |                                                               |
 |          in all publications arising from your use of ONETEP. |
 |                                                               |
 +---------------------------------------------------------------+
 |                                                               |
 |   ONETEP is based on developments described in the following  |
 |   publications:                                               |
 |                                                               |
 |  "Nonorthogonal generalized Wannier function pseudopotential  |
 |   plane-wave method".                                         |
 |   C.-K. Skylaris, A. A. Mostofi, P. D. Haynes, O. Dieguez,    |
 |   M. C. Payne.                                                |
 |   Phys. Rev. B 66 035119 (2002).                              |
 |                                                               |
 |  "Preconditioned iterative minimization for linear-scaling    |
 |   electronic structure calculations".                         |
 |   A. A. Mostofi, P. D. Haynes, C.-K. Skylaris, M. C. Payne.   |
 |   J. Chem. Phys. 119(17), pp.8842-8848 (2003).                |
 |                                                               |
 |  "Total-energy calculations on a real space grid with         |
 |   localized functions and a plane-wave basis".                |
 |   A. A. Mostofi, C.-K. Skylaris, P. D. Haynes, M. C. Payne.   |
 |   Comput. Phys. Commun. 147, pp.788-802 (2002).               |
 |                                                               |
 |  "Accurate kinetic energy evaluation in electronic structure  |
 |   calculations with localized functions on real space grids"  |
 |   C.-K. Skylaris, A. A. Mostofi, P. D. Haynes, C. J. Pickard, |
 |   M. C. Payne.                                                |
 |   Comput. Phys. Commun. 140, pp.315-322 (2001).               |
 |                                                               |
 |  "Accurate ionic forces and geometry optimization in linear-  |
 |   scaling density-functional theory with local orbitals"      |
 |   N. D. M. Hine, M. Robinson, P. D. Haynes, C.-K. Skylaris,   |
 |   M. C. Payne, and A. A. Mostofi.                             |
 |   Phys. Rev. B 83 195102 (2011).                              |
 |                                                               |
 +---------------------------------------------------------------+

Job started: 31-12-2019 09:33 (-0000)
 
Reading parameters from file "host_17201.dat" ...... done

If your calculation crashes here, before "Checking processes and threads..."
is displayed, then your stack size is insufficient.
If so, use "ulimit -s unlimited" at runtime.
You can disable this check with "check_stack_size F".

Checking processes and threads...
   Determining the default number of threads...
      No default threads set at compilation time: defaulting to 1.
      OpenMP library call suggests 4 threads.
      Hybrid MPI-OpenMP compilation detected.
      Number of MPI processes > 1.
      OMP_NUM_THREADS environment variable present and
      its value matches the one obtained from the OpenMP library call.
      Using this value as default.
      Default threads: 4
      Default applies to threads_max and threads_num_fftboxes.
      Settings in the input file override this default.
   ... done

   Running with 60 MPI processes.
   There are 6 MPI processes running on the same node as the root process.
   Each MPI process is using: 
               1 threads for simulation cell FFTs.
               1 threads for parallel FFT box operations.
               4 threads for loops over batched FFT box operations.
               4 threads in other parallel regions.
... done

Basic input checks...... done

Reading geometry and species blocks from file "host_17201.dat" ...
  <species_atomic_set> block not found: NGWF initialisation set to SOLVE
IS: Dielectric excluded regions:
    - NONE.
    
  Number of PPD points along a3 set to 1.  This is 
  the default value, it may have been provided also in the input file.
... done
 Writing xyz coordinates to file "host_17201.xyz" ... done


--------------------------------------------------------------------------------
---------------------------------- INPUT FILE ----------------------------------
--------------------------------------------------------------------------------

cutoff_energy       : 800 eV                                                    
xc_functional BLYP                                                              
task SINGLEPOINT                                                                
write_xyz true                                                                  
output_detail VERBOSE                                                           
ngwf_threshold_orig : 0.000002                                                  
kernel_cutoff       : 1000                                                      
k_zero              : 3.5                                                       
elec_cg_max 0                                                                   
occ_mix 1.0                                                                     
dispersion 1                                                                    
maxit_ngwf_cg 40                                                                
minit_lnv 10                                                                    
maxit_lnv 10                                                                    
write_denskern T                                                                
write_tightbox_ngwfs T                                                          
charge 9                                                                        
is_implicit_solvent T                                                           
is_auto_solvation T                                                             
is_include_apolar T                                                             
is_smeared_ion_rep T                                                            
is_solvent_surf_tension 4.7624E-5 Ha/bohr**2                                    
is_apolar_scaling_factor 0.281075                                               
is_solvation_beta 1.3                                                           
is_density_threshold 0.00035                                                    
is_bulk_permittivity 78.54                                                      
is_dielectric_model fix_initial                                                 
is_smeared_ion_width 0.8                                                        
mg_defco_fd_order 8                                                             
is_bc_coarseness 10                                                             
is_bc_surface_coarseness 1                                                      
fine_grid_scale 2.0                                                             
%block species                                                                  
N   N   7 4 8.0                                                                 
H   H   1 1 8.0                                                                 
C   C   6 4 8.0                                                                 
S   S  16 9 8.0                                                                 
O   O   8 4 8.0                                                                 
%endblock species                                                               
%block species_pot                                                              
N   N_00.recpot                                                                 
H   H_04.recpot                                                                 
C   C_01.recpot                                                                 
S   S_00.recpot                                                                 
O   O_02.recpot                                                                 
%endblock species_pot                                                           
%block lattice_cart                                                             
135.996   0.000   0.000                                                         
0.000 142.663   0.000                                                           
0.000   0.000   160.158                                                         
%endblock lattice_cart                                                          
%block positions_abs                                                            
     Hash =  -000005857736080819610237
%endblock positions_abs                                                         

--------------------------------------------------------------------------------
-------------------------------- END INPUT FILE --------------------------------
--------------------------------------------------------------------------------


 
 ESDF WARNING(1): "kernelcutoff" (esdf_physical) has no units. Assume "bohr".
 ESDF WARNING(2): "kzero" (esdf_physical) has no units. Assume "1/bohr".
 ESDF WARNING(3
 ): "issmearedionwidth" (esdf_physical) has no units. Assume "bohr".
<<<<<<<<<<<<<<<<<<<<<<<<<<<<<<<<< Full system >>>>>>>>>>>>>>>>>>>>>>>>>>>>>>>>>>
<<<<<<<<<<<<<<<<<<<<<<<<< Pseudopotential information >>>>>>>>>>>>>>>>>>>>>>>>>>
File: N_00.recpot [ 2001 points up to Gmax=  52.9 (1/bohr)]
  Atomic number:  7;  ionic charge:  5.000000
    Shell 1: l = 0; rc = 1.48 bohr
File: H_04.recpot [ 2001 points up to Gmax=  52.9 (1/bohr)]
  Atomic number:  1;  ionic charge:  1.000000
    Local potential
File: C_01.recpot [ 2001 points up to Gmax=  52.9 (1/bohr)]
  Atomic number:  6;  ionic charge:  4.000000
    Shell 1: l = 0; rc = 1.48 bohr
File: S_00.recpot [ 2001 points up to Gmax=  52.9 (1/bohr)]
  Atomic number: 16;  ionic charge:  6.000000
    Shell 1: l = 0; rc = 1.90 bohr
    Shell 2: l = 2; rc = 1.84 bohr
File: O_02.recpot [ 2001 points up to Gmax=  52.9 (1/bohr)]
  Atomic number:  8;  ionic charge:  6.000000
    Shell 1: l = 0; rc = 1.31 bohr
<<<<<<<<<<<<<<<<<<<<<<<<<<<<<<<<<<<<<<<<>>>>>>>>>>>>>>>>>>>>>>>>>>>>>>>>>>>>>>>>

-------------------------- Atom counting information ---------------------------
Symbol    Natoms    Nngwfs    Nprojs
  N        236       944       236
  H       1311      1311         0
  C        810      3240       810
  S          6        54        36
  O        239       956       239
.......   ......    ......    ......
Totals:   2602      6505      1321
--------------------------------------------------------------------------------

=============================== PSINC grid sizes ===============================
                      Simulation cell:  270 x 286 x 315
                              FFT-box:   99 x 105 x  99
                                  PPD:    5 x  11 x   1
Grid space d1=  0.503688888889a0 (KE cutoff=  29.94189Eh = 814.76038eV)
Grid space d2=  0.498821678322a0 (KE cutoff=  30.52906Eh = 830.73786eV)
Grid space d3=  0.508438095238a0 (KE cutoff=  29.38514Eh = 799.61048eV)
================================================================================

********************* Fourier parallelisation information **********************
       Coarse grid (whole simulation cell) dimensions:    270   286   315
          Real-space ('12') slabs/node (min max mean):      5     6     5
         Recip-space ('23') slabs/node (min max mean):      2     3     2
********************************************************************************

********************* Fourier parallelisation information **********************
       Double grid (whole simulation cell) dimensions:    540   572   630
          Real-space ('12') slabs/node (min max mean):     10    11    10
         Recip-space ('23') slabs/node (min max mean):      4     5     4
********************************************************************************
ONETEP fine grid is 540 x 572 x 630 gridpoints, 135.9960 x 142.6630 x 160.1580 bohr.
FD multigrid is     537 x 569 x 625 gridpoints, 135.2405 x 141.9148 x 158.8869 bohr.


Calculating local pseudopotential in open BC on a radial grid ...
Discrepancy between calculated realspace psloc and -Z/x on [5a0,253.965a0]:
max |rel. diff| # avg |rel. diff| #  avg rel. diff #  f # pseudopotential file
 0.000259282084    0.000004141996   0.000000074978   54  'N_00.recpot'
 0.000405386992    0.000016970607  -0.000000075982   54  'H_04.recpot'
 0.000371694516    0.000017434762   0.000000149329   54  'C_01.recpot'
 0.000461642895    0.000020341726   0.000000491514   54  'S_00.recpot'
 0.000682525123    0.000027368244   0.000000159803   54  'O_02.recpot'
... done

Atom SCF Calculation for N  : Z (AE atom) =   7 : Z (PS atom) =   5
Config String:
Orbitals (num,occ):  2     2.00 3.00
Orbitals   (num,l):  2        0    1
Real-space Grid (nr,dr,rmax): 1203    0.0066555740    8.0000000000
Spherical Bessel Basis (nsws,lmax,cutoff):   47    1  176.3951722778
Confining potential (l,width,scale):  0    3.0000000000  100.0000000000
Confining potential (l,width,scale):  1    3.0000000000  100.0000000000
  1         -4.6013585513   -3.4049108869    7.0523828109   -1.9091162855
  2         -9.8016879160   -2.0135461241    8.3188189370   -2.2435473665
  3         -9.6321802847   -2.1065478390    8.2183983263   -2.2242517067
  4         -9.6808560127   -2.1077991138    8.2173288485   -2.2270152182
  5         -9.6784967349   -2.1128330112    8.2119747404   -2.2266918217
  6         -9.6791515400   -2.1147078825    8.2099963775   -2.2267571594
  7         -9.6793670910   -2.1154252429    8.2092416418   -2.2268113337
  8         -9.6794373063   -2.1158528083    8.2087924364   -2.2268527427
  9         -9.6794398958   -2.1161080766    8.2085246585   -2.2268829890
 10         -9.6794160451   -2.1162604947    8.2083650403   -2.2269045154
 11         -9.6793856186   -2.1163514575    8.2082699573   -2.2269195730
 12         -9.6793628578   -2.1163948573    8.2082246846   -2.2269278917
 13         -9.6793432636   -2.1164242260    8.2081940961   -2.2269341082
 14         -9.6793270299   -2.1164440925    8.2081734387   -2.2269387333
 15         -9.6793139353   -2.1164575258    8.2081594952   -2.2269421617
 16         -9.6793035781   -2.1164666052    8.2081500885   -2.2269446948
 17         -9.6792955084   -2.1164727391    8.2081437461   -2.2269465609
 18         -9.6792892951   -2.1164768810    8.2081394723   -2.2269479322
 19         -9.6792845566   -2.1164796764    8.2081365942   -2.2269489376
 20         -9.6792809712   -2.1164815621    8.2081346574   -2.2269496733
 21         -9.6792782763   -2.1164828334    8.2081333549   -2.2269502106
 22         -9.6792762618   -2.1164836900    8.2081324796   -2.2269506023
 23         -9.6792747633   -2.1164842667    8.2081318920   -2.2269508875
 24         -9.6792736533   -2.1164846548    8.2081314978   -2.2269510948
 25         -9.6792728339   -2.1164849157    8.2081312336   -2.2269512454
 26         -9.6792722311   -2.1164850910    8.2081310567   -2.2269513545
 27         -9.6792717888   -2.1164852087    8.2081309384   -2.2269514336
 28         -9.6792714651   -2.1164852876    8.2081308594   -2.2269514909
 29         -9.6792712288   -2.1164853404    8.2081308067   -2.2269515323
 30         -9.6792710566   -2.1164853758    8.2081307716   -2.2269515622
 31         -9.6792709314   -2.1164853994    8.2081307482   -2.2269515837
 32         -9.6792708404   -2.1164854152    8.2081307327   -2.2269515993
Atom SCF converged after  32 iterations to a total energy of     -9.67927084

Atom SCF Calculation for H  : Z (AE atom) =   1 : Z (PS atom) =   1
Config String:
Orbitals (num,occ):  1     1.00
Orbitals   (num,l):  1        0
Real-space Grid (nr,dr,rmax): 1203    0.0066555740    8.0000000000
Spherical Bessel Basis (nsws,lmax,cutoff):   47    0  176.3951722778
Confining potential (l,width,scale):  0    3.0000000000  100.0000000000
  1         -0.3113196429   -0.2409477661    0.2820953124   -0.2411487446
  2         -0.3944405350   -0.2385116628    0.2890208891   -0.2498343930
  3         -0.4360599314   -0.2357686975    0.2928790338   -0.2550698311
  4         -0.4516191135   -0.2350237069    0.2939653690   -0.2569119237
  5         -0.4572820083   -0.2348967328    0.2941823017   -0.2574986468
  6         -0.4593767844   -0.2349021805    0.2941970985   -0.2576826683
  7         -0.4601714750   -0.2349212656    0.2941813626   -0.2577413902
  8         -0.4604802364   -0.2349338625    0.2941687305   -0.2577607641
  9         -0.4606025362   -0.2349403631    0.2941618217   -0.2577674206
 10         -0.4606516810   -0.2349434027    0.2941585053   -0.2577698038
 11         -0.4606716326   -0.2349447548    0.2941570091   -0.2577706895
 12         -0.4606797900   -0.2349453396    0.2941563564   -0.2577710289
 13         -0.4606831414   -0.2349455884    0.2941560773   -0.2577711621
 14         -0.4606845228   -0.2349456932    0.2941559594   -0.2577712153
 15         -0.4606850934   -0.2349457371    0.2941559099   -0.2577712369
 16         -0.4606853295   -0.2349457554    0.2941558892   -0.2577712456
 17         -0.4606854273   -0.2349457629    0.2941558806   -0.2577712492
Atom SCF converged after  17 iterations to a total energy of     -0.46068543

Atom SCF Calculation for C  : Z (AE atom) =   6 : Z (PS atom) =   4
Config String:
Orbitals (num,occ):  2     2.00 2.00
Orbitals   (num,l):  2        0    1
Real-space Grid (nr,dr,rmax): 1203    0.0066555740    8.0000000000
Spherical Bessel Basis (nsws,lmax,cutoff):   47    1  176.3951722778
Confining potential (l,width,scale):  0    3.0000000000  100.0000000000
Confining potential (l,width,scale):  1    3.0000000000  100.0000000000
  1         -5.2693777228   -1.2877532505    4.5135249990   -1.4305993142
  2         -5.3365227757   -1.3323295489    4.4657513615   -1.4196127907
  3         -5.3733098109   -1.3456729697    4.4512270183   -1.4183019279
  4         -5.3839796038   -1.3513025764    4.4450375062   -1.4180466599
  5         -5.3868514120   -1.3535693106    4.4425354897   -1.4180394921
  6         -5.3875089733   -1.3544515429    4.4415603494   -1.4180780243
  7         -5.3875754244   -1.3547901367    4.4411861035   -1.4181110295
  8         -5.3875195890   -1.3549189050    4.4410439108   -1.4181318379
  9         -5.3874618680   -1.3549675143    4.4409903245   -1.4181434793
 10         -5.3874310972   -1.3549820855    4.4409743002   -1.4181483685
 11         -5.3874107979   -1.3549893298    4.4409663482   -1.4181513220
 12         -5.3873978694   -1.3549929189    4.4409624173   -1.4181530849
 13         -5.3873898364   -1.3549946896    4.4409604830   -1.4181541273
 14         -5.3873849353   -1.3549955588    4.4409595364   -1.4181547390
 15         -5.3873819861   -1.3549959831    4.4409590761   -1.4181550957
 16         -5.3873802306   -1.3549961887    4.4409588541   -1.4181553027
 17         -5.3873791949   -1.3549962875    4.4409587480   -1.4181554222
 18         -5.3873785880   -1.3549963344    4.4409586979   -1.4181554910
 19         -5.3873782346   -1.3549963565    4.4409586746   -1.4181555304
 20         -5.3873780298   -1.3549963666    4.4409586640   -1.4181555530
 21         -5.3873779116   -1.3549963712    4.4409586593   -1.4181555658
 22         -5.3873778437   -1.3549963732    4.4409586573   -1.4181555732
Atom SCF converged after  22 iterations to a total energy of     -5.38737784

Atom SCF Calculation for S  : Z (AE atom) =  16 : Z (PS atom) =   6
Config String:
Orbitals (num,occ):  3     2.00 4.00 0.00
Orbitals   (num,l):  3        0    1    2
Real-space Grid (nr,dr,rmax): 1203    0.0066555740    8.0000000000
Spherical Bessel Basis (nsws,lmax,cutoff):   47    2  176.3951722778
Confining potential (l,width,scale):  0    3.0000000000  100.0000000000
Confining potential (l,width,scale):  1    3.0000000000  100.0000000000
Confining potential (l,width,scale):  2    3.0000000000  100.0000000000
  1        -12.5283336347   -1.0013338836   10.1554312477   -2.4174677201
  2         -9.7849695337   -2.4989611986    8.2134743506   -1.9762637204
  3        -10.1259261666   -2.2526049010    8.4775731108   -2.0458353546
  4        -10.1239865120   -2.2378704469    8.4945934226   -2.0534866629
  5        -10.1261039751   -2.2288435510    8.5048825038   -2.0581373158
  6        -10.1272507918   -2.2250862078    8.5091521192   -2.0601689919
  7        -10.1279932566   -2.2228087338    8.5117370263   -2.0614492091
  8        -10.1284637245   -2.2214320698    8.5132987140   -2.0622522845
  9        -10.1287626908   -2.2205988902    8.5142437482   -2.0627554732
 10        -10.1289546369   -2.2200932921    8.5148172759   -2.0630708724
 11        -10.1290791799   -2.2197855833    8.5151664042   -2.0632687591
 12        -10.1291606570   -2.2195978043    8.5153795223   -2.0633930653
 13        -10.1292142534   -2.2194829439    8.5155099260   -2.0634712474
 14        -10.1292496213   -2.2194125466    8.5155898783   -2.0635204792
 15        -10.1292729946   -2.2193693272    8.5156389817   -2.0635515168
 16        -10.1292884463   -2.2193427544    8.5156691835   -2.0635711056
 17        -10.1292986575   -2.2193263948    8.5156877839   -2.0635834819
 18        -10.1293054004   -2.2193163109    8.5156992531   -2.0635913093
 19        -10.1293098486   -2.2193100881    8.5157063331   -2.0635962646
 20        -10.1293127800   -2.2193062437    8.5157107085   -2.0635994047
 21        -10.1293147098   -2.2193038661    8.5157134154   -2.0636013963
 22        -10.1293159788   -2.2193023940    8.5157150917   -2.0636026607
 23        -10.1293168125   -2.2193014816    8.5157161310   -2.0636034641
 24        -10.1293173597   -2.2193009155    8.5157167761   -2.0636039750
 25        -10.1293177186   -2.2193005638    8.5157171769   -2.0636043002
 26        -10.1293179538   -2.2193003451    8.5157174262   -2.0636045074
 27        -10.1293181078   -2.2193002089    8.5157175814   -2.0636046395
 28        -10.1293182086   -2.2193001240    8.5157176782   -2.0636047237
 29        -10.1293182745   -2.2193000710    8.5157177386   -2.0636047775
Atom SCF converged after  29 iterations to a total energy of    -10.12931827

Atom SCF Calculation for O  : Z (AE atom) =   8 : Z (PS atom) =   6
Config String:
Orbitals (num,occ):  2     2.00 4.00
Orbitals   (num,l):  2        0    1
Real-space Grid (nr,dr,rmax): 1203    0.0066555740    8.0000000000
Spherical Bessel Basis (nsws,lmax,cutoff):   47    1  176.3951722778
Confining potential (l,width,scale):  0    3.0000000000  100.0000000000
Confining potential (l,width,scale):  1    3.0000000000  100.0000000000
  1         -1.7080722297   -7.5640505253   10.1554312477   -2.4174677201
  2        -16.1263011198   -3.0821855690   13.6696026363   -3.2396436226
  3        -15.9244673468   -3.0726325746   13.6814805792   -3.2476092574
  4        -15.8573288987   -3.0670117467   13.6882774297   -3.2520880618
  5        -15.8336465257   -3.0663656103   13.6892309711   -3.2533931796
  6        -15.8219715940   -3.0659812931   13.6897814011   -3.2541232529
  7        -15.8159298089   -3.0658367134   13.6900093837   -3.2545066783
  8        -15.8128098120   -3.0657852377   13.6901029676   -3.2547083587
  9        -15.8111983525   -3.0657695213   13.6901400052   -3.2548145289
 10        -15.8103655433   -3.0657666144   13.6901537351   -3.2548704921
 11        -15.8099347793   -3.0657676485   13.6901582071   -3.2549000342
 12        -15.8097117541   -3.0657694273   13.6901592350   -3.2549156531
 13        -15.8095961662   -3.0657709604   13.6901591353   -3.2549239235
 14        -15.8095361976   -3.0657720564   13.6901587727   -3.2549283095
 15        -15.8095050528   -3.0657727732   13.6901584317   -3.2549306388
 16        -15.8094888611   -3.0657732184   13.6901581795   -3.2549318776
 17        -15.8094804347   -3.0657734855   13.6901580117   -3.2549325373
 18        -15.8094760452   -3.0657736419   13.6901579063   -3.2549328891
 19        -15.8094737563   -3.0657737319   13.6901578427   -3.2549330769
 20        -15.8094725618   -3.0657737830   13.6901578053   -3.2549331772
 21        -15.8094719377   -3.0657738116   13.6901577837   -3.2549332309
 22        -15.8094716114   -3.0657738275   13.6901577715   -3.2549332597
 23        -15.8094714406   -3.0657738363   13.6901577646   -3.2549332751
 24        -15.8094713512   -3.0657738411   13.6901577608   -3.2549332834
Atom SCF converged after  24 iterations to a total energy of    -15.80947135

========================== Calculation in vacuum ==============================
= Adjusting the following parameters: 
= is_implicit_solvent: F
= is_include_apolar: F
= write_denskern: T
= write_tightbox_ngwfs: T
= restart read filename prefix: ""
= restart write filename prefix: "vacuum_"
===============================================================================

Determining parallel strategy ...
... using space-filling curve
... NGWF load balancing: max    109;  min    108;  average    108
... Projector load balancing: max     25;  min     21;  average     22
... done
Calculating direct Ion-Ion energy ...
Ion-Ion Energy        :    826847.26128063350916
======================= Empirical dispersion information =======================
Model : Elstner
Dispersion Correction Energy: -0.46393676E+01 Hartree
================================================================================
Basis initialisation ...... NGWF spheres initialised
... Projector spheres initialised
... NGWF tight boxes initialised
... Tight-boxes gathered
... NGWF basis size (local,global):    1025460  62187883
... Nonlocal pseudopotential projector initialisation
... done

========================== Sparse matrix information ===========================
                        Overlap matrix filling:   6.74%
                        Density kernel filling: 100.00%
              NGWF-Proj overlap matrix filling:   1.78%
                    Hamiltonian matrix filling:   7.61%
                  NGWF diagonal matrix filling:   0.05%
                             KS matrix filling: 100.00% 
                           KSKS matrix filling: 100.00% 
================================================================================

Sparse matrix initialisation ... done

Generating smeared ion density ... done
Smeared ion self correction:     -14457.169564
Smeared ion non-self correction: -826799.108191
NGWF initialisation ...... done
============ Calculation of NGWF S^-1 using Hotelling algorithm ================ 
         Iteration  |  Frobenius norm and Maximum abs value    (of I-S*S_n^-1)   
               1       0.78613134E+02     0.98381479E+00
               2       0.76859478E+02     0.96799087E+00
               3       0.73990117E+02     0.93737810E+00
               4       0.69858028E+02     0.87998734E+00
               5       0.64651287E+02     0.78248175E+00
               6       0.58736745E+02     0.70687944E+00
               7       0.52699615E+02     0.67184256E+00
               8       0.47096643E+02     0.64871790E+00
               9       0.41142887E+02     0.61164630E+00
              10       0.33123634E+02     0.54638373E+00
              11       0.22716710E+02     0.43915906E+00
              12       0.11989853E+02     0.30301943E+00
              13       0.41735163E+01     0.14929422E+00
              14       0.72781855E+00     0.39087846E-01
              15       0.41877490E-01     0.40714517E-02
              16       0.34456001E-03     0.47835328E-04
              17       0.42885492E-07     0.68562513E-08
              18       0.10195641E-12     0.53290705E-14
================================================================================
Calculating local pseudopotential in open BC on the fine real space grid ...
... done

MG BCs: +ve charge blocks (gridpoints):     20439 (   16093492).
MG BCs: -ve charge blocks (gridpoints):      8041 (    1088752).
MG BCs:     Elided blocks (gridpoints):    173475 (  173788381).
MG BCs: Computational effort saved:  99.9851%.
MG BCs: Charge after coarse-graining:           -9.0002264.
MG DL_MG: Calling solver with defect correction order = 8
MG DL_MG: Solver finished
MG Hartree energy from (\int phi*rho dr):              1459.168617
MG Hartree energy from (\int eps (grad phi)^2 dr):     1458.546982
MG Discrepancy due to finite box and discretization:     -0.621635 (  -0.04260%)
MG Correction to account for finite box:                  0.466973
MG Remaining discrepancy, due to discretization:         -0.154662 (  -0.01060%)
Up spin density kernel initialisation ... 
======= Optimisation of K by Palser-Manolopoulos canonical purification ======== 
         Iteration  |  Band structure energy |    c_n   
               1       -2563.00667697644940    0.5268007
               2       -2737.85437857088891    0.5172030
               3       -2917.19522879231135    0.5158479
               4       -3067.02056121476198    0.5298261
               5       -3159.01728147204994    0.5665337
               6       -3197.32605406700714    0.6114846
               7       -3210.33246915546761    0.6216375
               8       -3216.02675891220679    0.6180565
               9       -3218.79045011731068    0.6276674
              10       -3219.93653882032959    0.6490749
              11       -3220.37320315354100    0.6692285
              12       -3220.54997913790658    0.6663488
              13       -3220.63564702959820    0.6245854
              14       -3220.68571280123797    0.5527976
              15       -3220.71342460934329    0.4764758
              16       -3220.72175465553619    0.4129263
              17       -3220.72318834163389    0.3498316
              18       -3220.72374253112230    0.3444366
              19       -3220.72404656167964    0.3793942
              20       -3220.72435775705617    0.4222891
              21       -3220.72464713706904    0.4638226
              22       -3220.72483790121078    0.4912238
              23       -3220.72489826389574    0.4994439
              24       -3220.72490289683537    0.4999980
              25       -3220.72490292180146    0.4999980
Termination criterion satisfied: band energy change below threshold.
Final occupancy bounds: [    0.00000000000006:    0.99999999999999]
Closest occupancy to 0.5:     0.99999999999999
================================================================================
... done

Writing density kernel to file "host_17201.vacuum_dkn" ... done

>>> Optimising kernel for current NGWFs:
   Initial electron number for spin 1:    7192.00000000
     Final electron number for spin 1:    7192.00000000

=================== Penalty functional idempotency correction ==================
 RMS occupancy error at iteration   1:  0.000000 (step -0.5000 Ne1=   7192.0000)
            Final RMS occupancy error   :  0.000000 (Ne1=   7192.0000)
               Final occupancy bounds   : [  0.0000,  1.0000]
================================================================================

................................................................................
<<<<<<<<<<<<<< LNV (Original version) density kernel optimisation >>>>>>>>>>>>>>
~~~~~~~~~~~~~~~~~~~~~~~~~~~~~~~~~~~~~~~~~~~~~~~~~~~~~~~~~~~~~~~~~~~~~~~~~~~~~~~~
   iter  |      energy (Eh)       | rms gradient |  commutator  |   dE (Eh)
MG BCs: +ve charge blocks (gridpoints):     30981 (   17235041).
MG BCs: -ve charge blocks (gridpoints):      8361 (    1119085).
MG BCs:     Elided blocks (gridpoints):    162925 (  172616499).
MG BCs: Computational effort saved:  99.9794%.
MG BCs: Charge after coarse-graining:           -9.0010018.
MG DL_MG: Calling solver with defect correction order = 8
MG DL_MG: Solver finished
MG Hartree energy from (\int phi*rho dr):              1413.588475
MG Hartree energy from (\int eps (grad phi)^2 dr):     1412.911697
MG Discrepancy due to finite box and discretization:     -0.676778 (  -0.04788%)
MG Correction to account for finite box:                  0.480154
MG Remaining discrepancy, due to discretization:         -0.196624 (  -0.01391%)
      ideal mu1:      -0.697085944675
             Q0:  -11465.638549758005
             G0:    -155.719495636842
   RMS gradient:       0.001918333864
MG BCs: +ve charge blocks (gridpoints):     30975 (   17321251).
MG BCs: -ve charge blocks (gridpoints):      8264 (    1099444).
MG BCs:     Elided blocks (gridpoints):    162928 (  172549930).
MG BCs: Computational effort saved:  99.9795%.
MG BCs: Charge after coarse-graining:           -9.0010201.
MG DL_MG: Calling solver with defect correction order = 8
MG DL_MG: Solver finished
MG Hartree energy from (\int phi*rho dr):              1435.350929
MG Hartree energy from (\int eps (grad phi)^2 dr):     1434.691330
MG Discrepancy due to finite box and discretization:     -0.659600 (  -0.04595%)
MG Correction to account for finite box:                  0.479535
MG Remaining discrepancy, due to discretization:         -0.180064 (  -0.01254%)
     Trial step:       0.500000000000
             Q1:  -11477.939671106520
 Quadratic coef:      65.558626469905
 Linear coef   :     -77.859747818421
           Qmin:  -11488.755798611332
Quadratic minimum step length (  0.296908858570) accepted
    Initial Ne1:    7192.00000000
      Final Ne1:    7192.00000000

=================== Penalty functional idempotency correction ==================
 RMS occupancy error at iteration   1:  0.003683 (step -0.4876 Ne1=   7192.0000)
 RMS occupancy error at iteration   2:  0.000031 (step -0.5001 Ne1=   7192.0000)
            Final RMS occupancy error   :  0.000000 (Ne1=   7192.0000)
               Final occupancy bounds   : [  0.0000,  1.0000]
================================================================================

    1        -1.146563854976E+04     1.9183E-03     1.7351E-03
MG BCs: +ve charge blocks (gridpoints):     30988 (   17287643).
MG BCs: -ve charge blocks (gridpoints):      8293 (    1107873).
MG BCs:     Elided blocks (gridpoints):    162916 (  172575109).
MG BCs: Computational effort saved:  99.9794%.
MG BCs: Charge after coarse-graining:           -9.0010128.
MG DL_MG: Calling solver with defect correction order = 8
MG DL_MG: Solver finished
MG Hartree energy from (\int phi*rho dr):              1417.965546
MG Hartree energy from (\int eps (grad phi)^2 dr):     1417.300051
MG Discrepancy due to finite box and discretization:     -0.665494 (  -0.04693%)
MG Correction to account for finite box:                  0.479639
MG Remaining discrepancy, due to discretization:         -0.185855 (  -0.01311%)
      ideal mu1:      -0.740518022094
             Q0:  -11489.215411636629
             G0:     -12.472677857499
   RMS gradient:       0.000538856612
MG BCs: +ve charge blocks (gridpoints):     30986 (   17304549).
MG BCs: -ve charge blocks (gridpoints):      8282 (    1102925).
MG BCs:     Elided blocks (gridpoints):    162917 (  172563151).
MG BCs: Computational effort saved:  99.9794%.
MG BCs: Charge after coarse-graining:           -9.0010166.
MG DL_MG: Calling solver with defect correction order = 8
MG DL_MG: Solver finished
MG Hartree energy from (\int phi*rho dr):              1422.553989
MG Hartree energy from (\int eps (grad phi)^2 dr):     1421.892649
MG Discrepancy due to finite box and discretization:     -0.661341 (  -0.04649%)
MG Correction to account for finite box:                  0.478754
MG Remaining discrepancy, due to discretization:         -0.182587 (  -0.01284%)
     Trial step:       0.385297844901
             Q1:  -11492.178283803398
 Quadratic coef:       1.842823731866
 Linear coef   :      -4.805695898634
           Qmin:  -11492.348472150068
Quadratic minimum step length (  0.502387787007) accepted
    Initial Ne1:    7191.99987284
      Final Ne1:    7192.00000000

=================== Penalty functional idempotency correction ==================
 RMS occupancy error at iteration   1:  0.001929 (step -0.4926 Ne1=   7192.0000)
 RMS occupancy error at iteration   2:  0.000012 (step -0.5001 Ne1=   7192.0000)
            Final RMS occupancy error   :  0.000000 (Ne1=   7192.0000)
               Final occupancy bounds   : [  0.0000,  1.0000]
================================================================================

    2        -1.148921541164E+04     5.3886E-04     4.8738E-04    -2.3577E+01
MG BCs: +ve charge blocks (gridpoints):     30987 (   17309889).
MG BCs: -ve charge blocks (gridpoints):      8272 (    1101390).
MG BCs:     Elided blocks (gridpoints):    162916 (  172559346).
MG BCs: Computational effort saved:  99.9794%.
MG BCs: Charge after coarse-graining:           -9.0010177.
MG DL_MG: Calling solver with defect correction order = 8
MG DL_MG: Solver finished
MG Hartree energy from (\int phi*rho dr):              1424.003163
MG Hartree energy from (\int eps (grad phi)^2 dr):     1423.342990
MG Discrepancy due to finite box and discretization:     -0.660173 (  -0.04636%)
MG Correction to account for finite box:                  0.478506
MG Remaining discrepancy, due to discretization:         -0.181667 (  -0.01276%)
      ideal mu1:      -0.764267366227
             Q0:  -11492.388868169743
             G0:      -2.131433371290
   RMS gradient:       0.000222986800
MG BCs: +ve charge blocks (gridpoints):     30992 (   17310155).
MG BCs: -ve charge blocks (gridpoints):      8284 (    1102178).
MG BCs:     Elided blocks (gridpoints):    162911 (  172558292).
MG BCs: Computational effort saved:  99.9794%.
MG BCs: Charge after coarse-graining:           -9.0010172.
MG DL_MG: Calling solver with defect correction order = 8
MG DL_MG: Solver finished
MG Hartree energy from (\int phi*rho dr):              1422.162007
MG Hartree energy from (\int eps (grad phi)^2 dr):     1421.502488
MG Discrepancy due to finite box and discretization:     -0.659518 (  -0.04637%)
MG Correction to account for finite box:                  0.478031
MG Remaining discrepancy, due to discretization:         -0.181488 (  -0.01276%)
     Trial step:       0.439964693627
             Q1:  -11492.940324544208
 Quadratic coef:       0.386299055719
 Linear coef   :      -0.937755430185
           Qmin:  -11492.957977279526
Quadratic minimum step length (  0.534015388376) accepted
    Initial Ne1:    7191.99992650
      Final Ne1:    7192.00000000

=================== Penalty functional idempotency correction ==================
 RMS occupancy error at iteration   1:  0.000733 (step -0.4967 Ne1=   7192.0000)
 RMS occupancy error at iteration   2:  0.000003 (step -0.5000 Ne1=   7192.0000)
            Final RMS occupancy error   :  0.000000 (Ne1=   7192.0000)
               Final occupancy bounds   : [  0.0000,  1.0000]
================================================================================

    3        -1.149238886817E+04     2.2299E-04     2.0169E-04    -3.1735E+00
MG BCs: +ve charge blocks (gridpoints):     30992 (   17310190).
MG BCs: -ve charge blocks (gridpoints):      8287 (    1102383).
MG BCs:     Elided blocks (gridpoints):    162911 (  172558052).
MG BCs: Computational effort saved:  99.9794%.
MG BCs: Charge after coarse-graining:           -9.0010172.
MG DL_MG: Calling solver with defect correction order = 8
MG DL_MG: Solver finished
MG Hartree energy from (\int phi*rho dr):              1421.778059
MG Hartree energy from (\int eps (grad phi)^2 dr):     1421.118666
MG Discrepancy due to finite box and discretization:     -0.659392 (  -0.04638%)
MG Correction to account for finite box:                  0.477930
MG Remaining discrepancy, due to discretization:         -0.181462 (  -0.01276%)
      ideal mu1:      -0.766054544324
             Q0:  -11492.964277684339
             G0:      -0.604159190902
   RMS gradient:       0.000118750903
MG BCs: +ve charge blocks (gridpoints):     30994 (   17311208).
MG BCs: -ve charge blocks (gridpoints):      8281 (    1102310).
MG BCs:     Elided blocks (gridpoints):    162909 (  172557107).
MG BCs: Computational effort saved:  99.9794%.
MG BCs: Charge after coarse-graining:           -9.0010172.
MG DL_MG: Calling solver with defect correction order = 8
MG DL_MG: Solver finished
MG Hartree energy from (\int phi*rho dr):              1422.953382
MG Hartree energy from (\int eps (grad phi)^2 dr):     1422.294150
MG Discrepancy due to finite box and discretization:     -0.659232 (  -0.04633%)
MG Correction to account for finite box:                  0.477660
MG Remaining discrepancy, due to discretization:         -0.181573 (  -0.01276%)
     Trial step:       0.484714262983
             Q1:  -11493.111489683390
 Quadratic coef:       0.145632577893
 Linear coef   :      -0.292844576942
           Qmin:  -11493.111493965691
Quadratic minimum step length (  0.487342685734) accepted
    Initial Ne1:    7191.99998085
      Final Ne1:    7192.00000000

=================== Penalty functional idempotency correction ==================
 RMS occupancy error at iteration   1:  0.000334 (step -0.4962 Ne1=   7192.0000)
 RMS occupancy error at iteration   2:  0.000003 (step -0.5000 Ne1=   7192.0000)
            Final RMS occupancy error   :  0.000000 (Ne1=   7192.0000)
               Final occupancy bounds   : [  0.0000,  1.0000]
================================================================================

    4        -1.149296427768E+04     1.1875E-04     1.0741E-04    -5.7541E-01
MG BCs: +ve charge blocks (gridpoints):     30994 (   17311217).
MG BCs: -ve charge blocks (gridpoints):      8281 (    1102318).
MG BCs:     Elided blocks (gridpoints):    162909 (  172557090).
MG BCs: Computational effort saved:  99.9794%.
MG BCs: Charge after coarse-graining:           -9.0010172.
MG DL_MG: Calling solver with defect correction order = 8
MG DL_MG: Solver finished
MG Hartree energy from (\int phi*rho dr):              1422.960364
MG Hartree energy from (\int eps (grad phi)^2 dr):     1422.301132
MG Discrepancy due to finite box and discretization:     -0.659232 (  -0.04633%)
MG Correction to account for finite box:                  0.477658
MG Remaining discrepancy, due to discretization:         -0.181574 (  -0.01276%)
      ideal mu1:      -0.766553255925
             Q0:  -11493.112432658905
             G0:      -0.221014106788
   RMS gradient:       0.000072051449
MG BCs: +ve charge blocks (gridpoints):     30991 (   17311539).
MG BCs: -ve charge blocks (gridpoints):      8280 (    1102015).
MG BCs:     Elided blocks (gridpoints):    162912 (  172557071).
MG BCs: Computational effort saved:  99.9794%.
MG BCs: Charge after coarse-graining:           -9.0010172.
MG DL_MG: Calling solver with defect correction order = 8
MG DL_MG: Solver finished
MG Hartree energy from (\int phi*rho dr):              1423.429396
MG Hartree energy from (\int eps (grad phi)^2 dr):     1422.770107
MG Discrepancy due to finite box and discretization:     -0.659289 (  -0.04632%)
MG Correction to account for finite box:                  0.477532
MG Remaining discrepancy, due to discretization:         -0.181757 (  -0.01277%)
     Trial step:       0.486026697554
             Q1:  -11493.184329446289
 Quadratic coef:       0.035521969052
 Linear coef   :      -0.107418756435
           Qmin:  -11493.193641482219
Quadratic minimum step length (  0.734874569727) accepted
    Initial Ne1:    7191.99998921
      Final Ne1:    7192.00000000

=================== Penalty functional idempotency correction ==================
 RMS occupancy error at iteration   1:  0.000558 (step -0.4741 Ne1=   7192.0000)
 RMS occupancy error at iteration   2:  0.000013 (step -0.5001 Ne1=   7192.0000)
            Final RMS occupancy error   :  0.000000 (Ne1=   7192.0000)
               Final occupancy bounds   : [  0.0000,  1.0000]
================================================================================

    5        -1.149311243266E+04     7.2051E-05     6.5169E-05    -1.4815E-01
MG BCs: +ve charge blocks (gridpoints):     30991 (   17311745).
MG BCs: -ve charge blocks (gridpoints):      8279 (    1101887).
MG BCs:     Elided blocks (gridpoints):    162912 (  172556993).
MG BCs: Computational effort saved:  99.9794%.
MG BCs: Charge after coarse-graining:           -9.0010171.
MG DL_MG: Calling solver with defect correction order = 8
MG DL_MG: Solver finished
MG Hartree energy from (\int phi*rho dr):              1423.667173
MG Hartree energy from (\int eps (grad phi)^2 dr):     1423.007858
MG Discrepancy due to finite box and discretization:     -0.659315 (  -0.04631%)
MG Correction to account for finite box:                  0.477465
MG Remaining discrepancy, due to discretization:         -0.181851 (  -0.01277%)
      ideal mu1:      -0.766339880224
             Q0:  -11493.192747063586
             G0:      -0.212068752614
   RMS gradient:       0.000071345632
MG BCs: +ve charge blocks (gridpoints):     30993 (   17310727).
MG BCs: -ve charge blocks (gridpoints):      8283 (    1102372).
MG BCs:     Elided blocks (gridpoints):    162910 (  172557526).
MG BCs: Computational effort saved:  99.9794%.
MG BCs: Charge after coarse-graining:           -9.0010169.
MG DL_MG: Calling solver with defect correction order = 8
MG DL_MG: Solver finished
MG Hartree energy from (\int phi*rho dr):              1422.219275
MG Hartree energy from (\int eps (grad phi)^2 dr):     1421.560112
MG Discrepancy due to finite box and discretization:     -0.659164 (  -0.04635%)
MG Correction to account for finite box:                  0.477279
MG Remaining discrepancy, due to discretization:         -0.181884 (  -0.01279%)
     Trial step:       0.597635892698
             Q1:  -11493.288385651074
 Quadratic coef:       0.031101310793
 Linear coef   :      -0.126739898282
           Qmin:  -11493.321865430358
Quadratic minimum step length (  1.217702892879) accepted
    Initial Ne1:    7191.99986600
      Final Ne1:    7192.00000000

=================== Penalty functional idempotency correction ==================
 RMS occupancy error at iteration   1:  0.004577 (step -0.3255 Ne1=   7192.0000)
 RMS occupancy error at iteration   2:  0.000275 (step -0.4976 Ne1=   7192.0000)
 RMS occupancy error at iteration   3:  0.000005 (step -0.5000 Ne1=   7192.0000)
            Final RMS occupancy error   :  0.000000 (Ne1=   7192.0000)
               Final occupancy bounds   : [  0.0000,  1.0000]
================================================================================

    6        -1.149319274706E+04     7.1346E-05     6.4530E-05    -8.0314E-02
MG BCs: +ve charge blocks (gridpoints):     30990 (   17309826).
MG BCs: -ve charge blocks (gridpoints):      8288 (    1102852).
MG BCs:     Elided blocks (gridpoints):    162913 (  172557947).
MG BCs: Computational effort saved:  99.9794%.
MG BCs: Charge after coarse-graining:           -9.0010167.
MG DL_MG: Calling solver with defect correction order = 8
MG DL_MG: Solver finished
MG Hartree energy from (\int phi*rho dr):              1420.743060
MG Hartree energy from (\int eps (grad phi)^2 dr):     1420.084031
MG Discrepancy due to finite box and discretization:     -0.659030 (  -0.04639%)
MG Correction to account for finite box:                  0.477110
MG Remaining discrepancy, due to discretization:         -0.181920 (  -0.01280%)
      ideal mu1:      -0.765627641568
             Q0:  -11493.295043607242
             G0:      -0.418278140942
   RMS gradient:       0.000099422638
MG BCs: +ve charge blocks (gridpoints):     30989 (   17313101).
MG BCs: -ve charge blocks (gridpoints):      8274 (    1101412).
MG BCs:     Elided blocks (gridpoints):    162914 (  172556112).
MG BCs: Computational effort saved:  99.9794%.
MG BCs: Charge after coarse-graining:           -9.0010176.
MG DL_MG: Calling solver with defect correction order = 8
MG DL_MG: Solver finished
MG Hartree energy from (\int phi*rho dr):              1424.275847
MG Hartree energy from (\int eps (grad phi)^2 dr):     1423.617214
MG Discrepancy due to finite box and discretization:     -0.658633 (  -0.04624%)
MG Correction to account for finite box:                  0.477034
MG Remaining discrepancy, due to discretization:         -0.181598 (  -0.01275%)
     Trial step:       0.853078516566
             Q1:  -11493.403666311991
 Quadratic coef:       0.248201391238
 Linear coef   :      -0.356824095987
           Qmin:  -11493.423289700911
Quadratic minimum step length (  0.613209637871) accepted
    Initial Ne1:    7191.99999827
      Final Ne1:    7192.00000000

=================== Penalty functional idempotency correction ==================
 RMS occupancy error at iteration   1:  0.000208 (step -0.4869 Ne1=   7192.0000)
 RMS occupancy error at iteration   2:  0.000002 (step -0.5000 Ne1=   7192.0000)
            Final RMS occupancy error   :  0.000000 (Ne1=   7192.0000)
               Final occupancy bounds   : [  0.0000,  1.0000]
================================================================================

    7        -1.149329504361E+04     9.9423E-05     8.9926E-05    -1.0230E-01
MG BCs: +ve charge blocks (gridpoints):     30990 (   17312187).
MG BCs: -ve charge blocks (gridpoints):      8280 (    1101807).
MG BCs:     Elided blocks (gridpoints):    162913 (  172556631).
MG BCs: Computational effort saved:  99.9794%.
MG BCs: Charge after coarse-graining:           -9.0010173.
MG DL_MG: Calling solver with defect correction order = 8
MG DL_MG: Solver finished
MG Hartree energy from (\int phi*rho dr):              1423.276234
MG Hartree energy from (\int eps (grad phi)^2 dr):     1422.617493
MG Discrepancy due to finite box and discretization:     -0.658741 (  -0.04628%)
MG Correction to account for finite box:                  0.477055
MG Remaining discrepancy, due to discretization:         -0.181686 (  -0.01277%)
      ideal mu1:      -0.767453937775
             Q0:  -11493.423690302297
             G0:      -0.300440658243
   RMS gradient:       0.000084179561
MG BCs: +ve charge blocks (gridpoints):     30992 (   17312265).
MG BCs: -ve charge blocks (gridpoints):      8281 (    1101648).
MG BCs:     Elided blocks (gridpoints):    162911 (  172556712).
MG BCs: Computational effort saved:  99.9794%.
MG BCs: Charge after coarse-graining:           -9.0010176.
MG DL_MG: Calling solver with defect correction order = 8
MG DL_MG: Solver finished
MG Hartree energy from (\int phi*rho dr):              1423.440495
MG Hartree energy from (\int eps (grad phi)^2 dr):     1422.781900
MG Discrepancy due to finite box and discretization:     -0.658594 (  -0.04627%)
MG Correction to account for finite box:                  0.477107
MG Remaining discrepancy, due to discretization:         -0.181488 (  -0.01275%)
     Trial step:       0.723267563367
             Q1:  -11493.545726019540
 Quadratic coef:       0.095263265581
 Linear coef   :      -0.217298982824
           Qmin:  -11493.547607028353
Quadratic minimum step length (  0.824899843980) accepted
    Initial Ne1:    7191.99999789
      Final Ne1:    7192.00000000

=================== Penalty functional idempotency correction ==================
 RMS occupancy error at iteration   1:  0.001588 (step -0.4129 Ne1=   7192.0000)
 RMS occupancy error at iteration   2:  0.000064 (step -0.4975 Ne1=   7192.0000)
 RMS occupancy error at iteration   3:  0.000000 (step -0.5000 Ne1=   7192.0000)
            Final RMS occupancy error   :  0.000000 (Ne1=   7192.0000)
               Final occupancy bounds   : [  0.0000,  1.0000]
================================================================================

    8        -1.149342369030E+04     8.4180E-05     7.6138E-05    -1.2865E-01
MG BCs: +ve charge blocks (gridpoints):     30991 (   17312261).
MG BCs: -ve charge blocks (gridpoints):      8278 (    1101627).
MG BCs:     Elided blocks (gridpoints):    162912 (  172556737).
MG BCs: Computational effort saved:  99.9794%.
MG BCs: Charge after coarse-graining:           -9.0010177.
MG DL_MG: Calling solver with defect correction order = 8
MG DL_MG: Solver finished
MG Hartree energy from (\int phi*rho dr):              1423.468867
MG Hartree energy from (\int eps (grad phi)^2 dr):     1422.810294
MG Discrepancy due to finite box and discretization:     -0.658573 (  -0.04627%)
MG Correction to account for finite box:                  0.477111
MG Remaining discrepancy, due to discretization:         -0.181461 (  -0.01275%)
      ideal mu1:      -0.766872961565
             Q0:  -11493.546105094603
             G0:      -0.277579539600
   RMS gradient:       0.000081323958
MG BCs: +ve charge blocks (gridpoints):     30991 (   17311032).
MG BCs: -ve charge blocks (gridpoints):      8278 (    1102285).
MG BCs:     Elided blocks (gridpoints):    162912 (  172557308).
MG BCs: Computational effort saved:  99.9794%.
MG BCs: Charge after coarse-graining:           -9.0010173.
MG DL_MG: Calling solver with defect correction order = 8
MG DL_MG: Solver finished
MG Hartree energy from (\int phi*rho dr):              1421.841315
MG Hartree energy from (\int eps (grad phi)^2 dr):     1421.182741
MG Discrepancy due to finite box and discretization:     -0.658573 (  -0.04632%)
MG Correction to account for finite box:                  0.477230
MG Remaining discrepancy, due to discretization:         -0.181344 (  -0.01275%)
     Trial step:       0.772413943541
             Q1:  -11493.626009974745
 Quadratic coef:       0.134501426686
 Linear coef   :      -0.214406306829
           Qmin:  -11493.631550404629
Quadratic minimum step length (  0.615645592236) accepted
    Initial Ne1:    7191.99999852
      Final Ne1:    7192.00000000

=================== Penalty functional idempotency correction ==================
 RMS occupancy error at iteration   1:  0.002999 (step -0.3603 Ne1=   7192.0000)
 RMS occupancy error at iteration   2:  0.000174 (step -0.4927 Ne1=   7192.0000)
 RMS occupancy error at iteration   3:  0.000003 (step -0.5000 Ne1=   7192.0000)
            Final RMS occupancy error   :  0.000000 (Ne1=   7192.0000)
               Final occupancy bounds   : [  0.0000,  1.0000]
================================================================================

    9        -1.149354610509E+04     8.1324E-05     7.3556E-05    -1.2241E-01
MG BCs: +ve charge blocks (gridpoints):     30993 (   17311235).
MG BCs: -ve charge blocks (gridpoints):      8277 (    1102184).
MG BCs:     Elided blocks (gridpoints):    162910 (  172557206).
MG BCs: Computational effort saved:  99.9794%.
MG BCs: Charge after coarse-graining:           -9.0010174.
MG DL_MG: Calling solver with defect correction order = 8
MG DL_MG: Solver finished
MG Hartree energy from (\int phi*rho dr):              1422.167083
MG Hartree energy from (\int eps (grad phi)^2 dr):     1421.508516
MG Discrepancy due to finite box and discretization:     -0.658567 (  -0.04631%)
MG Correction to account for finite box:                  0.477206
MG Remaining discrepancy, due to discretization:         -0.181361 (  -0.01275%)
      ideal mu1:      -0.765338254602
   10        -1.149363765472E+04     6.2165E-05     5.6227E-05    -9.1550E-02
Finished density kernel iterations (  10)

Writing density kernel to file "host_17201.vacuum_dkn" ... done


>>> Density kernel optimised for the current NGWF basis:
     ~~~~~~~~~~~~~~~~~~~~~~~~~~~~~~~~~~~~~~~~~~~~~~~~~~~~~~~~~~~
     Total energy                =  -1.14936376547156E+04  Eh
     Estimated bandgap           =  -3.9055E-01  Eh
     RMS occupancy error         =   8.3280E-10
     [H,K] commutator            =   5.6227E-05
     Occupancy bounds            = [  0.000:  1.000]
     ~~~~~~~~~~~~~~~~~~~~~~~~~~~~~~~~~~~~~~~~~~~~~~~~~~~~~~~~~~~




################################################################################
########################### NGWF CG iteration  001 #############################
################################################################################
****** Reciprocal space K.E. preconditioning with k_zero =  3.5000 a0^-1 *******

>>> Checking for convergence of NGWFs:   NOT CONVERGED
  ========================================================================
         NGWF RMS gradient =  1.6157E-03 >  2.0000E-06  | above tolerance
  ========================================================================

>>> Improving NGWFs using line search:
============ Calculation of NGWF S^-1 using Hotelling algorithm ================ 
         Iteration  |  Frobenius norm and Maximum abs value    (of I-S*S_n^-1)   
               1       0.20052501E+00     0.51187262E-02
               2       0.93407707E-03     0.38343848E-04
               3       0.34283766E-07     0.22188579E-08
               4       0.12432951E-12     0.62172489E-14
================================================================================
MG BCs: +ve charge blocks (gridpoints):     30464 (   17251001).
MG BCs: -ve charge blocks (gridpoints):      8285 (    1101658).
MG BCs:     Elided blocks (gridpoints):    163443 (  172617966).
MG BCs: Computational effort saved:  99.9797%.
MG BCs: Charge after coarse-graining:           -9.0010176.
MG DL_MG: Calling solver with defect correction order = 8
MG DL_MG: Solver finished
MG Hartree energy from (\int phi*rho dr):              1389.449190
MG Hartree energy from (\int eps (grad phi)^2 dr):     1388.791358
MG Discrepancy due to finite box and discretization:     -0.657833 (  -0.04734%)
MG Correction to account for finite box:                  0.477113
MG Remaining discrepancy, due to discretization:         -0.180720 (  -0.01301%)
============ Calculation of NGWF S^-1 using Hotelling algorithm ================ 
         Iteration  |  Frobenius norm and Maximum abs value    (of I-S*S_n^-1)   
               1       0.19038869E+01     0.41802156E-01
               2       0.75473049E-01     0.23778733E-02
               3       0.16023879E-03     0.90537755E-05
               4       0.12972278E-08     0.14339996E-09
               5       0.10850509E-12     0.44408921E-14
================================================================================
------------------------------- NGWF line search -------------------------------
RMS gradient                =       0.00161573778932
Trial step length           =               0.122474
Gradient along search dir.  =       -285.10304886172
Functional at step 0        =  -11493.63765471556690
Functional at step 1        =  -11525.91357292456087
Functional predicted        =  -11609.01311347451156
Selected quadratic step     =               0.809360
--------------------------- NGWF line search finished --------------------------
                                               
Writing NGWFs to file "host_17201.vacuum_tightbox_ngwfs"....  done

>>> Optimising kernel for current NGWFs:
   Initial electron number for spin 1:    7229.00985119
     Final electron number for spin 1:    7192.00000000

=================== Penalty functional idempotency correction ==================
 RMS occupancy error at iteration   1:  0.004384 (step -0.4862 Ne1=   7192.0000)
 RMS occupancy error at iteration   2:  0.000070 (step -0.5003 Ne1=   7192.0000)
            Final RMS occupancy error   :  0.000000 (Ne1=   7192.0000)
               Final occupancy bounds   : [  0.0000,  1.0000]
================================================================================

................................................................................
<<<<<<<<<<<<<< LNV (Original version) density kernel optimisation >>>>>>>>>>>>>>
~~~~~~~~~~~~~~~~~~~~~~~~~~~~~~~~~~~~~~~~~~~~~~~~~~~~~~~~~~~~~~~~~~~~~~~~~~~~~~~~
   iter  |      energy (Eh)       | rms gradient |  commutator  |   dE (Eh)
MG BCs: +ve charge blocks (gridpoints):     24562 (   16992816).
MG BCs: -ve charge blocks (gridpoints):      8444 (    1081853).
MG BCs:     Elided blocks (gridpoints):    169352 (  172895956).
MG BCs: Computational effort saved:  99.9827%.
MG BCs: Charge after coarse-graining:           -9.0006645.
MG DL_MG: Calling solver with defect correction order = 8
MG DL_MG: Solver finished
MG Hartree energy from (\int phi*rho dr):              1229.747996
MG Hartree energy from (\int eps (grad phi)^2 dr):     1229.089582
MG Discrepancy due to finite box and discretization:     -0.658414 (  -0.05354%)
MG Correction to account for finite box:                  0.476678
MG Remaining discrepancy, due to discretization:         -0.181736 (  -0.01478%)
      ideal mu1:      -0.703345236082
             Q0:  -11608.040629999712
             G0:     -10.413222504783
   RMS gradient:       0.000496072638
MG BCs: +ve charge blocks (gridpoints):     24623 (   17019073).
MG BCs: -ve charge blocks (gridpoints):      8403 (    1074270).
MG BCs:     Elided blocks (gridpoints):    169291 (  172877282).
MG BCs: Computational effort saved:  99.9827%.
MG BCs: Charge after coarse-graining:           -9.0006585.
MG DL_MG: Calling solver with defect correction order = 8
MG DL_MG: Solver finished
MG Hartree energy from (\int phi*rho dr):              1251.330893
MG Hartree energy from (\int eps (grad phi)^2 dr):     1250.667865
MG Discrepancy due to finite box and discretization:     -0.663028 (  -0.05299%)
MG Correction to account for finite box:                  0.475677
MG Remaining discrepancy, due to discretization:         -0.187351 (  -0.01497%)
     Trial step:       0.689589181849
             Q1:  -11607.805576310726
 Quadratic coef:       7.415899276466
 Linear coef   :      -7.180845587480
           Qmin:  -11609.778940534581
Quadratic minimum step length (  0.333866012000) accepted
    Initial Ne1:    7191.99957644
      Final Ne1:    7192.00000000

=================== Penalty functional idempotency correction ==================
 RMS occupancy error at iteration   1:  0.000379 (step -0.4985 Ne1=   7192.0000)
 RMS occupancy error at iteration   2:  0.000000 (step -0.5000 Ne1=   7192.0000)
            Final RMS occupancy error   :  0.000000 (Ne1=   7192.0000)
               Final occupancy bounds   : [  0.0000,  1.0000]
================================================================================

    1        -1.160804063000E+04     4.9607E-04     4.4869E-04
MG BCs: +ve charge blocks (gridpoints):     24594 (   17005916).
MG BCs: -ve charge blocks (gridpoints):      8425 (    1078051).
MG BCs:     Elided blocks (gridpoints):    169320 (  172886658).
MG BCs: Computational effort saved:  99.9827%.
MG BCs: Charge after coarse-graining:           -9.0006614.
MG DL_MG: Calling solver with defect correction order = 8
MG DL_MG: Solver finished
MG Hartree energy from (\int phi*rho dr):              1239.281272
MG Hartree energy from (\int eps (grad phi)^2 dr):     1238.620731
MG Discrepancy due to finite box and discretization:     -0.660541 (  -0.05330%)
MG Correction to account for finite box:                  0.476158
MG Remaining discrepancy, due to discretization:         -0.184383 (  -0.01488%)
      ideal mu1:      -0.711788671969
             Q0:  -11609.753185290261
             G0:      -1.070643824537
   RMS gradient:       0.000159642054
MG BCs: +ve charge blocks (gridpoints):     24597 (   17006970).
MG BCs: -ve charge blocks (gridpoints):      8420 (    1078222).
MG BCs:     Elided blocks (gridpoints):    169317 (  172885433).
MG BCs: Computational effort saved:  99.9827%.
MG BCs: Charge after coarse-graining:           -9.0006611.
MG DL_MG: Calling solver with defect correction order = 8
MG DL_MG: Solver finished
MG Hartree energy from (\int phi*rho dr):              1241.067868
MG Hartree energy from (\int eps (grad phi)^2 dr):     1240.407110
MG Discrepancy due to finite box and discretization:     -0.660758 (  -0.05324%)
MG Correction to account for finite box:                  0.476051
MG Remaining discrepancy, due to discretization:         -0.184707 (  -0.01488%)
     Trial step:       0.479823290454
             Q1:  -11609.979207730270
 Quadratic coef:       0.287697402784
 Linear coef   :      -0.513719842793
           Qmin:  -11609.982513113806
Quadratic minimum step length (  0.428392371560) accepted
    Initial Ne1:    7191.99994370
      Final Ne1:    7192.00000000

=================== Penalty functional idempotency correction ==================
 RMS occupancy error at iteration   1:  0.000160 (step -0.4992 Ne1=   7192.0000)
 RMS occupancy error at iteration   2:  0.000000 (step -0.5000 Ne1=   7192.0000)
            Final RMS occupancy error   :  0.000000 (Ne1=   7192.0000)
               Final occupancy bounds   : [  0.0000,  1.0000]
================================================================================

    2        -1.160975318529E+04     1.5964E-04     1.4439E-04    -1.7126E+00
MG BCs: +ve charge blocks (gridpoints):     24597 (   17006857).
MG BCs: -ve charge blocks (gridpoints):      8420 (    1078207).
MG BCs:     Elided blocks (gridpoints):    169317 (  172885561).
MG BCs: Computational effort saved:  99.9827%.
MG BCs: Charge after coarse-graining:           -9.0006611.
MG DL_MG: Calling solver with defect correction order = 8
MG DL_MG: Solver finished
MG Hartree energy from (\int phi*rho dr):              1240.876018
MG Hartree energy from (\int eps (grad phi)^2 dr):     1240.215285
MG Discrepancy due to finite box and discretization:     -0.660733 (  -0.05325%)
MG Correction to account for finite box:                  0.476063
MG Remaining discrepancy, due to discretization:         -0.184671 (  -0.01488%)
      ideal mu1:      -0.713057962856
             Q0:  -11609.983029518859
             G0:      -0.185434676395
   RMS gradient:       0.000066126803
MG BCs: +ve charge blocks (gridpoints):     24597 (   17005559).
MG BCs: -ve charge blocks (gridpoints):      8422 (    1078828).
MG BCs:     Elided blocks (gridpoints):    169317 (  172886238).
MG BCs: Computational effort saved:  99.9827%.
MG BCs: Charge after coarse-graining:           -9.0006613.
MG DL_MG: Calling solver with defect correction order = 8
MG DL_MG: Solver finished
MG Hartree energy from (\int phi*rho dr):              1240.113665
MG Hartree energy from (\int eps (grad phi)^2 dr):     1239.453083
MG Discrepancy due to finite box and discretization:     -0.660583 (  -0.05327%)
MG Correction to account for finite box:                  0.475929
MG Remaining discrepancy, due to discretization:         -0.184653 (  -0.01489%)
     Trial step:       0.453379131994
             Q1:  -11610.041471879464
 Quadratic coef:       0.025629852020
 Linear coef   :      -0.084072212625
           Qmin:  -11610.051973897958
Quadratic minimum step length (  0.743597480691) accepted
    Initial Ne1:    7191.99998323
      Final Ne1:    7192.00000000

=================== Penalty functional idempotency correction ==================
 RMS occupancy error at iteration   1:  0.000174 (step -0.4927 Ne1=   7192.0000)
 RMS occupancy error at iteration   2:  0.000001 (step -0.5000 Ne1=   7192.0000)
            Final RMS occupancy error   :  0.000000 (Ne1=   7192.0000)
               Final occupancy bounds   : [  0.0000,  1.0000]
================================================================================

    3        -1.160998302952E+04     6.6127E-05     5.9810E-05    -2.2984E-01
MG BCs: +ve charge blocks (gridpoints):     24595 (   17004834).
MG BCs: -ve charge blocks (gridpoints):      8422 (    1079174).
MG BCs:     Elided blocks (gridpoints):    169319 (  172886617).
MG BCs: Computational effort saved:  99.9827%.
MG BCs: Charge after coarse-graining:           -9.0006614.
MG DL_MG: Calling solver with defect correction order = 8
MG DL_MG: Solver finished
MG Hartree energy from (\int phi*rho dr):              1239.625412
MG Hartree energy from (\int eps (grad phi)^2 dr):     1238.964929
MG Discrepancy due to finite box and discretization:     -0.660483 (  -0.05328%)
MG Correction to account for finite box:                  0.475840
MG Remaining discrepancy, due to discretization:         -0.184643 (  -0.01490%)
      ideal mu1:      -0.711645227743
             Q0:  -11610.052039465983
             G0:      -0.075681879875
   RMS gradient:       0.000042249307
MG BCs: +ve charge blocks (gridpoints):     24594 (   17005109).
MG BCs: -ve charge blocks (gridpoints):      8423 (    1079098).
MG BCs:     Elided blocks (gridpoints):    169320 (  172886418).
MG BCs: Computational effort saved:  99.9827%.
MG BCs: Charge after coarse-graining:           -9.0006613.
MG DL_MG: Calling solver with defect correction order = 8
MG DL_MG: Solver finished
MG Hartree energy from (\int phi*rho dr):              1239.761178
MG Hartree energy from (\int eps (grad phi)^2 dr):     1239.101017
MG Discrepancy due to finite box and discretization:     -0.660162 (  -0.05325%)
MG Correction to account for finite box:                  0.475649
MG Remaining discrepancy, due to discretization:         -0.184512 (  -0.01488%)
     Trial step:       0.580630330200
             Q1:  -11610.079953385517
 Quadratic coef:       0.016029275368
 Linear coef   :      -0.043943194902
           Qmin:  -11610.082156304297
Quadratic minimum step length (  0.795879763128) accepted
    Initial Ne1:    7191.99999231
      Final Ne1:    7192.00000000

=================== Penalty functional idempotency correction ==================
 RMS occupancy error at iteration   1:  0.000333 (step -0.4795 Ne1=   7192.0000)
 RMS occupancy error at iteration   2:  0.000004 (step -0.5000 Ne1=   7192.0000)
            Final RMS occupancy error   :  0.000000 (Ne1=   7192.0000)
               Final occupancy bounds   : [  0.0000,  1.0000]
================================================================================

    4        -1.161005203947E+04     4.2249E-05     3.8214E-05    -6.9010E-02
MG BCs: +ve charge blocks (gridpoints):     24593 (   17005139).
MG BCs: -ve charge blocks (gridpoints):      8424 (    1079119).
MG BCs:     Elided blocks (gridpoints):    169321 (  172886367).
MG BCs: Computational effort saved:  99.9827%.
MG BCs: Charge after coarse-graining:           -9.0006613.
MG DL_MG: Calling solver with defect correction order = 8
MG DL_MG: Solver finished
MG Hartree energy from (\int phi*rho dr):              1239.812922
MG Hartree energy from (\int eps (grad phi)^2 dr):     1239.152883
MG Discrepancy due to finite box and discretization:     -0.660039 (  -0.05324%)
MG Correction to account for finite box:                  0.475575
MG Remaining discrepancy, due to discretization:         -0.184464 (  -0.01488%)
      ideal mu1:      -0.711894426812
             Q0:  -11610.082008600002
             G0:      -0.082846617875
   RMS gradient:       0.000044319355
MG BCs: +ve charge blocks (gridpoints):     24593 (   17006594).
MG BCs: -ve charge blocks (gridpoints):      8420 (    1078586).
MG BCs:     Elided blocks (gridpoints):    169321 (  172885445).
MG BCs: Computational effort saved:  99.9827%.
MG BCs: Charge after coarse-graining:           -9.0006610.
MG DL_MG: Calling solver with defect correction order = 8
MG DL_MG: Solver finished
MG Hartree energy from (\int phi*rho dr):              1240.760412
MG Hartree energy from (\int eps (grad phi)^2 dr):     1240.100948
MG Discrepancy due to finite box and discretization:     -0.659463 (  -0.05315%)
MG Correction to account for finite box:                  0.475103
MG Remaining discrepancy, due to discretization:         -0.184361 (  -0.01486%)
     Trial step:       0.679788150577
             Q1:  -11610.116503651603
 Quadratic coef:       0.021823097546
 Linear coef   :      -0.056318149147
           Qmin:  -11610.118343198203
Quadratic minimum step length (  0.877153446515) accepted
    Initial Ne1:    7191.99998869
      Final Ne1:    7192.00000000

=================== Penalty functional idempotency correction ==================
 RMS occupancy error at iteration   1:  0.001407 (step -0.4185 Ne1=   7192.0000)
 RMS occupancy error at iteration   2:  0.000053 (step -0.4974 Ne1=   7192.0000)
 RMS occupancy error at iteration   3:  0.000000 (step -0.5000 Ne1=   7192.0000)
            Final RMS occupancy error   :  0.000000 (Ne1=   7192.0000)
               Final occupancy bounds   : [  0.0000,  1.0000]
================================================================================

    5        -1.161008200860E+04     4.4319E-05     4.0086E-05    -2.9969E-02
MG BCs: +ve charge blocks (gridpoints):     24593 (   17007046).
MG BCs: -ve charge blocks (gridpoints):      8418 (    1078434).
MG BCs:     Elided blocks (gridpoints):    169321 (  172885145).
MG BCs: Computational effort saved:  99.9827%.
MG BCs: Charge after coarse-graining:           -9.0006609.
MG DL_MG: Calling solver with defect correction order = 8
MG DL_MG: Solver finished
MG Hartree energy from (\int phi*rho dr):              1241.038284
MG Hartree energy from (\int eps (grad phi)^2 dr):     1240.378970
MG Discrepancy due to finite box and discretization:     -0.659314 (  -0.05313%)
MG Correction to account for finite box:                  0.474984
MG Remaining discrepancy, due to discretization:         -0.184330 (  -0.01485%)
      ideal mu1:      -0.713284804107
             Q0:  -11610.117617997923
             G0:      -0.084479367190
   RMS gradient:       0.000044546865
MG BCs: +ve charge blocks (gridpoints):     24595 (   17006721).
MG BCs: -ve charge blocks (gridpoints):      8419 (    1078663).
MG BCs:     Elided blocks (gridpoints):    169319 (  172885241).
MG BCs: Computational effort saved:  99.9827%.
MG BCs: Charge after coarse-graining:           -9.0006609.
MG DL_MG: Calling solver with defect correction order = 8
MG DL_MG: Solver finished
MG Hartree energy from (\int phi*rho dr):              1240.653801
MG Hartree energy from (\int eps (grad phi)^2 dr):     1239.995102
MG Discrepancy due to finite box and discretization:     -0.658699 (  -0.05309%)
MG Correction to account for finite box:                  0.474346
MG Remaining discrepancy, due to discretization:         -0.184353 (  -0.01486%)
     Trial step:       0.772190727203
             Q1:  -11610.153920928482
 Quadratic coef:       0.028931253426
 Linear coef   :      -0.065234183984
           Qmin:  -11610.154390503916
Quadratic minimum step length (  0.870567742566) accepted
    Initial Ne1:    7191.99998865
      Final Ne1:    7192.00000000

=================== Penalty functional idempotency correction ==================
 RMS occupancy error at iteration   1:  0.003239 (step -0.3446 Ne1=   7192.0000)
 RMS occupancy error at iteration   2:  0.000217 (step -0.4873 Ne1=   7192.0000)
 RMS occupancy error at iteration   3:  0.000003 (step -0.5000 Ne1=   7192.0000)
            Final RMS occupancy error   :  0.000000 (Ne1=   7192.0000)
               Final occupancy bounds   : [  0.0000,  1.0000]
================================================================================

    6        -1.161011761800E+04     4.4547E-05     4.0292E-05    -3.5609E-02
MG BCs: +ve charge blocks (gridpoints):     24596 (   17006664).
MG BCs: -ve charge blocks (gridpoints):      8419 (    1078691).
MG BCs:     Elided blocks (gridpoints):    169318 (  172885270).
MG BCs: Computational effort saved:  99.9827%.
MG BCs: Charge after coarse-graining:           -9.0006610.
MG DL_MG: Calling solver with defect correction order = 8
MG DL_MG: Solver finished
MG Hartree energy from (\int phi*rho dr):              1240.605502
MG Hartree energy from (\int eps (grad phi)^2 dr):     1239.946856
MG Discrepancy due to finite box and discretization:     -0.658646 (  -0.05309%)
MG Correction to account for finite box:                  0.474289
MG Remaining discrepancy, due to discretization:         -0.184357 (  -0.01486%)
      ideal mu1:      -0.713395768960
             Q0:  -11610.155641388614
             G0:      -0.068902077136
   RMS gradient:       0.000040352352
MG BCs: +ve charge blocks (gridpoints):     24594 (   17005323).
MG BCs: -ve charge blocks (gridpoints):      8420 (    1079103).
MG BCs:     Elided blocks (gridpoints):    169320 (  172886199).
MG BCs: Computational effort saved:  99.9827%.
MG BCs: Charge after coarse-graining:           -9.0006612.
MG DL_MG: Calling solver with defect correction order = 8
MG DL_MG: Solver finished
MG Hartree energy from (\int phi*rho dr):              1239.806123
MG Hartree energy from (\int eps (grad phi)^2 dr):     1239.147450
MG Discrepancy due to finite box and discretization:     -0.658673 (  -0.05313%)
MG Correction to account for finite box:                  0.474248
MG Remaining discrepancy, due to discretization:         -0.184424 (  -0.01488%)
     Trial step:       0.819905078781
             Q1:  -11610.177173990058
 Quadratic coef:       0.034960561539
 Linear coef   :      -0.056493162983
           Qmin:  -11610.178463372324
Quadratic minimum step length (  0.662446900257) accepted
    Initial Ne1:    7191.99999831
      Final Ne1:    7192.00000000

=================== Penalty functional idempotency correction ==================
 RMS occupancy error at iteration   1:  0.000039 (step -0.4975 Ne1=   7192.0000)
            Final RMS occupancy error   :  0.000000 (Ne1=   7192.0000)
               Final occupancy bounds   : [ -0.0000,  1.0000]
================================================================================

    7        -1.161015564139E+04     4.0352E-05     3.6498E-05    -3.8023E-02
MG BCs: +ve charge blocks (gridpoints):     24594 (   17005552).
MG BCs: -ve charge blocks (gridpoints):      8420 (    1079018).
[...]
MG Hartree energy from (\int phi*rho dr):              1197.490636
MG Hartree energy from (\int eps (grad phi)^2 dr):     1197.301157
MG Discrepancy due to finite box and discretization:     -0.189479 (  -0.01582%)
MG Correction to account for finite box:                  0.006454
MG Remaining discrepancy, due to discretization:         -0.183025 (  -0.01528%)
             Q2:  -11645.814257088467
  Cubic LS coeff:       0.835768240751
Predicted energy:  -11645.814257088519
Cubic minimum step length accepted
    Initial Ne1:    7192.00000000
      Final Ne1:    7192.00000000

=================== Penalty functional idempotency correction ==================
 RMS occupancy error at iteration   1:  0.000000 (step -0.5000 Ne1=   7192.0000)
            Final RMS occupancy error   :  0.000000 (Ne1=   7192.0000)
               Final occupancy bounds   : [ -0.0000,  1.0000]
================================================================================

    7        -1.164581425709E+04     6.9443E-09     6.2809E-09    -9.3132E-10

Reusing previously generated solute cavity.
MG BCs: +ve charge blocks (gridpoints):     28608 (   19207601).
MG BCs: -ve charge blocks (gridpoints):      8397 (    1045490).
MG BCs:     Elided blocks (gridpoints):    165306 (  170717534).
MG BCs: Computational effort saved:  99.9806%.
MG BCs: Charge after coarse-graining:           -9.0009546.
MG DL_MG: Calling solver with defect correction order = 8
MG DL_MG: Solver finished
MG Hartree energy from (\int phi*rho dr):              1197.490632
MG Hartree energy from (\int eps (grad phi)^2 dr):     1197.301152
MG Discrepancy due to finite box and discretization:     -0.189479 (  -0.01582%)
MG Correction to account for finite box:                  0.006454
MG Remaining discrepancy, due to discretization:         -0.183025 (  -0.01528%)
      ideal mu1:      -0.474560918529
             Q0:  -11645.814257088699
             G0:      -0.000000001611
   RMS gradient:       0.000000005286

Reusing previously generated solute cavity.
MG BCs: +ve charge blocks (gridpoints):     28608 (   19207601).
MG BCs: -ve charge blocks (gridpoints):      8397 (    1045490).
MG BCs:     Elided blocks (gridpoints):    165306 (  170717534).
MG BCs: Computational effort saved:  99.9806%.
MG BCs: Charge after coarse-graining:           -9.0009546.
MG DL_MG: Calling solver with defect correction order = 8
MG DL_MG: Solver finished
MG Hartree energy from (\int phi*rho dr):              1197.490618
MG Hartree energy from (\int eps (grad phi)^2 dr):     1197.301138
MG Discrepancy due to finite box and discretization:     -0.189479 (  -0.01582%)
MG Correction to account for finite box:                  0.006454
MG Remaining discrepancy, due to discretization:         -0.183025 (  -0.01528%)
     Trial step:       0.556750801212
             Q1:  -11645.814257088816
 Quadratic coef:       0.000000000780
 Linear coef   :      -0.000000000897
           Qmin:  -11645.814257088958
Quadratic minimum step length (  0.319976812149) accepted
    Initial Ne1:    7192.00000000
      Final Ne1:    7192.00000000

=================== Penalty functional idempotency correction ==================
 RMS occupancy error at iteration   1:  0.000000 (step -0.5000 Ne1=   7192.0000)
            Final RMS occupancy error   :  0.000000 (Ne1=   7192.0000)
               Final occupancy bounds   : [  0.0000,  1.0000]
================================================================================

    8        -1.164581425709E+04     5.2861E-09     4.7812E-09    -1.8626E-09

Reusing previously generated solute cavity.
MG BCs: +ve charge blocks (gridpoints):     28608 (   19207601).
MG BCs: -ve charge blocks (gridpoints):      8397 (    1045490).
MG BCs:     Elided blocks (gridpoints):    165306 (  170717534).
MG BCs: Computational effort saved:  99.9806%.
MG BCs: Charge after coarse-graining:           -9.0009546.
MG DL_MG: Calling solver with defect correction order = 8
MG DL_MG: Solver finished
MG Hartree energy from (\int phi*rho dr):              1197.490624
MG Hartree energy from (\int eps (grad phi)^2 dr):     1197.301144
MG Discrepancy due to finite box and discretization:     -0.189479 (  -0.01582%)
MG Correction to account for finite box:                  0.006454
MG Remaining discrepancy, due to discretization:         -0.183025 (  -0.01528%)
      ideal mu1:      -0.474560909122
             Q0:  -11645.814257088699
             G0:      -0.000000001096
   RMS gradient:       0.000000003650

Reusing previously generated solute cavity.
MG BCs: +ve charge blocks (gridpoints):     28608 (   19207601).
MG BCs: -ve charge blocks (gridpoints):      8397 (    1045490).
MG BCs:     Elided blocks (gridpoints):    165306 (  170717534).
MG BCs: Computational effort saved:  99.9806%.
MG BCs: Charge after coarse-graining:           -9.0009546.
MG DL_MG: Calling solver with defect correction order = 8
MG DL_MG: Solver finished
MG Hartree energy from (\int phi*rho dr):              1197.490624
MG Hartree energy from (\int eps (grad phi)^2 dr):     1197.301145
MG Discrepancy due to finite box and discretization:     -0.189479 (  -0.01582%)
MG Correction to account for finite box:                  0.006454
MG Remaining discrepancy, due to discretization:         -0.183025 (  -0.01528%)
     Trial step:       0.422075048461
             Q1:  -11645.814257088699
 Quadratic coef:       0.000000000462
 Linear coef   :      -0.000000000463
           Qmin:  -11645.814257088816
Quadratic minimum step length (  0.211297163743) accepted
    Initial Ne1:    7192.00000000
      Final Ne1:    7192.00000000

=================== Penalty functional idempotency correction ==================
 RMS occupancy error at iteration   1:  0.000000 (step -0.5000 Ne1=   7192.0000)
            Final RMS occupancy error   :  0.000000 (Ne1=   7192.0000)
               Final occupancy bounds   : [ -0.0000,  1.0000]
================================================================================

    9        -1.164581425709E+04     3.6500E-09     3.3014E-09     0.0000E+00

Reusing previously generated solute cavity.
MG BCs: +ve charge blocks (gridpoints):     28608 (   19207601).
MG BCs: -ve charge blocks (gridpoints):      8397 (    1045490).
MG BCs:     Elided blocks (gridpoints):    165306 (  170717534).
MG BCs: Computational effort saved:  99.9806%.
MG BCs: Charge after coarse-graining:           -9.0009546.
MG DL_MG: Calling solver with defect correction order = 8
MG DL_MG: Solver finished
MG Hartree energy from (\int phi*rho dr):              1197.490624
MG Hartree energy from (\int eps (grad phi)^2 dr):     1197.301145
MG Discrepancy due to finite box and discretization:     -0.189479 (  -0.01582%)
MG Correction to account for finite box:                  0.006454
MG Remaining discrepancy, due to discretization:         -0.183025 (  -0.01528%)
      ideal mu1:      -0.474560907125
   10        -1.164581425709E+04     2.9766E-09     2.6923E-09    -1.1642E-10
Finished density kernel iterations (  10)

Writing density kernel to file "host_17201.dkn" ... done


>>> Density kernel optimised for the current NGWF basis:
     ~~~~~~~~~~~~~~~~~~~~~~~~~~~~~~~~~~~~~~~~~~~~~~~~~~~~~~~~~~~
     Total energy                =  -1.16458142570888E+04  Eh
     Estimated bandgap           =   9.6467E-02  Eh
     RMS occupancy error         =   3.5727E-16
     [H,K] commutator            =   2.6923E-09
     Occupancy bounds            = [  0.000:  1.000]
     ~~~~~~~~~~~~~~~~~~~~~~~~~~~~~~~~~~~~~~~~~~~~~~~~~~~~~~~~~~~




################################################################################
########################### NGWF CG iteration  004 #############################
################################################################################
****** Reciprocal space K.E. preconditioning with k_zero =  3.5000 a0^-1 *******

>>> Checking for convergence of NGWFs: 
           ........................................................
           |         *** NGWF optimisation converged ***          |
           | RMS NGWF gradient =    0.00000197343460              |
           | Criteria satisfied:                                  |
           | -> RMS NGWF gradient lower than set threshold.       |
           ========================================================

Reusing previously generated solute cavity.
MG BCs: +ve charge blocks (gridpoints):     28608 (   19207601).
MG BCs: -ve charge blocks (gridpoints):      8397 (    1045490).
MG BCs:     Elided blocks (gridpoints):    165306 (  170717534).
MG BCs: Computational effort saved:  99.9806%.
MG BCs: Charge after coarse-graining:           -9.0009546.
MG DL_MG: Calling solver with defect correction order = 8
MG DL_MG: Solver finished
MG Hartree energy from (\int phi*rho dr):              1197.490624
MG Hartree energy from (\int eps (grad phi)^2 dr):     1197.301145
MG Discrepancy due to finite box and discretization:     -0.189479 (  -0.01582%)
MG Correction to account for finite box:                  0.006454
MG Remaining discrepancy, due to discretization:         -0.183025 (  -0.01528%)

================================================================================
           ---------------- ENERGY COMPONENTS (Eh) ----------------
           | Kinetic                    :     8581.80119344636296 |
           | Pseudo. (local,OBC,corr'd) :    -5085.92905566257195 |
           | Pseudopotential (non-local):     1402.93871008351061 |
           | Hartree (molecular)        :     1197.49062402311347 |
           | Exchange-correlation       :    -3329.11968386240596 |
           | Ion-ion (open BC)          :   826847.26128063350916 |
           | Dispersion Correction      :       -4.63936764893923 |
           | Smeared ion non-self corr. :  -826799.10819104150869 |
           | Smeared ion self corr.     :   -14457.16956389741972 |
           | Solvent cavitation energy  :        2.34740491876693 |
           | Solute-solvent dis-rep en. :       -1.68760808122451 |
           | Total                      :   -11645.81425708883216 |
           --------------------------------------------------------
           ------ LOCAL ENERGY COMPONENTS FROM MATRIX TRACES ------
           | Pseudopotential (local)    :    -5085.92905566256923 |
           | Hartree                    :    -1998.27519738169076 |
           --------------------------------------------------------
           Integrated density           :     7191.99999999897955
           Integrated density tr(KS)    :     7192.00000000000091
================================================================================


                        <<<<< CALCULATION SUMMARY >>>>>                         
|ITER|    RMS GRADIENT   |     TOTAL ENERGY    |   step   |     Epredicted              
   0     0.00003971786783 -11645.75297682359815   0.616073 -11645.80604496938213        
   1     0.00000944893213 -11645.81378747476265   0.080004 -11645.81417751112167        
   2     0.00000430952317 -11645.81423895596527   0.015650 -11645.81425482682062        
   3     0.00000197343460 -11645.81425708881579  <-- CG                                 

=================== Finished the calculation in solvent ========================
= Adjusting the following parameters: 
= read_denskern: F
= read_tightbox_ngwfs: F
= maxit_pen: 0 (restored to user-specified value)
= restart read filename prefix: ""
= restart write filename prefix: ""
================================================================================

================================================================================
IS: Calculation in solvent completed (NGWFs converged).      

Individual components of total energy in solvent:     hartree           kcal/mol
- Usual non-electrostatic DFT terms:    -12843.96467794947057    -8059709.345089
- Electrostatic fixed charge energy:      1197.49062402311347      751436.695374
- Apolar cavitation energy:                  2.34740491876693        1473.018794
- Apolar dispersion-repulsion energy:       -1.68760808122451       -1058.990036
 -------------------------------------------------------------------------------
- Total energy in solvent:              -11645.81425708881579    -7307858.620958

Components of total energy in solvent:                hartree           kcal/mol
- Usual non-electrostatic DFT terms:    -12843.96467794947057    -8059709.345089
- Electrostatic energy:                   1197.49062402311347      751436.695374
- Apolar energy terms:                       0.65979683754241         414.028758
 -------------------------------------------------------------------------------
- Total energy in solvent:              -11645.81425708881579    -7307858.620958

Calculation of free energy of solvation:              hartree           kcal/mol
- Total energy in solvent:         (+)  -11645.81425708881579    -7307858.620958
- Total energy in vacuum:          (-)  -11641.99828960164450    -7305464.065259
 -------------------------------------------------------------------------------
- Total free energy of solvation:           -3.81596748717129       -2394.555699

Components of polar term in f.e. of solvation:        hartree           kcal/mol
- Electrostatic:                            -4.47038363979891       -2805.208026
- Change in nonelectrostatic DFT terms:     -0.00538068491369          -3.376431
 -------------------------------------------------------------------------------
- Polar term in f.e. of solvation:          -4.47576432471260       -2808.584456

Components of free energy of solvation:               hartree           kcal/mol
- Polar term in f.e. of solvation: (+)      -4.47576432471260       -2808.584456
- Apolar (cavitation, dis., rep.): (+)       0.65979683754241         414.028758
 -------------------------------------------------------------------------------
- Total free energy of solvation:           -3.81596748717019       -2394.555699
================================================================================


------------------------------ TIMING INFORMATION ------------------------------
AVERAGE TIME:   29803.612s on     60 node(s)                                    
TOTAL TIME:     29803.613s on     60 node(s)                                    
================= AVERAGE TIMINGS FROM ALL NODES (CUMULATIVE) ==================
|| TAG                                    #calls    cpu time   %total  Gflops ||
|| work_imbalance                       :     1        0.00s   0.000%  ------ ||
|| sparse_set_to_garbage                :   170        0.03s   0.000%  ------ ||
|| parallel_prepare_fd_halos_request    :  1833        0.03s   0.000%  ------ ||
|| ngwfs_initialise_from_radial         :     1        0.11s   0.000%  ------ ||
|| basis_extract_function_from_box      :  3360        0.15s   0.001%  ------ ||
|| parallel_prepare_fd_halos_satisfy    :  1833        0.66s   0.002%  ------ ||
|| parallel_prepare_fd_halos_alloc      :  1833        1.63s   0.005%  ------ ||
|| pseudopotentials_nonlocal_mat        :    29        2.43s   0.008%  ------ ||
|| openbc_locps_radial                  :     1        3.04s   0.010%  ------ ||
|| density_init_guess_real              :     1        5.09s   0.017%  ------ ||
|| restart_kernel_read                  :     1        5.91s   0.020%  ------ ||
|| restart_ngwfs_tightbox_input         :     1        7.17s   0.024%  ------ ||
|| parallel_prepare_fd_halos_comms_imbal:  1833        7.82s   0.026%  ------ ||
|| parallel_prepare_fd_halos_clear      :  1833       18.65s   0.063%  ------ ||
|| sparse_init                          :     2       22.03s   0.074%  ------ ||
|| projectors_func_ovlp_box             :    29       25.61s   0.086%  ------ ||
|| parallel_prepare_fd_halos_comms_wait :  1833       25.80s   0.087%  ------ ||
|| function_ops_brappd_ketppd           :    29       30.40s   0.102%  ------ ||
|| projectors_init_fftbox_recip         :   134       32.97s   0.111%  ------ ||
|| palser_mano_kernel_optimise          :     1       34.45s   0.116%  ------ ||
|| basis_copy_function_to_box           : 54750       42.38s   0.142%  ------ ||
|| ngwf_gradient_coeffs                 :    15       45.81s   0.154%  ------ ||
|| fourier_apply_box_pair               :  4830       50.70s   0.170% 587.533 ||
|| pseudo_make_structure_factor         :     2       51.55s   0.173%  ------ ||
|| parallel_prepare_fd_halos            :  1833       54.60s   0.183%  ------ ||
|| sparse_embed_hotelling_invert_embed  :    29       76.02s   0.255%  ------ ||
|| restart_kernel_write                 :    16      109.10s   0.366%  ------ ||
|| finite_difference_derivative         :  1833      119.87s   0.402%  ------ ||
|| integrals_kinetic                    :    29      144.54s   0.485%  ------ ||
|| basis_dot_function_with_box          : 8.322M     167.41s   0.562%  ------ ||
|| projectors_gradient_batch            :   105      167.93s   0.563%  ------ ||
|| fourier_apply_cell_backward          :  1223      183.07s   0.614%  89.711 ||
|| sparse_trace                         :  5219      213.15s   0.715%  ------ ||
|| fourier_apply_cell_forward           :  1221      236.65s   0.794%  69.288 ||
|| openbc_locps_on_grid                 :     2      260.31s   0.873%  ------ ||
|| kernel_purify                        :   465      278.90s   0.936%  ------ ||
|| basis_add_function_to_box            : 17.30M     393.78s   1.321%  ------ ||
|| lnv_gradient_norm                    :   150      400.89s   1.345%  ------ ||
|| xc_energy_potential                  :   305      481.59s   1.616%  ------ ||
|| hamiltonian_energy_components        :     4      504.68s   1.693%  ------ ||
|| kernel_fix                           :   150      529.59s   1.777%  ------ ||
|| integrals_locpot_mat_els_batch       :  1113      715.52s   2.401%  ------ ||
|| ngwf_gradient_build_batch            :   105      737.68s   2.475%  ------ ||
|| restart_ngwfs_tightbox_output        :    13      968.91s   3.251%  ------ ||
|| ngwf_gradient_batch                  :   105     1005.80s   3.375%  ------ ||
|| density_batch_row_sums               :  2128     1059.90s   3.556%  ------ ||
|| ngwf_gradient_lnv                    :    15     1132.81s   3.801%  ------ ||
|| cell_grid_deposit_box_real           : 35012     1290.13s   4.329%  ------ ||
|| cell_grid_extract_box_real           : 38340     1579.85s   5.301%  ------ ||
|| sparse_product                       :  6392     1755.03s   5.889%  ------ ||
|| density_fftbox_deposit_to_cell       : 33136     1886.41s   6.329%  ------ ||
|| potential_apply_to_ngwf_batch        :  1113     3580.84s  12.015%  ------ ||
|| density_fftbox_interpolate_multiply  : 33136     3716.36s  12.469%  ------ ||
|| integrals_locpot_dbl_grid            :   159     4315.56s  14.480%  ------ ||
|| multigrid_prepare_bound_cond         :   305     4343.30s  14.573%  ------ ||
|| fourier_apply_box                    : 114.1k    4552.12s  15.274% 749.157 ||
|| density_batch_interp_deposit         :  2128     6434.22s  21.589%  ------ ||
|| dl_mg_solver_calls                   :   305     7086.18s  23.776%  ------ ||
|| density_on_dbl_grid                  :   304     7795.00s  26.155%  ------ ||
|| multigrid_calculate_hartree          :   305    11597.99s  38.915%  ------ ||
|| hamiltonian_lhxc_calculate           :   300    19828.13s  66.529%  ------ ||
|| lnv_denskernel_optimise_cg           :    15    24985.22s  83.833%  ------ ||
|| ngwf_cg_optimise                     :     2    28893.82s  96.947%  ------ ||
|| total_time                           :     1    29803.61s 100.000%  ------ ||
================================================================================
Overhead of generating timer report: 
- 0 ms averaging over threads,
- 15 ms ensuring consistency across MPI ranks,
- 1 ms printing in order.

Job completed: 31-12-2019 17:50 (-0000)

Application 38515231 resources: utime ~6256621s, stime ~216133s, Rss ~3766460, inblocks ~314206080, outblocks ~62948914
