 +---------------------------------------------------------------+
 |                                                               |
 |        ####### #     # ####### ####### ####### ######         |
 |        #     # ##    # #          #    #       #     #        |
 |        #     # # #   # #          #    #       #     #        |
 |        #     # #  #  # #####      #    #####   ######         |
 |        #     # #   # # #          #    #       #              |
 |        #     # #    ## #          #    #       #              |
 |        ####### #     # #######    #    ####### #              |
 |                                                               |
 |        Linear-Scaling Ab Initio Total Energy Program          |
 |                                                               |
 |          Release for academic collaborators of ODG            |
 |                                             Version 5.3.2.6.  |
 |                                                               |
 +---------------------------------------------------------------+
 |                                                               |
 |  Authors:                                                     |
 |  Jacek Dziedzic, Peter D. Haynes, Nicholas D. M. Hine,        |
 |  Arash. A. Mostofi, Mike C. Payne and Chris-Kriton Skylaris   |
 |                                                               |
 |  Contributors:                                                |
 |  J. Aarons, L. Andrinopoulos, P. W. Avraam, R. A. Bell,       |
 |  A. Bhandari, G. A. Bramley, R. J. Charlton, S. J. Clark,     |
 |  R. J. Clements, G. C. Constantinescu, F. Corsetti,           |
 |  N. Corsini, O. Dieguez, S. M. M. Dubois, K. K. B. Duff,      |
 |  J. M. Escartin, A. Greco, H. Helal, Q. O. Hill, L. P. Lee,   |
 |  J.-H. Li, E. B. Linscott, G. Moynihan, D. D. O`Regan,        |
 |  O. K. Okan, M. J. S. Phipps, C. J. Pickard,                  |
 |  J. C. A. Prentice, M. I. J. Probert, L. E. Ratcliff,         |
 |  M. Robinson, A. Ruiz Serrano, J. S. Spencer, E. W. Tait,     |
 |  G. Teobaldi, D. Turban, V. Vitale, K. A. Wilkinson,          |
 |  C. Weber, J. C. Womack, N. Yeung and T. J. Zuehlsdorff       |
 |                                                               |
 |                                   Copyright (c) 2004-2019     |
 |                                                               |
 |  Please cite:                                                 |
 |  "Introducing ONETEP: Linear-scaling density functional       |
 |   simulations on parallel computers".                         |
 |   C.-K. Skylaris, P. D. Haynes, A. A. Mostofi, M. C. Payne.   |
 |   J. Chem. Phys. 122 084119 (2005).                           |
 |                                                               |
 |          in all publications arising from your use of ONETEP. |
 |                                                               |
 +---------------------------------------------------------------+
 |                                                               |
 |   ONETEP is based on developments described in the following  |
 |   publications:                                               |
 |                                                               |
 |  "Nonorthogonal generalized Wannier function pseudopotential  |
 |   plane-wave method".                                         |
 |   C.-K. Skylaris, A. A. Mostofi, P. D. Haynes, O. Dieguez,    |
 |   M. C. Payne.                                                |
 |   Phys. Rev. B 66 035119 (2002).                              |
 |                                                               |
 |  "Preconditioned iterative minimization for linear-scaling    |
 |   electronic structure calculations".                         |
 |   A. A. Mostofi, P. D. Haynes, C.-K. Skylaris, M. C. Payne.   |
 |   J. Chem. Phys. 119(17), pp.8842-8848 (2003).                |
 |                                                               |
 |  "Total-energy calculations on a real space grid with         |
 |   localized functions and a plane-wave basis".                |
 |   A. A. Mostofi, C.-K. Skylaris, P. D. Haynes, M. C. Payne.   |
 |   Comput. Phys. Commun. 147, pp.788-802 (2002).               |
 |                                                               |
 |  "Accurate kinetic energy evaluation in electronic structure  |
 |   calculations with localized functions on real space grids"  |
 |   C.-K. Skylaris, A. A. Mostofi, P. D. Haynes, C. J. Pickard, |
 |   M. C. Payne.                                                |
 |   Comput. Phys. Commun. 140, pp.315-322 (2001).               |
 |                                                               |
 |  "Accurate ionic forces and geometry optimization in linear-  |
 |   scaling density-functional theory with local orbitals"      |
 |   N. D. M. Hine, M. Robinson, P. D. Haynes, C.-K. Skylaris,   |
 |   M. C. Payne, and A. A. Mostofi.                             |
 |   Phys. Rev. B 83 195102 (2011).                              |
 |                                                               |
 +---------------------------------------------------------------+

Job started: 31-12-2019 09:33 (-0000)
 
Reading parameters from file "host_24801.dat" ...... done

If your calculation crashes here, before "Checking processes and threads..."
is displayed, then your stack size is insufficient.
If so, use "ulimit -s unlimited" at runtime.
You can disable this check with "check_stack_size F".

Checking processes and threads...
   Determining the default number of threads...
      No default threads set at compilation time: defaulting to 1.
      OpenMP library call suggests 4 threads.
      Hybrid MPI-OpenMP compilation detected.
      Number of MPI processes > 1.
      OMP_NUM_THREADS environment variable present and
      its value matches the one obtained from the OpenMP library call.
      Using this value as default.
      Default threads: 4
      Default applies to threads_max and threads_num_fftboxes.
      Settings in the input file override this default.
   ... done

   Running with 60 MPI processes.
   There are 6 MPI processes running on the same node as the root process.
   Each MPI process is using: 
               1 threads for simulation cell FFTs.
               1 threads for parallel FFT box operations.
               4 threads for loops over batched FFT box operations.
               4 threads in other parallel regions.
... done

Basic input checks...... done

Reading geometry and species blocks from file "host_24801.dat" ...
  <species_atomic_set> block not found: NGWF initialisation set to SOLVE
IS: Dielectric excluded regions:
    - NONE.
    
  Number of PPD points along a3 set to 1.  This is 
  the default value, it may have been provided also in the input file.
... done
 Writing xyz coordinates to file "host_24801.xyz" ... done


--------------------------------------------------------------------------------
---------------------------------- INPUT FILE ----------------------------------
--------------------------------------------------------------------------------

cutoff_energy       : 800 eV                                                    
xc_functional BLYP                                                              
task SINGLEPOINT                                                                
write_xyz true                                                                  
output_detail VERBOSE                                                           
ngwf_threshold_orig : 0.000002                                                  
kernel_cutoff       : 1000                                                      
k_zero              : 3.5                                                       
elec_cg_max 0                                                                   
occ_mix 1.0                                                                     
dispersion 1                                                                    
maxit_ngwf_cg 40                                                                
minit_lnv 10                                                                    
maxit_lnv 10                                                                    
write_denskern T                                                                
write_tightbox_ngwfs T                                                          
charge 9                                                                        
is_implicit_solvent T                                                           
is_auto_solvation T                                                             
is_include_apolar T                                                             
is_smeared_ion_rep T                                                            
is_solvent_surf_tension 4.7624E-5 Ha/bohr**2                                    
is_apolar_scaling_factor 0.281075                                               
is_solvation_beta 1.3                                                           
is_density_threshold 0.00035                                                    
is_bulk_permittivity 78.54                                                      
is_dielectric_model fix_initial                                                 
is_smeared_ion_width 0.8                                                        
mg_defco_fd_order 8                                                             
is_bc_coarseness 10                                                             
is_bc_surface_coarseness 1                                                      
fine_grid_scale 2.0                                                             
%block species                                                                  
N   N   7 4 8.0                                                                 
H   H   1 1 8.0                                                                 
C   C   6 4 8.0                                                                 
S   S  16 9 8.0                                                                 
O   O   8 4 8.0                                                                 
%endblock species                                                               
%block species_pot                                                              
N   N_00.recpot                                                                 
H   H_04.recpot                                                                 
C   C_01.recpot                                                                 
S   S_00.recpot                                                                 
O   O_02.recpot                                                                 
%endblock species_pot                                                           
%block lattice_cart                                                             
135.996   0.000   0.000                                                         
0.000 142.663   0.000                                                           
0.000   0.000   160.158                                                         
%endblock lattice_cart                                                          
%block positions_abs                                                            
     Hash =   000009056946229910077814
%endblock positions_abs                                                         

--------------------------------------------------------------------------------
-------------------------------- END INPUT FILE --------------------------------
--------------------------------------------------------------------------------


 
 ESDF WARNING(1): "kernelcutoff" (esdf_physical) has no units. Assume "bohr".
 ESDF WARNING(2): "kzero" (esdf_physical) has no units. Assume "1/bohr".
 ESDF WARNING(3
 ): "issmearedionwidth" (esdf_physical) has no units. Assume "bohr".
<<<<<<<<<<<<<<<<<<<<<<<<<<<<<<<<< Full system >>>>>>>>>>>>>>>>>>>>>>>>>>>>>>>>>>
<<<<<<<<<<<<<<<<<<<<<<<<< Pseudopotential information >>>>>>>>>>>>>>>>>>>>>>>>>>
File: N_00.recpot [ 2001 points up to Gmax=  52.9 (1/bohr)]
  Atomic number:  7;  ionic charge:  5.000000
    Shell 1: l = 0; rc = 1.48 bohr
File: H_04.recpot [ 2001 points up to Gmax=  52.9 (1/bohr)]
  Atomic number:  1;  ionic charge:  1.000000
    Local potential
File: C_01.recpot [ 2001 points up to Gmax=  52.9 (1/bohr)]
  Atomic number:  6;  ionic charge:  4.000000
    Shell 1: l = 0; rc = 1.48 bohr
File: S_00.recpot [ 2001 points up to Gmax=  52.9 (1/bohr)]
  Atomic number: 16;  ionic charge:  6.000000
    Shell 1: l = 0; rc = 1.90 bohr
    Shell 2: l = 2; rc = 1.84 bohr
File: O_02.recpot [ 2001 points up to Gmax=  52.9 (1/bohr)]
  Atomic number:  8;  ionic charge:  6.000000
    Shell 1: l = 0; rc = 1.31 bohr
<<<<<<<<<<<<<<<<<<<<<<<<<<<<<<<<<<<<<<<<>>>>>>>>>>>>>>>>>>>>>>>>>>>>>>>>>>>>>>>>

-------------------------- Atom counting information ---------------------------
Symbol    Natoms    Nngwfs    Nprojs
  N        236       944       236
  H       1311      1311         0
  C        810      3240       810
  S          6        54        36
  O        239       956       239
.......   ......    ......    ......
Totals:   2602      6505      1321
--------------------------------------------------------------------------------

=============================== PSINC grid sizes ===============================
                      Simulation cell:  270 x 286 x 315
                              FFT-box:   99 x 105 x  99
                                  PPD:    5 x  11 x   1
Grid space d1=  0.503688888889a0 (KE cutoff=  29.94189Eh = 814.76038eV)
Grid space d2=  0.498821678322a0 (KE cutoff=  30.52906Eh = 830.73786eV)
Grid space d3=  0.508438095238a0 (KE cutoff=  29.38514Eh = 799.61048eV)
================================================================================

********************* Fourier parallelisation information **********************
       Coarse grid (whole simulation cell) dimensions:    270   286   315
          Real-space ('12') slabs/node (min max mean):      5     6     5
         Recip-space ('23') slabs/node (min max mean):      2     3     2
********************************************************************************

********************* Fourier parallelisation information **********************
       Double grid (whole simulation cell) dimensions:    540   572   630
          Real-space ('12') slabs/node (min max mean):     10    11    10
         Recip-space ('23') slabs/node (min max mean):      4     5     4
********************************************************************************
ONETEP fine grid is 540 x 572 x 630 gridpoints, 135.9960 x 142.6630 x 160.1580 bohr.
FD multigrid is     537 x 569 x 625 gridpoints, 135.2405 x 141.9148 x 158.8869 bohr.


Calculating local pseudopotential in open BC on a radial grid ...
Discrepancy between calculated realspace psloc and -Z/x on [5a0,253.965a0]:
max |rel. diff| # avg |rel. diff| #  avg rel. diff #  f # pseudopotential file
 0.000259282084    0.000004141996   0.000000074978   54  'N_00.recpot'
 0.000405386992    0.000016970607  -0.000000075982   54  'H_04.recpot'
 0.000371694516    0.000017434762   0.000000149329   54  'C_01.recpot'
 0.000461642895    0.000020341726   0.000000491514   54  'S_00.recpot'
 0.000682525123    0.000027368244   0.000000159803   54  'O_02.recpot'
... done

Atom SCF Calculation for N  : Z (AE atom) =   7 : Z (PS atom) =   5
Config String:
Orbitals (num,occ):  2     2.00 3.00
Orbitals   (num,l):  2        0    1
Real-space Grid (nr,dr,rmax): 1203    0.0066555740    8.0000000000
Spherical Bessel Basis (nsws,lmax,cutoff):   47    1  176.3951722778
Confining potential (l,width,scale):  0    3.0000000000  100.0000000000
Confining potential (l,width,scale):  1    3.0000000000  100.0000000000
  1         -4.6013585513   -3.4049108869    7.0523828109   -1.9091162855
  2         -9.8016879160   -2.0135461241    8.3188189370   -2.2435473665
  3         -9.6321802847   -2.1065478390    8.2183983263   -2.2242517067
  4         -9.6808560127   -2.1077991138    8.2173288485   -2.2270152182
  5         -9.6784967349   -2.1128330112    8.2119747404   -2.2266918217
  6         -9.6791515400   -2.1147078825    8.2099963775   -2.2267571594
  7         -9.6793670910   -2.1154252429    8.2092416418   -2.2268113337
  8         -9.6794373063   -2.1158528083    8.2087924364   -2.2268527427
  9         -9.6794398958   -2.1161080766    8.2085246585   -2.2268829890
 10         -9.6794160451   -2.1162604947    8.2083650403   -2.2269045154
 11         -9.6793856186   -2.1163514575    8.2082699573   -2.2269195730
 12         -9.6793628578   -2.1163948573    8.2082246846   -2.2269278917
 13         -9.6793432636   -2.1164242260    8.2081940961   -2.2269341082
 14         -9.6793270299   -2.1164440925    8.2081734387   -2.2269387333
 15         -9.6793139353   -2.1164575258    8.2081594952   -2.2269421617
 16         -9.6793035781   -2.1164666052    8.2081500885   -2.2269446948
 17         -9.6792955084   -2.1164727391    8.2081437461   -2.2269465609
 18         -9.6792892951   -2.1164768810    8.2081394723   -2.2269479322
 19         -9.6792845566   -2.1164796764    8.2081365942   -2.2269489376
 20         -9.6792809712   -2.1164815621    8.2081346574   -2.2269496733
 21         -9.6792782763   -2.1164828334    8.2081333549   -2.2269502106
 22         -9.6792762618   -2.1164836900    8.2081324796   -2.2269506023
 23         -9.6792747633   -2.1164842667    8.2081318920   -2.2269508875
 24         -9.6792736533   -2.1164846548    8.2081314978   -2.2269510948
 25         -9.6792728339   -2.1164849157    8.2081312336   -2.2269512454
 26         -9.6792722311   -2.1164850910    8.2081310567   -2.2269513545
 27         -9.6792717888   -2.1164852087    8.2081309384   -2.2269514336
 28         -9.6792714651   -2.1164852876    8.2081308594   -2.2269514909
 29         -9.6792712288   -2.1164853404    8.2081308067   -2.2269515323
 30         -9.6792710566   -2.1164853758    8.2081307716   -2.2269515622
 31         -9.6792709314   -2.1164853994    8.2081307482   -2.2269515837
 32         -9.6792708404   -2.1164854152    8.2081307327   -2.2269515993
Atom SCF converged after  32 iterations to a total energy of     -9.67927084

Atom SCF Calculation for H  : Z (AE atom) =   1 : Z (PS atom) =   1
Config String:
Orbitals (num,occ):  1     1.00
Orbitals   (num,l):  1        0
Real-space Grid (nr,dr,rmax): 1203    0.0066555740    8.0000000000
Spherical Bessel Basis (nsws,lmax,cutoff):   47    0  176.3951722778
Confining potential (l,width,scale):  0    3.0000000000  100.0000000000
  1         -0.3113196429   -0.2409477661    0.2820953124   -0.2411487446
  2         -0.3944405350   -0.2385116628    0.2890208891   -0.2498343930
  3         -0.4360599314   -0.2357686975    0.2928790338   -0.2550698311
  4         -0.4516191135   -0.2350237069    0.2939653690   -0.2569119237
  5         -0.4572820083   -0.2348967328    0.2941823017   -0.2574986468
  6         -0.4593767844   -0.2349021805    0.2941970985   -0.2576826683
  7         -0.4601714750   -0.2349212656    0.2941813626   -0.2577413902
  8         -0.4604802364   -0.2349338625    0.2941687305   -0.2577607641
  9         -0.4606025362   -0.2349403631    0.2941618217   -0.2577674206
 10         -0.4606516810   -0.2349434027    0.2941585053   -0.2577698038
 11         -0.4606716326   -0.2349447548    0.2941570091   -0.2577706895
 12         -0.4606797900   -0.2349453396    0.2941563564   -0.2577710289
 13         -0.4606831414   -0.2349455884    0.2941560773   -0.2577711621
 14         -0.4606845228   -0.2349456932    0.2941559594   -0.2577712153
 15         -0.4606850934   -0.2349457371    0.2941559099   -0.2577712369
 16         -0.4606853295   -0.2349457554    0.2941558892   -0.2577712456
 17         -0.4606854273   -0.2349457629    0.2941558806   -0.2577712492
Atom SCF converged after  17 iterations to a total energy of     -0.46068543

Atom SCF Calculation for C  : Z (AE atom) =   6 : Z (PS atom) =   4
Config String:
Orbitals (num,occ):  2     2.00 2.00
Orbitals   (num,l):  2        0    1
Real-space Grid (nr,dr,rmax): 1203    0.0066555740    8.0000000000
Spherical Bessel Basis (nsws,lmax,cutoff):   47    1  176.3951722778
Confining potential (l,width,scale):  0    3.0000000000  100.0000000000
Confining potential (l,width,scale):  1    3.0000000000  100.0000000000
  1         -5.2693777228   -1.2877532505    4.5135249990   -1.4305993142
  2         -5.3365227757   -1.3323295489    4.4657513615   -1.4196127907
  3         -5.3733098109   -1.3456729697    4.4512270183   -1.4183019279
  4         -5.3839796038   -1.3513025764    4.4450375062   -1.4180466599
  5         -5.3868514120   -1.3535693106    4.4425354897   -1.4180394921
  6         -5.3875089733   -1.3544515429    4.4415603494   -1.4180780243
  7         -5.3875754244   -1.3547901367    4.4411861035   -1.4181110295
  8         -5.3875195890   -1.3549189050    4.4410439108   -1.4181318379
  9         -5.3874618680   -1.3549675143    4.4409903245   -1.4181434793
 10         -5.3874310972   -1.3549820855    4.4409743002   -1.4181483685
 11         -5.3874107979   -1.3549893298    4.4409663482   -1.4181513220
 12         -5.3873978694   -1.3549929189    4.4409624173   -1.4181530849
 13         -5.3873898364   -1.3549946896    4.4409604830   -1.4181541273
 14         -5.3873849353   -1.3549955588    4.4409595364   -1.4181547390
 15         -5.3873819861   -1.3549959831    4.4409590761   -1.4181550957
 16         -5.3873802306   -1.3549961887    4.4409588541   -1.4181553027
 17         -5.3873791949   -1.3549962875    4.4409587480   -1.4181554222
 18         -5.3873785880   -1.3549963344    4.4409586979   -1.4181554910
 19         -5.3873782346   -1.3549963565    4.4409586746   -1.4181555304
 20         -5.3873780298   -1.3549963666    4.4409586640   -1.4181555530
 21         -5.3873779116   -1.3549963712    4.4409586593   -1.4181555658
 22         -5.3873778437   -1.3549963732    4.4409586573   -1.4181555732
Atom SCF converged after  22 iterations to a total energy of     -5.38737784

Atom SCF Calculation for S  : Z (AE atom) =  16 : Z (PS atom) =   6
Config String:
Orbitals (num,occ):  3     2.00 4.00 0.00
Orbitals   (num,l):  3        0    1    2
Real-space Grid (nr,dr,rmax): 1203    0.0066555740    8.0000000000
Spherical Bessel Basis (nsws,lmax,cutoff):   47    2  176.3951722778
Confining potential (l,width,scale):  0    3.0000000000  100.0000000000
Confining potential (l,width,scale):  1    3.0000000000  100.0000000000
Confining potential (l,width,scale):  2    3.0000000000  100.0000000000
  1        -12.5283336347   -1.0013338836   10.1554312477   -2.4174677201
  2         -9.7849695337   -2.4989611986    8.2134743506   -1.9762637204
  3        -10.1259261666   -2.2526049010    8.4775731108   -2.0458353546
  4        -10.1239865120   -2.2378704469    8.4945934226   -2.0534866629
  5        -10.1261039751   -2.2288435510    8.5048825038   -2.0581373158
  6        -10.1272507918   -2.2250862078    8.5091521192   -2.0601689919
  7        -10.1279932566   -2.2228087338    8.5117370263   -2.0614492091
  8        -10.1284637245   -2.2214320698    8.5132987140   -2.0622522845
  9        -10.1287626908   -2.2205988902    8.5142437482   -2.0627554732
 10        -10.1289546369   -2.2200932921    8.5148172759   -2.0630708724
 11        -10.1290791799   -2.2197855833    8.5151664042   -2.0632687591
 12        -10.1291606570   -2.2195978043    8.5153795223   -2.0633930653
 13        -10.1292142534   -2.2194829439    8.5155099260   -2.0634712474
 14        -10.1292496213   -2.2194125466    8.5155898783   -2.0635204792
 15        -10.1292729946   -2.2193693272    8.5156389817   -2.0635515168
 16        -10.1292884463   -2.2193427544    8.5156691835   -2.0635711056
 17        -10.1292986575   -2.2193263948    8.5156877839   -2.0635834819
 18        -10.1293054004   -2.2193163109    8.5156992531   -2.0635913093
 19        -10.1293098486   -2.2193100881    8.5157063331   -2.0635962646
 20        -10.1293127800   -2.2193062437    8.5157107085   -2.0635994047
 21        -10.1293147098   -2.2193038661    8.5157134154   -2.0636013963
 22        -10.1293159788   -2.2193023940    8.5157150917   -2.0636026607
 23        -10.1293168125   -2.2193014816    8.5157161310   -2.0636034641
 24        -10.1293173597   -2.2193009155    8.5157167761   -2.0636039750
 25        -10.1293177186   -2.2193005638    8.5157171769   -2.0636043002
 26        -10.1293179538   -2.2193003451    8.5157174262   -2.0636045074
 27        -10.1293181078   -2.2193002089    8.5157175814   -2.0636046395
 28        -10.1293182086   -2.2193001240    8.5157176782   -2.0636047237
 29        -10.1293182745   -2.2193000710    8.5157177386   -2.0636047775
Atom SCF converged after  29 iterations to a total energy of    -10.12931827

Atom SCF Calculation for O  : Z (AE atom) =   8 : Z (PS atom) =   6
Config String:
Orbitals (num,occ):  2     2.00 4.00
Orbitals   (num,l):  2        0    1
Real-space Grid (nr,dr,rmax): 1203    0.0066555740    8.0000000000
Spherical Bessel Basis (nsws,lmax,cutoff):   47    1  176.3951722778
Confining potential (l,width,scale):  0    3.0000000000  100.0000000000
Confining potential (l,width,scale):  1    3.0000000000  100.0000000000
  1         -1.7080722297   -7.5640505253   10.1554312477   -2.4174677201
  2        -16.1263011198   -3.0821855690   13.6696026363   -3.2396436226
  3        -15.9244673468   -3.0726325746   13.6814805792   -3.2476092574
  4        -15.8573288987   -3.0670117467   13.6882774297   -3.2520880618
  5        -15.8336465257   -3.0663656103   13.6892309711   -3.2533931796
  6        -15.8219715940   -3.0659812931   13.6897814011   -3.2541232529
  7        -15.8159298089   -3.0658367134   13.6900093837   -3.2545066783
  8        -15.8128098120   -3.0657852377   13.6901029676   -3.2547083587
  9        -15.8111983525   -3.0657695213   13.6901400052   -3.2548145289
 10        -15.8103655433   -3.0657666144   13.6901537351   -3.2548704921
 11        -15.8099347793   -3.0657676485   13.6901582071   -3.2549000342
 12        -15.8097117541   -3.0657694273   13.6901592350   -3.2549156531
 13        -15.8095961662   -3.0657709604   13.6901591353   -3.2549239235
 14        -15.8095361976   -3.0657720564   13.6901587727   -3.2549283095
 15        -15.8095050528   -3.0657727732   13.6901584317   -3.2549306388
 16        -15.8094888611   -3.0657732184   13.6901581795   -3.2549318776
 17        -15.8094804347   -3.0657734855   13.6901580117   -3.2549325373
 18        -15.8094760452   -3.0657736419   13.6901579063   -3.2549328891
 19        -15.8094737563   -3.0657737319   13.6901578427   -3.2549330769
 20        -15.8094725618   -3.0657737830   13.6901578053   -3.2549331772
 21        -15.8094719377   -3.0657738116   13.6901577837   -3.2549332309
 22        -15.8094716114   -3.0657738275   13.6901577715   -3.2549332597
 23        -15.8094714406   -3.0657738363   13.6901577646   -3.2549332751
 24        -15.8094713512   -3.0657738411   13.6901577608   -3.2549332834
Atom SCF converged after  24 iterations to a total energy of    -15.80947135

========================== Calculation in vacuum ==============================
= Adjusting the following parameters: 
= is_implicit_solvent: F
= is_include_apolar: F
= write_denskern: T
= write_tightbox_ngwfs: T
= restart read filename prefix: ""
= restart write filename prefix: "vacuum_"
===============================================================================

Determining parallel strategy ...
... using space-filling curve
... NGWF load balancing: max    109;  min    108;  average    108
... Projector load balancing: max     25;  min     21;  average     22
... done
Calculating direct Ion-Ion energy ...
Ion-Ion Energy        :    827478.85482297209091
======================= Empirical dispersion information =======================
Model : Elstner
Dispersion Correction Energy: -0.46050915E+01 Hartree
================================================================================
Basis initialisation ...... NGWF spheres initialised
... Projector spheres initialised
... NGWF tight boxes initialised
... Tight-boxes gathered
... NGWF basis size (local,global):    1032372  62156019
... Nonlocal pseudopotential projector initialisation
... done

========================== Sparse matrix information ===========================
                        Overlap matrix filling:   6.72%
                        Density kernel filling: 100.00%
              NGWF-Proj overlap matrix filling:   1.77%
                    Hamiltonian matrix filling:   7.57%
                  NGWF diagonal matrix filling:   0.05%
                             KS matrix filling: 100.00% 
                           KSKS matrix filling: 100.00% 
================================================================================

Sparse matrix initialisation ... done

Generating smeared ion density ... done
Smeared ion self correction:     -14457.169564
Smeared ion non-self correction: -827430.772342
NGWF initialisation ...... done
============ Calculation of NGWF S^-1 using Hotelling algorithm ================ 
         Iteration  |  Frobenius norm and Maximum abs value    (of I-S*S_n^-1)   
               1       0.78455101E+02     0.98250413E+00
               2       0.76588614E+02     0.96543390E+00
               3       0.73576553E+02     0.93250485E+00
               4       0.69311518E+02     0.87115737E+00
               5       0.64009895E+02     0.76636751E+00
               6       0.58049170E+02     0.70636913E+00
               7       0.52045865E+02     0.67008865E+00
               8       0.46480733E+02     0.64360132E+00
               9       0.40375057E+02     0.60336281E+00
              10       0.32057255E+02     0.53340059E+00
              11       0.21454087E+02     0.42069253E+00
              12       0.10883840E+02     0.27028804E+00
              13       0.35395128E+01     0.12634294E+00
              14       0.54385711E+00     0.32013508E-01
              15       0.25210768E-01     0.26393949E-02
              16       0.14350326E-03     0.22627395E-04
              17       0.89731919E-08     0.18124856E-08
              18       0.90159843E-13     0.44408921E-14
================================================================================
Calculating local pseudopotential in open BC on the fine real space grid ...
... done

MG BCs: +ve charge blocks (gridpoints):     20522 (   16129898).
MG BCs: -ve charge blocks (gridpoints):      8032 (    1088543).
MG BCs:     Elided blocks (gridpoints):    173392 (  173752184).
MG BCs: Computational effort saved:  99.9850%.
MG BCs: Charge after coarse-graining:           -9.0002242.
MG DL_MG: Calling solver with defect correction order = 8
MG DL_MG: Solver finished
MG Hartree energy from (\int phi*rho dr):              1459.093540
MG Hartree energy from (\int eps (grad phi)^2 dr):     1458.472339
MG Discrepancy due to finite box and discretization:     -0.621202 (  -0.04257%)
MG Correction to account for finite box:                  0.466596
MG Remaining discrepancy, due to discretization:         -0.154606 (  -0.01060%)
Up spin density kernel initialisation ... 
======= Optimisation of K by Palser-Manolopoulos canonical purification ======== 
         Iteration  |  Band structure energy |    c_n   
               1       -2562.31720991369775    0.5269116
               2       -2737.10297849243761    0.5171991
               3       -2916.63872369540468    0.5157256
               4       -3066.83953515233361    0.5295779
               5       -3159.19108214604785    0.5658856
               6       -3197.74402082908864    0.6106105
               7       -3210.83714077254990    0.6209349
               8       -3216.54490391772015    0.6169217
               9       -3219.31863710775588    0.6258262
              10       -3220.46951512276655    0.6460050
              11       -3220.90792769392374    0.6652160
              12       -3221.08395416021449    0.6612595
              13       -3221.16861104800319    0.6153383
              14       -3221.21813953582932    0.5331728
              15       -3221.24577401146053    0.4463165
              16       -3221.25191958843652    0.4071578
              17       -3221.25330930534165    0.4127745
              18       -3221.25409337654037    0.4532138
              19       -3221.25461753113996    0.4870154
              20       -3221.25483516847180    0.4989218
              21       -3221.25486360083505    0.4999925
              22       -3221.25486402737124    0.5000754
              23       -3221.25486402746810    0.5000754
Termination criterion satisfied: band energy change below threshold.
Final occupancy bounds: [    0.00000000000000:    1.00000000000000]
Closest occupancy to 0.5:     1.00000000000000
================================================================================
... done

Writing density kernel to file "host_24801.vacuum_dkn" ... done

>>> Optimising kernel for current NGWFs:
   Initial electron number for spin 1:    7192.00000000
     Final electron number for spin 1:    7192.00000000

=================== Penalty functional idempotency correction ==================
 RMS occupancy error at iteration   1:  0.000000 (step -0.5000 Ne1=   7192.0000)
            Final RMS occupancy error   :  0.000000 (Ne1=   7192.0000)
               Final occupancy bounds   : [  0.0000,  1.0000]
================================================================================

................................................................................
<<<<<<<<<<<<<< LNV (Original version) density kernel optimisation >>>>>>>>>>>>>>
~~~~~~~~~~~~~~~~~~~~~~~~~~~~~~~~~~~~~~~~~~~~~~~~~~~~~~~~~~~~~~~~~~~~~~~~~~~~~~~~
   iter  |      energy (Eh)       | rms gradient |  commutator  |   dE (Eh)
MG BCs: +ve charge blocks (gridpoints):     31050 (   17270410).
MG BCs: -ve charge blocks (gridpoints):      8348 (    1119183).
MG BCs:     Elided blocks (gridpoints):    162856 (  172581032).
MG BCs: Computational effort saved:  99.9794%.
MG BCs: Charge after coarse-graining:           -9.0009777.
MG DL_MG: Calling solver with defect correction order = 8
MG DL_MG: Solver finished
MG Hartree energy from (\int phi*rho dr):              1413.319439
MG Hartree energy from (\int eps (grad phi)^2 dr):     1412.643247
MG Discrepancy due to finite box and discretization:     -0.676191 (  -0.04784%)
MG Correction to account for finite box:                  0.478875
MG Remaining discrepancy, due to discretization:         -0.197317 (  -0.01396%)
      ideal mu1:      -0.705018452411
             Q0:  -11465.773501634598
             G0:    -155.392183647236
   RMS gradient:       0.001916316698
MG BCs: +ve charge blocks (gridpoints):     31053 (   17352037).
MG BCs: -ve charge blocks (gridpoints):      8264 (    1100159).
MG BCs:     Elided blocks (gridpoints):    162853 (  172518429).
MG BCs: Computational effort saved:  99.9794%.
MG BCs: Charge after coarse-graining:           -9.0009991.
MG DL_MG: Calling solver with defect correction order = 8
MG DL_MG: Solver finished
MG Hartree energy from (\int phi*rho dr):              1434.926576
MG Hartree energy from (\int eps (grad phi)^2 dr):     1434.267086
MG Discrepancy due to finite box and discretization:     -0.659490 (  -0.04596%)
MG Correction to account for finite box:                  0.478966
MG Remaining discrepancy, due to discretization:         -0.180524 (  -0.01258%)
     Trial step:       0.500000000000
             Q1:  -11478.085763280746
 Quadratic coef:      65.383830177470
 Linear coef   :     -77.696091823618
           Qmin:  -11488.855212618333
Quadratic minimum step length (  0.297076859878) accepted
    Initial Ne1:    7192.00000000
      Final Ne1:    7192.00000000

=================== Penalty functional idempotency correction ==================
 RMS occupancy error at iteration   1:  0.003683 (step -0.4876 Ne1=   7192.0000)
 RMS occupancy error at iteration   2:  0.000030 (step -0.5001 Ne1=   7192.0000)
            Final RMS occupancy error   :  0.000000 (Ne1=   7192.0000)
               Final occupancy bounds   : [  0.0000,  1.0000]
================================================================================

    1        -1.146577350163E+04     1.9163E-03     1.7333E-03
MG BCs: +ve charge blocks (gridpoints):     31053 (   17319701).
MG BCs: -ve charge blocks (gridpoints):      8304 (    1108599).
MG BCs:     Elided blocks (gridpoints):    162853 (  172542325).
MG BCs: Computational effort saved:  99.9794%.
MG BCs: Charge after coarse-graining:           -9.0009908.
MG DL_MG: Calling solver with defect correction order = 8
MG DL_MG: Solver finished
MG Hartree energy from (\int phi*rho dr):              1417.613676
MG Hartree energy from (\int eps (grad phi)^2 dr):     1416.948481
MG Discrepancy due to finite box and discretization:     -0.665195 (  -0.04692%)
MG Correction to account for finite box:                  0.478805
MG Remaining discrepancy, due to discretization:         -0.186390 (  -0.01315%)
      ideal mu1:      -0.746201716533
             Q0:  -11489.316916287993
             G0:     -12.477545130757
   RMS gradient:       0.000538960912
MG BCs: +ve charge blocks (gridpoints):     31057 (   17336703).
MG BCs: -ve charge blocks (gridpoints):      8275 (    1103528).
MG BCs:     Elided blocks (gridpoints):    162849 (  172530394).
MG BCs: Computational effort saved:  99.9794%.
MG BCs: Charge after coarse-graining:           -9.0009946.
MG DL_MG: Calling solver with defect correction order = 8
MG DL_MG: Solver finished
MG Hartree energy from (\int phi*rho dr):              1422.192146
MG Hartree energy from (\int eps (grad phi)^2 dr):     1421.530985
MG Discrepancy due to finite box and discretization:     -0.661162 (  -0.04649%)
MG Correction to account for finite box:                  0.478111
MG Remaining discrepancy, due to discretization:         -0.183051 (  -0.01287%)
     Trial step:       0.385406836912
             Q1:  -11492.280778564280
 Quadratic coef:       1.845068924991
 Linear coef   :      -4.808931201278
           Qmin:  -11492.450379079733
Quadratic minimum step length (  0.502256294632) accepted
    Initial Ne1:    7191.99988178
      Final Ne1:    7192.00000000

=================== Penalty functional idempotency correction ==================
 RMS occupancy error at iteration   1:  0.001937 (step -0.4925 Ne1=   7192.0000)
 RMS occupancy error at iteration   2:  0.000013 (step -0.5001 Ne1=   7192.0000)
            Final RMS occupancy error   :  0.000000 (Ne1=   7192.0000)
               Final occupancy bounds   : [  0.0000,  1.0000]
================================================================================

    2        -1.148931691629E+04     5.3896E-04     4.8748E-04    -2.3543E+01
MG BCs: +ve charge blocks (gridpoints):     31052 (   17341975).
MG BCs: -ve charge blocks (gridpoints):      8268 (    1102075).
MG BCs:     Elided blocks (gridpoints):    162854 (  172526575).
MG BCs: Computational effort saved:  99.9794%.
MG BCs: Charge after coarse-graining:           -9.0009957.
MG DL_MG: Calling solver with defect correction order = 8
MG DL_MG: Solver finished
MG Hartree energy from (\int phi*rho dr):              1423.636216
MG Hartree energy from (\int eps (grad phi)^2 dr):     1422.976193
MG Discrepancy due to finite box and discretization:     -0.660023 (  -0.04636%)
MG Correction to account for finite box:                  0.477916
MG Remaining discrepancy, due to discretization:         -0.182107 (  -0.01279%)
      ideal mu1:      -0.768807250287
             Q0:  -11492.490956164896
             G0:      -2.074188123181
   RMS gradient:       0.000219973216
MG BCs: +ve charge blocks (gridpoints):     31046 (   17341463).
MG BCs: -ve charge blocks (gridpoints):      8272 (    1102919).
MG BCs:     Elided blocks (gridpoints):    162860 (  172526243).
MG BCs: Computational effort saved:  99.9794%.
MG BCs: Charge after coarse-graining:           -9.0009954.
MG DL_MG: Calling solver with defect correction order = 8
MG DL_MG: Solver finished
MG Hartree energy from (\int phi*rho dr):              1421.875948
MG Hartree energy from (\int eps (grad phi)^2 dr):     1421.216537
MG Discrepancy due to finite box and discretization:     -0.659411 (  -0.04638%)
MG Correction to account for finite box:                  0.477481
MG Remaining discrepancy, due to discretization:         -0.181931 (  -0.01280%)
     Trial step:       0.439969328287
             Q1:  -11493.031150185387
 Quadratic coef:       0.372385134808
 Linear coef   :      -0.912579155297
           Qmin:  -11493.050055224472
Quadratic minimum step length (  0.539101591921) accepted
    Initial Ne1:    7191.99992133
      Final Ne1:    7192.00000000

=================== Penalty functional idempotency correction ==================
 RMS occupancy error at iteration   1:  0.000720 (step -0.4968 Ne1=   7192.0000)
 RMS occupancy error at iteration   2:  0.000003 (step -0.5000 Ne1=   7192.0000)
            Final RMS occupancy error   :  0.000000 (Ne1=   7192.0000)
               Final occupancy bounds   : [  0.0000,  1.0000]
================================================================================

    3        -1.149249095616E+04     2.1997E-04     1.9896E-04    -3.1740E+00
MG BCs: +ve charge blocks (gridpoints):     31044 (   17341555).
MG BCs: -ve charge blocks (gridpoints):      8272 (    1103001).
MG BCs:     Elided blocks (gridpoints):    162862 (  172526069).
MG BCs: Computational effort saved:  99.9794%.
MG BCs: Charge after coarse-graining:           -9.0009953.
MG DL_MG: Calling solver with defect correction order = 8
MG DL_MG: Solver finished
MG Hartree energy from (\int phi*rho dr):              1421.488973
MG Hartree energy from (\int eps (grad phi)^2 dr):     1420.829685
MG Discrepancy due to finite box and discretization:     -0.659288 (  -0.04638%)
MG Correction to account for finite box:                  0.477384
MG Remaining discrepancy, due to discretization:         -0.181904 (  -0.01280%)
      ideal mu1:      -0.770535967372
             Q0:  -11493.056183662731
             G0:      -0.570308504565
   RMS gradient:       0.000115377353
MG BCs: +ve charge blocks (gridpoints):     31049 (   17342684).
MG BCs: -ve charge blocks (gridpoints):      8264 (    1102824).
MG BCs:     Elided blocks (gridpoints):    162857 (  172525117).
MG BCs: Computational effort saved:  99.9794%.
MG BCs: Charge after coarse-graining:           -9.0009955.
MG DL_MG: Calling solver with defect correction order = 8
MG DL_MG: Solver finished
MG Hartree energy from (\int phi*rho dr):              1422.775573
MG Hartree energy from (\int eps (grad phi)^2 dr):     1422.116371
MG Discrepancy due to finite box and discretization:     -0.659202 (  -0.04633%)
MG Correction to account for finite box:                  0.477211
MG Remaining discrepancy, due to discretization:         -0.181992 (  -0.01279%)
     Trial step:       0.487019676477
             Q1:  -11493.195512209320
 Quadratic coef:       0.138422916796
 Linear coef   :      -0.277751463386
           Qmin:  -11493.195513690587
Quadratic minimum step length (  0.488612835830) accepted
    Initial Ne1:    7191.99998018
      Final Ne1:    7192.00000000

=================== Penalty functional idempotency correction ==================
 RMS occupancy error at iteration   1:  0.000308 (step -0.4972 Ne1=   7192.0000)
 RMS occupancy error at iteration   2:  0.000002 (step -0.5000 Ne1=   7192.0000)
            Final RMS occupancy error   :  0.000000 (Ne1=   7192.0000)
               Final occupancy bounds   : [  0.0000,  1.0000]
================================================================================

    4        -1.149305618366E+04     1.1538E-04     1.0436E-04    -5.6523E-01
MG BCs: +ve charge blocks (gridpoints):     31049 (   17342689).
MG BCs: -ve charge blocks (gridpoints):      8264 (    1102823).
MG BCs:     Elided blocks (gridpoints):    162857 (  172525113).
MG BCs: Computational effort saved:  99.9794%.
MG BCs: Charge after coarse-graining:           -9.0009955.
MG DL_MG: Calling solver with defect correction order = 8
MG DL_MG: Solver finished
MG Hartree energy from (\int phi*rho dr):              1422.780276
MG Hartree energy from (\int eps (grad phi)^2 dr):     1422.121073
MG Discrepancy due to finite box and discretization:     -0.659202 (  -0.04633%)
MG Correction to account for finite box:                  0.477210
MG Remaining discrepancy, due to discretization:         -0.181992 (  -0.01279%)
      ideal mu1:      -0.770836575658
             Q0:  -11493.196372470120
             G0:      -0.195608168552
   RMS gradient:       0.000067789165
MG BCs: +ve charge blocks (gridpoints):     31053 (   17343053).
MG BCs: -ve charge blocks (gridpoints):      8266 (    1102562).
MG BCs:     Elided blocks (gridpoints):    162853 (  172525010).
MG BCs: Computational effort saved:  99.9794%.
MG BCs: Charge after coarse-graining:           -9.0009955.
MG DL_MG: Calling solver with defect correction order = 8
MG DL_MG: Solver finished
MG Hartree energy from (\int phi*rho dr):              1423.216443
MG Hartree energy from (\int eps (grad phi)^2 dr):     1422.557132
MG Discrepancy due to finite box and discretization:     -0.659311 (  -0.04633%)
MG Correction to account for finite box:                  0.477131
MG Remaining discrepancy, due to discretization:         -0.182181 (  -0.01280%)
     Trial step:       0.487815605766
             Q1:  -11493.258747112122
 Quadratic coef:       0.033046075232
 Linear coef   :      -0.095420717235
           Qmin:  -11493.265254426704
Quadratic minimum step length (  0.704285072489) accepted
    Initial Ne1:    7191.99999000
      Final Ne1:    7192.00000000

=================== Penalty functional idempotency correction ==================
 RMS occupancy error at iteration   1:  0.000422 (step -0.4819 Ne1=   7192.0000)
 RMS occupancy error at iteration   2:  0.000007 (step -0.5000 Ne1=   7192.0000)
            Final RMS occupancy error   :  0.000000 (Ne1=   7192.0000)
               Final occupancy bounds   : [  0.0000,  1.0000]
================================================================================

    5        -1.149319637247E+04     6.7789E-05     6.1314E-05    -1.4019E-01
MG BCs: +ve charge blocks (gridpoints):     31056 (   17343253).
MG BCs: -ve charge blocks (gridpoints):      8267 (    1102515).
MG BCs:     Elided blocks (gridpoints):    162850 (  172524857).
MG BCs: Computational effort saved:  99.9794%.
MG BCs: Charge after coarse-graining:           -9.0009954.
MG DL_MG: Calling solver with defect correction order = 8
MG DL_MG: Solver finished
MG Hartree energy from (\int phi*rho dr):              1423.408182
MG Hartree energy from (\int eps (grad phi)^2 dr):     1422.748823
MG Discrepancy due to finite box and discretization:     -0.659359 (  -0.04632%)
MG Correction to account for finite box:                  0.477094
MG Remaining discrepancy, due to discretization:         -0.182265 (  -0.01280%)
      ideal mu1:      -0.770729529424
             Q0:  -11493.264862394775
             G0:      -0.174734813370
   RMS gradient:       0.000064534789
MG BCs: +ve charge blocks (gridpoints):     31059 (   17342621).
MG BCs: -ve charge blocks (gridpoints):      8269 (    1102914).
MG BCs:     Elided blocks (gridpoints):    162847 (  172525090).
MG BCs: Computational effort saved:  99.9794%.
MG BCs: Charge after coarse-graining:           -9.0009950.
MG DL_MG: Calling solver with defect correction order = 8
MG DL_MG: Solver finished
MG Hartree energy from (\int phi*rho dr):              1422.039983
MG Hartree energy from (\int eps (grad phi)^2 dr):     1421.380670
MG Discrepancy due to finite box and discretization:     -0.659313 (  -0.04636%)
MG Correction to account for finite box:                  0.477031
MG Remaining discrepancy, due to discretization:         -0.182282 (  -0.01282%)
     Trial step:       0.586140980710
             Q1:  -11493.346068967134
 Quadratic coef:       0.021212662514
 Linear coef   :      -0.102419234873
           Qmin:  -11493.388487843315
Quadratic minimum step length (  1.415006502199) accepted
    Initial Ne1:    7191.99994662
      Final Ne1:    7192.00000000

=================== Penalty functional idempotency correction ==================
 RMS occupancy error at iteration   1:  0.004463 (step -0.3290 Ne1=   7192.0000)
 RMS occupancy error at iteration   2:  0.000246 (step -0.4983 Ne1=   7192.0000)
 RMS occupancy error at iteration   3:  0.000004 (step -0.5000 Ne1=   7192.0000)
            Final RMS occupancy error   :  0.000000 (Ne1=   7192.0000)
               Final occupancy bounds   : [  0.0000,  1.0000]
================================================================================

    6        -1.149326486239E+04     6.4535E-05     5.8370E-05    -6.8490E-02
MG BCs: +ve charge blocks (gridpoints):     31062 (   17341664).
MG BCs: -ve charge blocks (gridpoints):      8270 (    1103521).
MG BCs:     Elided blocks (gridpoints):    162844 (  172525440).
MG BCs: Computational effort saved:  99.9794%.
MG BCs: Charge after coarse-graining:           -9.0009946.
MG DL_MG: Calling solver with defect correction order = 8
MG DL_MG: Solver finished
MG Hartree energy from (\int phi*rho dr):              1420.122593
MG Hartree energy from (\int eps (grad phi)^2 dr):     1419.463331
MG Discrepancy due to finite box and discretization:     -0.659262 (  -0.04642%)
MG Correction to account for finite box:                  0.476955
MG Remaining discrepancy, due to discretization:         -0.182307 (  -0.01284%)
      ideal mu1:      -0.770111627265
             Q0:  -11493.351605163538
             G0:      -0.437930453864
   RMS gradient:       0.000101731459
MG BCs: +ve charge blocks (gridpoints):     31053 (   17345069).
MG BCs: -ve charge blocks (gridpoints):      8261 (    1101715).
MG BCs:     Elided blocks (gridpoints):    162853 (  172523841).
MG BCs: Computational effort saved:  99.9794%.
MG BCs: Charge after coarse-graining:           -9.0009961.
MG DL_MG: Calling solver with defect correction order = 8
MG DL_MG: Solver finished
MG Hartree energy from (\int phi*rho dr):              1425.129983
MG Hartree energy from (\int eps (grad phi)^2 dr):     1424.470977
MG Discrepancy due to finite box and discretization:     -0.659006 (  -0.04624%)
MG Correction to account for finite box:                  0.476929
MG Remaining discrepancy, due to discretization:         -0.182077 (  -0.01278%)
     Trial step:       0.910710326564
             Q1:  -11493.435345751815
 Quadratic coef:       0.315087198373
 Linear coef   :      -0.398827786651
           Qmin:  -11493.477811182242
Quadratic minimum step length (  0.576374707858) accepted
    Initial Ne1:    7191.99999912
      Final Ne1:    7192.00000000

=================== Penalty functional idempotency correction ==================
 RMS occupancy error at iteration   1:  0.000188 (step -0.4874 Ne1=   7192.0000)
 RMS occupancy error at iteration   2:  0.000001 (step -0.5000 Ne1=   7192.0000)
            Final RMS occupancy error   :  0.000000 (Ne1=   7192.0000)
               Final occupancy bounds   : [  0.0000,  1.0000]
================================================================================

    7        -1.149335160516E+04     1.0173E-04     9.2014E-05    -8.6743E-02
MG BCs: +ve charge blocks (gridpoints):     31054 (   17343891).
MG BCs: -ve charge blocks (gridpoints):      8266 (    1102322).
MG BCs:     Elided blocks (gridpoints):    162852 (  172524412).
MG BCs: Computational effort saved:  99.9794%.
MG BCs: Charge after coarse-graining:           -9.0009955.
MG DL_MG: Calling solver with defect correction order = 8
MG DL_MG: Solver finished
MG Hartree energy from (\int phi*rho dr):              1423.278742
MG Hartree energy from (\int eps (grad phi)^2 dr):     1422.619651
MG Discrepancy due to finite box and discretization:     -0.659091 (  -0.04631%)
MG Correction to account for finite box:                  0.476933
MG Remaining discrepancy, due to discretization:         -0.182158 (  -0.01280%)
      ideal mu1:      -0.772055912578
             Q0:  -11493.478299895185
             G0:      -0.271010967401
   RMS gradient:       0.000079903999
MG BCs: +ve charge blocks (gridpoints):     31057 (   17343887).
MG BCs: -ve charge blocks (gridpoints):      8262 (    1102356).
MG BCs:     Elided blocks (gridpoints):    162849 (  172524382).
MG BCs: Computational effort saved:  99.9794%.
MG BCs: Charge after coarse-graining:           -9.0009956.
MG DL_MG: Calling solver with defect correction order = 8
MG DL_MG: Solver finished
MG Hartree energy from (\int phi*rho dr):              1423.282801
MG Hartree energy from (\int eps (grad phi)^2 dr):     1422.623755
MG Discrepancy due to finite box and discretization:     -0.659046 (  -0.04630%)
MG Correction to account for finite box:                  0.477117
MG Remaining discrepancy, due to discretization:         -0.181928 (  -0.01278%)
     Trial step:       0.724507003704
             Q1:  -11493.588884601020
 Quadratic coef:       0.085764638128
 Linear coef   :      -0.196349343963
           Qmin:  -11493.590680317106
Quadratic minimum step length (  0.829342243952) accepted
    Initial Ne1:    7191.99999886
      Final Ne1:    7192.00000000

=================== Penalty functional idempotency correction ==================
 RMS occupancy error at iteration   1:  0.001378 (step -0.4181 Ne1=   7192.0000)
 RMS occupancy error at iteration   2:  0.000053 (step -0.4973 Ne1=   7192.0000)
 RMS occupancy error at iteration   3:  0.000000 (step -0.5000 Ne1=   7192.0000)
            Final RMS occupancy error   :  0.000000 (Ne1=   7192.0000)
               Final occupancy bounds   : [  0.0000,  1.0000]
================================================================================

    8        -1.149347829990E+04     7.9904E-05     7.2271E-05    -1.2669E-01
MG BCs: +ve charge blocks (gridpoints):     31059 (   17343901).
MG BCs: -ve charge blocks (gridpoints):      8261 (    1102392).
MG BCs:     Elided blocks (gridpoints):    162847 (  172524332).
MG BCs: Computational effort saved:  99.9794%.
MG BCs: Charge after coarse-graining:           -9.0009956.
MG DL_MG: Calling solver with defect correction order = 8
MG DL_MG: Solver finished
MG Hartree energy from (\int phi*rho dr):              1423.287490
MG Hartree energy from (\int eps (grad phi)^2 dr):     1422.628453
MG Discrepancy due to finite box and discretization:     -0.659037 (  -0.04630%)
MG Correction to account for finite box:                  0.477141
MG Remaining discrepancy, due to discretization:         -0.181896 (  -0.01278%)
      ideal mu1:      -0.771886157134
             Q0:  -11493.589582085842
             G0:      -0.240616248826
   RMS gradient:       0.000075632196
MG BCs: +ve charge blocks (gridpoints):     31049 (   17342538).
MG BCs: -ve charge blocks (gridpoints):      8268 (    1102988).
MG BCs:     Elided blocks (gridpoints):    162857 (  172525099).
MG BCs: Computational effort saved:  99.9794%.
MG BCs: Charge after coarse-graining:           -9.0009954.
MG DL_MG: Calling solver with defect correction order = 8
MG DL_MG: Solver finished
MG Hartree energy from (\int phi*rho dr):              1421.557929
MG Hartree energy from (\int eps (grad phi)^2 dr):     1420.898601
MG Discrepancy due to finite box and discretization:     -0.659328 (  -0.04638%)
MG Correction to account for finite box:                  0.477529
MG Remaining discrepancy, due to discretization:         -0.181799 (  -0.01279%)
     Trial step:       0.775154348637
             Q1:  -11493.663516224013
 Quadratic coef:       0.112580593459
 Linear coef   :      -0.186514731630
           Qmin:  -11493.666832844712
Quadratic minimum step length (  0.642107582070) accepted
    Initial Ne1:    7191.99999920
      Final Ne1:    7192.00000000

=================== Penalty functional idempotency correction ==================
 RMS occupancy error at iteration   1:  0.002662 (step -0.3661 Ne1=   7192.0000)
 RMS occupancy error at iteration   2:  0.000158 (step -0.4915 Ne1=   7192.0000)
 RMS occupancy error at iteration   3:  0.000002 (step -0.5000 Ne1=   7192.0000)
            Final RMS occupancy error   :  0.000000 (Ne1=   7192.0000)
               Final occupancy bounds   : [  0.0000,  1.0000]
================================================================================

    9        -1.149358958209E+04     7.5632E-05     6.8408E-05    -1.1128E-01
MG BCs: +ve charge blocks (gridpoints):     31050 (   17342757).
MG BCs: -ve charge blocks (gridpoints):      8269 (    1102895).
MG BCs:     Elided blocks (gridpoints):    162856 (  172524973).
MG BCs: Computational effort saved:  99.9794%.
MG BCs: Charge after coarse-graining:           -9.0009954.
MG DL_MG: Calling solver with defect correction order = 8
MG DL_MG: Solver finished
MG Hartree energy from (\int phi*rho dr):              1421.851202
MG Hartree energy from (\int eps (grad phi)^2 dr):     1421.191942
MG Discrepancy due to finite box and discretization:     -0.659261 (  -0.04637%)
MG Correction to account for finite box:                  0.477450
MG Remaining discrepancy, due to discretization:         -0.181810 (  -0.01279%)
      ideal mu1:      -0.770598748353
   10        -1.149367140113E+04     5.6478E-05     5.1083E-05    -8.1819E-02
Finished density kernel iterations (  10)

Writing density kernel to file "host_24801.vacuum_dkn" ... done


>>> Density kernel optimised for the current NGWF basis:
     ~~~~~~~~~~~~~~~~~~~~~~~~~~~~~~~~~~~~~~~~~~~~~~~~~~~~~~~~~~~
     Total energy                =  -1.14936714011270E+04  Eh
     Estimated bandgap           =  -3.5681E-01  Eh
     RMS occupancy error         =   4.2811E-10
     [H,K] commutator            =   5.1083E-05
     Occupancy bounds            = [  0.000:  1.000]
     ~~~~~~~~~~~~~~~~~~~~~~~~~~~~~~~~~~~~~~~~~~~~~~~~~~~~~~~~~~~




################################################################################
########################### NGWF CG iteration  001 #############################
################################################################################
****** Reciprocal space K.E. preconditioning with k_zero =  3.5000 a0^-1 *******

>>> Checking for convergence of NGWFs:   NOT CONVERGED
  ========================================================================
         NGWF RMS gradient =  1.6170E-03 >  2.0000E-06  | above tolerance
  ========================================================================

>>> Improving NGWFs using line search:
============ Calculation of NGWF S^-1 using Hotelling algorithm ================ 
         Iteration  |  Frobenius norm and Maximum abs value    (of I-S*S_n^-1)   
               1       0.20075358E+00     0.52506893E-02
               2       0.93005985E-03     0.39945605E-04
               3       0.33593888E-07     0.23904514E-08
               4       0.12747329E-12     0.63282712E-14
================================================================================
MG BCs: +ve charge blocks (gridpoints):     30569 (   17283851).
MG BCs: -ve charge blocks (gridpoints):      8278 (    1102110).
MG BCs:     Elided blocks (gridpoints):    163340 (  172584664).
MG BCs: Computational effort saved:  99.9797%.
MG BCs: Charge after coarse-graining:           -9.0009973.
MG DL_MG: Calling solver with defect correction order = 8
MG DL_MG: Solver finished
MG Hartree energy from (\int phi*rho dr):              1389.145891
MG Hartree energy from (\int eps (grad phi)^2 dr):     1388.487484
MG Discrepancy due to finite box and discretization:     -0.658407 (  -0.04740%)
MG Correction to account for finite box:                  0.477359
MG Remaining discrepancy, due to discretization:         -0.181048 (  -0.01303%)
============ Calculation of NGWF S^-1 using Hotelling algorithm ================ 
         Iteration  |  Frobenius norm and Maximum abs value    (of I-S*S_n^-1)   
               1       0.19032961E+01     0.42515708E-01
               2       0.75120681E-01     0.23963177E-02
               3       0.15662629E-03     0.93506717E-05
               4       0.12161807E-08     0.16501905E-09
               5       0.10935088E-12     0.48849813E-14
================================================================================
------------------------------- NGWF line search -------------------------------
RMS gradient                =       0.00161696673273
Trial step length           =               0.122474
Gradient along search dir.  =       -285.53691723341
Functional at step 0        =  -11493.67140112700872
Functional at step 1        =  -11525.99566488259006
Functional predicted        =  -11609.18874311450963
Selected quadratic step     =               0.809124
--------------------------- NGWF line search finished --------------------------
                                               
Writing NGWFs to file "host_24801.vacuum_tightbox_ngwfs"....  done

>>> Optimising kernel for current NGWFs:
   Initial electron number for spin 1:    7229.32083405
     Final electron number for spin 1:    7192.00000000

=================== Penalty functional idempotency correction ==================
 RMS occupancy error at iteration   1:  0.004423 (step -0.4861 Ne1=   7192.0000)
 RMS occupancy error at iteration   2:  0.000070 (step -0.5003 Ne1=   7192.0000)
            Final RMS occupancy error   :  0.000000 (Ne1=   7192.0000)
               Final occupancy bounds   : [  0.0000,  1.0000]
================================================================================

................................................................................
<<<<<<<<<<<<<< LNV (Original version) density kernel optimisation >>>>>>>>>>>>>>
~~~~~~~~~~~~~~~~~~~~~~~~~~~~~~~~~~~~~~~~~~~~~~~~~~~~~~~~~~~~~~~~~~~~~~~~~~~~~~~~
   iter  |      energy (Eh)       | rms gradient |  commutator  |   dE (Eh)
MG BCs: +ve charge blocks (gridpoints):     24818 (   17021884).
MG BCs: -ve charge blocks (gridpoints):      8437 (    1082468).
MG BCs:     Elided blocks (gridpoints):    169096 (  172866273).
MG BCs: Computational effort saved:  99.9826%.
MG BCs: Charge after coarse-graining:           -9.0006539.
MG DL_MG: Calling solver with defect correction order = 8
MG DL_MG: Solver finished
MG Hartree energy from (\int phi*rho dr):              1229.553245
MG Hartree energy from (\int eps (grad phi)^2 dr):     1228.894756
MG Discrepancy due to finite box and discretization:     -0.658489 (  -0.05356%)
MG Correction to account for finite box:                  0.476943
MG Remaining discrepancy, due to discretization:         -0.181545 (  -0.01477%)
      ideal mu1:      -0.707955054402
             Q0:  -11608.226321731694
             G0:     -10.388747143251
   RMS gradient:       0.000495489308
MG BCs: +ve charge blocks (gridpoints):     24897 (   17048657).
MG BCs: -ve charge blocks (gridpoints):      8412 (    1074514).
MG BCs:     Elided blocks (gridpoints):    169017 (  172847454).
MG BCs: Computational effort saved:  99.9826%.
MG BCs: Charge after coarse-graining:           -9.0006480.
MG DL_MG: Calling solver with defect correction order = 8
MG DL_MG: Solver finished
MG Hartree energy from (\int phi*rho dr):              1251.988614
MG Hartree energy from (\int eps (grad phi)^2 dr):     1251.325589
MG Discrepancy due to finite box and discretization:     -0.663025 (  -0.05296%)
MG Correction to account for finite box:                  0.475787
MG Remaining discrepancy, due to discretization:         -0.187238 (  -0.01496%)
     Trial step:       0.705501583652
             Q1:  -11607.828475700226
 Quadratic coef:       7.727123593188
 Linear coef   :      -7.329277561719
           Qmin:  -11609.964300584008
Quadratic minimum step length (  0.334588729199) accepted
    Initial Ne1:    7191.99958515
      Final Ne1:    7192.00000000

=================== Penalty functional idempotency correction ==================
 RMS occupancy error at iteration   1:  0.000379 (step -0.4985 Ne1=   7192.0000)
 RMS occupancy error at iteration   2:  0.000000 (step -0.5000 Ne1=   7192.0000)
            Final RMS occupancy error   :  0.000000 (Ne1=   7192.0000)
               Final occupancy bounds   : [  0.0000,  1.0000]
================================================================================

    1        -1.160822632173E+04     4.9549E-04     4.4816E-04
MG BCs: +ve charge blocks (gridpoints):     24850 (   17034479).
MG BCs: -ve charge blocks (gridpoints):      8425 (    1078822).
MG BCs:     Elided blocks (gridpoints):    169064 (  172857324).
MG BCs: Computational effort saved:  99.9826%.
MG BCs: Charge after coarse-graining:           -9.0006512.
MG DL_MG: Calling solver with defect correction order = 8
MG DL_MG: Solver finished
MG Hartree energy from (\int phi*rho dr):              1239.238594
MG Hartree energy from (\int eps (grad phi)^2 dr):     1238.578068
MG Discrepancy due to finite box and discretization:     -0.660526 (  -0.05330%)
MG Correction to account for finite box:                  0.476354
MG Remaining discrepancy, due to discretization:         -0.184172 (  -0.01486%)
      ideal mu1:      -0.716832647929
             Q0:  -11609.937446581782
             G0:      -1.062845316914
   RMS gradient:       0.000159114793
MG BCs: +ve charge blocks (gridpoints):     24856 (   17035670).
MG BCs: -ve charge blocks (gridpoints):      8422 (    1078985).
MG BCs:     Elided blocks (gridpoints):    169058 (  172855970).
MG BCs: Computational effort saved:  99.9826%.
MG BCs: Charge after coarse-graining:           -9.0006509.
MG DL_MG: Calling solver with defect correction order = 8
MG DL_MG: Solver finished
MG Hartree energy from (\int phi*rho dr):              1241.055808
MG Hartree energy from (\int eps (grad phi)^2 dr):     1240.395038
MG Discrepancy due to finite box and discretization:     -0.660770 (  -0.05324%)
MG Correction to account for finite box:                  0.476283
MG Remaining discrepancy, due to discretization:         -0.184487 (  -0.01487%)
     Trial step:       0.485852733163
             Q1:  -11610.160338198533
 Quadratic coef:       0.293494685400
 Linear coef   :      -0.516386302152
           Qmin:  -11610.164584266307
Quadratic minimum step length (  0.427414377072) accepted
    Initial Ne1:    7191.99994534
      Final Ne1:    7192.00000000

=================== Penalty functional idempotency correction ==================
 RMS occupancy error at iteration   1:  0.000157 (step -0.4993 Ne1=   7192.0000)
 RMS occupancy error at iteration   2:  0.000000 (step -0.5000 Ne1=   7192.0000)
            Final RMS occupancy error   :  0.000000 (Ne1=   7192.0000)
               Final occupancy bounds   : [  0.0000,  1.0000]
================================================================================

    2        -1.160993744658E+04     1.5911E-04     1.4392E-04    -1.7111E+00
MG BCs: +ve charge blocks (gridpoints):     24855 (   17035567).
MG BCs: -ve charge blocks (gridpoints):      8422 (    1078965).
MG BCs:     Elided blocks (gridpoints):    169059 (  172856093).
MG BCs: Computational effort saved:  99.9826%.
MG BCs: Charge after coarse-graining:           -9.0006509.
MG DL_MG: Calling solver with defect correction order = 8
MG DL_MG: Solver finished
MG Hartree energy from (\int phi*rho dr):              1240.836848
MG Hartree energy from (\int eps (grad phi)^2 dr):     1240.176109
MG Discrepancy due to finite box and discretization:     -0.660739 (  -0.05325%)
MG Correction to account for finite box:                  0.476292
MG Remaining discrepancy, due to discretization:         -0.184448 (  -0.01486%)
      ideal mu1:      -0.718100855283
             Q0:  -11610.165096907760
             G0:      -0.177796322674
   RMS gradient:       0.000064750689
MG BCs: +ve charge blocks (gridpoints):     24856 (   17034288).
MG BCs: -ve charge blocks (gridpoints):      8421 (    1079585).
MG BCs:     Elided blocks (gridpoints):    169058 (  172856752).
MG BCs: Computational effort saved:  99.9826%.
MG BCs: Charge after coarse-graining:           -9.0006510.
MG DL_MG: Calling solver with defect correction order = 8
MG DL_MG: Solver finished
MG Hartree energy from (\int phi*rho dr):              1240.029983
MG Hartree energy from (\int eps (grad phi)^2 dr):     1239.369337
MG Discrepancy due to finite box and discretization:     -0.660646 (  -0.05328%)
MG Correction to account for finite box:                  0.476214
MG Remaining discrepancy, due to discretization:         -0.184433 (  -0.01487%)
     Trial step:       0.455697754321
             Q1:  -11610.220749314176
 Quadratic coef:       0.025368978553
 Linear coef   :      -0.081021384969
           Qmin:  -11610.229786788834
Quadratic minimum step length (  0.727685253568) accepted
    Initial Ne1:    7191.99998459
      Final Ne1:    7192.00000000

=================== Penalty functional idempotency correction ==================
 RMS occupancy error at iteration   1:  0.000141 (step -0.4953 Ne1=   7192.0000)
 RMS occupancy error at iteration   2:  0.000001 (step -0.5000 Ne1=   7192.0000)
            Final RMS occupancy error   :  0.000000 (Ne1=   7192.0000)
               Final occupancy bounds   : [  0.0000,  1.0000]
================================================================================

    3        -1.161016509691E+04     6.4751E-05     5.8566E-05    -2.2765E-01
MG BCs: +ve charge blocks (gridpoints):     24854 (   17033527).
MG BCs: -ve charge blocks (gridpoints):      8421 (    1079958).
MG BCs:     Elided blocks (gridpoints):    169060 (  172857140).
MG BCs: Computational effort saved:  99.9826%.
MG BCs: Charge after coarse-graining:           -9.0006512.
MG DL_MG: Calling solver with defect correction order = 8
MG DL_MG: Solver finished
MG Hartree energy from (\int phi*rho dr):              1239.548181
MG Hartree energy from (\int eps (grad phi)^2 dr):     1238.887592
MG Discrepancy due to finite box and discretization:     -0.660590 (  -0.05329%)
MG Correction to account for finite box:                  0.476165
MG Remaining discrepancy, due to discretization:         -0.184425 (  -0.01488%)
      ideal mu1:      -0.716707464796
             Q0:  -11610.229887920781
             G0:      -0.062347498115
   RMS gradient:       0.000038333654
MG BCs: +ve charge blocks (gridpoints):     24853 (   17033774).
MG BCs: -ve charge blocks (gridpoints):      8422 (    1079847).
MG BCs:     Elided blocks (gridpoints):    169061 (  172857004).
MG BCs: Computational effort saved:  99.9826%.
MG BCs: Charge after coarse-graining:           -9.0006511.
MG DL_MG: Calling solver with defect correction order = 8
MG DL_MG: Solver finished
MG Hartree energy from (\int phi*rho dr):              1239.717389
MG Hartree energy from (\int eps (grad phi)^2 dr):     1239.056986
MG Discrepancy due to finite box and discretization:     -0.660403 (  -0.05327%)
MG Correction to account for finite box:                  0.476105
MG Remaining discrepancy, due to discretization:         -0.184297 (  -0.01487%)
     Trial step:       0.575851140403
             Q1:  -11610.251994485385
 Quadratic coef:       0.013796313287
 Linear coef   :      -0.035902877891
           Qmin:  -11610.253245911679
Quadratic minimum step length (  0.749283984290) accepted
    Initial Ne1:    7191.99999434
      Final Ne1:    7192.00000000

=================== Penalty functional idempotency correction ==================
 RMS occupancy error at iteration   1:  0.000204 (step -0.4888 Ne1=   7192.0000)
 RMS occupancy error at iteration   2:  0.000001 (step -0.5000 Ne1=   7192.0000)
            Final RMS occupancy error   :  0.000000 (Ne1=   7192.0000)
               Final occupancy bounds   : [  0.0000,  1.0000]
================================================================================

    4        -1.161022988792E+04     3.8334E-05     3.4672E-05    -6.4791E-02
MG BCs: +ve charge blocks (gridpoints):     24854 (   17033871).
MG BCs: -ve charge blocks (gridpoints):      8423 (    1079799).
MG BCs:     Elided blocks (gridpoints):    169060 (  172856955).
MG BCs: Computational effort saved:  99.9826%.
MG BCs: Charge after coarse-graining:           -9.0006511.
MG DL_MG: Calling solver with defect correction order = 8
MG DL_MG: Solver finished
MG Hartree energy from (\int phi*rho dr):              1239.769215
MG Hartree energy from (\int eps (grad phi)^2 dr):     1239.108871
MG Discrepancy due to finite box and discretization:     -0.660345 (  -0.05326%)
MG Correction to account for finite box:                  0.476085
MG Remaining discrepancy, due to discretization:         -0.184259 (  -0.01486%)
      ideal mu1:      -0.717014860963
             Q0:  -11610.253229247755
             G0:      -0.057005009332
   RMS gradient:       0.000036693790
MG BCs: +ve charge blocks (gridpoints):     24852 (   17035095).
MG BCs: -ve charge blocks (gridpoints):      8424 (    1079386).
MG BCs:     Elided blocks (gridpoints):    169062 (  172856144).
MG BCs: Computational effort saved:  99.9826%.
MG BCs: Charge after coarse-graining:           -9.0006508.
MG DL_MG: Calling solver with defect correction order = 8
MG DL_MG: Solver finished
MG Hartree energy from (\int phi*rho dr):              1240.597156
MG Hartree energy from (\int eps (grad phi)^2 dr):     1239.937055
MG Discrepancy due to finite box and discretization:     -0.660101 (  -0.05321%)
MG Correction to account for finite box:                  0.475921
MG Remaining discrepancy, due to discretization:         -0.184180 (  -0.01485%)
     Trial step:       0.656868355791
             Q1:  -11610.276599190896
 Quadratic coef:       0.014074843610
 Linear coef   :      -0.037444786752
           Qmin:  -11610.278133823851
Quadratic minimum step length (  0.873767985936) accepted
    Initial Ne1:    7191.99999377
      Final Ne1:    7192.00000000

=================== Penalty functional idempotency correction ==================
 RMS occupancy error at iteration   1:  0.000745 (step -0.4591 Ne1=   7192.0000)
 RMS occupancy error at iteration   2:  0.000008 (step -0.5000 Ne1=   7192.0000)
            Final RMS occupancy error   :  0.000000 (Ne1=   7192.0000)
               Final occupancy bounds   : [  0.0000,  1.0000]
================================================================================

    5        -1.161025322925E+04     3.6694E-05     3.3189E-05    -2.3341E-02
MG BCs: +ve charge blocks (gridpoints):     24852 (   17035529).
MG BCs: -ve charge blocks (gridpoints):      8423 (    1079251).
MG BCs:     Elided blocks (gridpoints):    169062 (  172855845).
MG BCs: Computational effort saved:  99.9826%.
MG BCs: Charge after coarse-graining:           -9.0006507.
MG DL_MG: Calling solver with defect correction order = 8
MG DL_MG: Solver finished
MG Hartree energy from (\int phi*rho dr):              1240.872126
MG Hartree energy from (\int eps (grad phi)^2 dr):     1240.212108
MG Discrepancy due to finite box and discretization:     -0.660019 (  -0.05319%)
MG Correction to account for finite box:                  0.475865
MG Remaining discrepancy, due to discretization:         -0.184154 (  -0.01484%)
      ideal mu1:      -0.718167229309
             Q0:  -11610.278026728658
             G0:      -0.057515608509
   RMS gradient:       0.000036706843
MG BCs: +ve charge blocks (gridpoints):     24853 (   17035070).
MG BCs: -ve charge blocks (gridpoints):      8425 (    1079503).
MG BCs:     Elided blocks (gridpoints):    169061 (  172856052).
MG BCs: Computational effort saved:  99.9826%.
MG BCs: Charge after coarse-graining:           -9.0006508.
MG DL_MG: Calling solver with defect correction order = 8
MG DL_MG: Solver finished
MG Hartree energy from (\int phi*rho dr):              1240.437507
MG Hartree energy from (\int eps (grad phi)^2 dr):     1239.777797
MG Discrepancy due to finite box and discretization:     -0.659710 (  -0.05318%)
MG Correction to account for finite box:                  0.475548
MG Remaining discrepancy, due to discretization:         -0.184162 (  -0.01485%)
     Trial step:       0.757595235112
             Q1:  -11610.306096842629
 Quadratic coef:       0.015503436980
 Linear coef   :      -0.043573550951
           Qmin:  -11610.308643396835
Quadratic minimum step length (  1.064638590131) accepted
    Initial Ne1:    7191.99998805
      Final Ne1:    7192.00000000

=================== Penalty functional idempotency correction ==================
 RMS occupancy error at iteration   1:  0.002409 (step -0.3881 Ne1=   7192.0000)
 RMS occupancy error at iteration   2:  0.000064 (step -0.4990 Ne1=   7192.0000)
 RMS occupancy error at iteration   3:  0.000000 (step -0.5000 Ne1=   7192.0000)
            Final RMS occupancy error   :  0.000000 (Ne1=   7192.0000)
               Final occupancy bounds   : [  0.0000,  1.0000]
================================================================================

    6        -1.161027802673E+04     3.6707E-05     3.3200E-05    -2.4797E-02
MG BCs: +ve charge blocks (gridpoints):     24852 (   17034846).
MG BCs: -ve charge blocks (gridpoints):      8424 (    1079621).
MG BCs:     Elided blocks (gridpoints):    169062 (  172856158).
MG BCs: Computational effort saved:  99.9826%.
MG BCs: Charge after coarse-graining:           -9.0006508.
MG DL_MG: Calling solver with defect correction order = 8
MG DL_MG: Solver finished
MG Hartree energy from (\int phi*rho dr):              1240.265381
MG Hartree energy from (\int eps (grad phi)^2 dr):     1239.605766
MG Discrepancy due to finite box and discretization:     -0.659614 (  -0.05318%)
MG Correction to account for finite box:                  0.475450
MG Remaining discrepancy, due to discretization:         -0.184165 (  -0.01485%)
      ideal mu1:      -0.718046606910
             Q0:  -11610.309352417360
             G0:      -0.063104461100
   RMS gradient:       0.000038617373
MG BCs: +ve charge blocks (gridpoints):     24855 (   17034323).
MG BCs: -ve charge blocks (gridpoints):      8422 (    1079647).
MG BCs:     Elided blocks (gridpoints):    169059 (  172856655).
MG BCs: Computational effort saved:  99.9826%.
MG BCs: Charge after coarse-graining:           -9.0006510.
MG DL_MG: Calling solver with defect correction order = 8
MG DL_MG: Solver finished
MG Hartree energy from (\int phi*rho dr):              1239.954426
MG Hartree energy from (\int eps (grad phi)^2 dr):     1239.294736
MG Discrepancy due to finite box and discretization:     -0.659690 (  -0.05320%)
MG Correction to account for finite box:                  0.475466
MG Remaining discrepancy, due to discretization:         -0.184224 (  -0.01486%)
     Trial step:       0.898089707657
             Q1:  -11610.325025617960
 Quadratic coef:       0.041000266421
 Linear coef   :      -0.056673467021
           Qmin:  -11610.328936935612
Quadratic minimum step length (  0.620701545032) accepted
    Initial Ne1:    7191.99999998
      Final Ne1:    7192.00000000

=================== Penalty functional idempotency correction ==================
 RMS occupancy error at iteration   1:  0.000033 (step -0.4981 Ne1=   7192.0000)
            Final RMS occupancy error   :  0.000000 (Ne1=   7192.0000)
               Final occupancy bounds   : [ -0.0000,  1.0000]
================================================================================

    7        -1.161030935242E+04     3.8617E-05     3.4929E-05    -3.1326E-02
MG BCs: +ve charge blocks (gridpoints):     24855 (   17034499).
MG BCs: -ve charge blocks (gridpoints):      8424 (    1079645).
MG BCs:     Elided blocks (gridpoints):    169059 (  172856481).
MG BCs: Computational effort saved:  99.9826%.
MG BCs: Charge after coarse-graining:           -9.0006509.
MG DL_MG: Calling solver with defect correction order = 8
[...]
MG Correction to account for finite box:                  0.006451
MG Remaining discrepancy, due to discretization:         -0.183398 (  -0.01531%)
     Trial step:       0.298026257497
             Q1:  -11645.915970119298
 Quadratic coef:       0.000000000546
 Linear coef   :      -0.000000000313
           Qmin:  -11645.915970119577
Quadratic minimum step length (  0.085559691281) accepted
    Initial Ne1:    7192.00000000
      Final Ne1:    7192.00000000

=================== Penalty functional idempotency correction ==================
 RMS occupancy error at iteration   1:  0.000000 (step -0.5000 Ne1=   7192.0000)
            Final RMS occupancy error   :  0.000000 (Ne1=   7192.0000)
               Final occupancy bounds   : [ -0.0000,  1.0000]
================================================================================

    7        -1.164591597012E+04     4.9845E-09     4.5084E-09     0.0000E+00

Reusing previously generated solute cavity.
MG BCs: +ve charge blocks (gridpoints):     28789 (   19216521).
MG BCs: -ve charge blocks (gridpoints):      8403 (    1046602).
MG BCs:     Elided blocks (gridpoints):    165125 (  170707502).
MG BCs: Computational effort saved:  99.9805%.
MG BCs: Charge after coarse-graining:           -9.0009415.
MG DL_MG: Calling solver with defect correction order = 8
MG DL_MG: Solver finished
MG Hartree energy from (\int phi*rho dr):              1197.581507
MG Hartree energy from (\int eps (grad phi)^2 dr):     1197.391658
MG Discrepancy due to finite box and discretization:     -0.189849 (  -0.01585%)
MG Correction to account for finite box:                  0.006451
MG Remaining discrepancy, due to discretization:         -0.183398 (  -0.01531%)
      ideal mu1:      -0.475231654814
             Q0:  -11645.915970119531
             G0:      -0.000000001486
   RMS gradient:       0.000000004339

Reusing previously generated solute cavity.
MG BCs: +ve charge blocks (gridpoints):     28789 (   19216521).
MG BCs: -ve charge blocks (gridpoints):      8403 (    1046602).
MG BCs:     Elided blocks (gridpoints):    165125 (  170707502).
MG BCs: Computational effort saved:  99.9805%.
MG BCs: Charge after coarse-graining:           -9.0009415.
MG DL_MG: Calling solver with defect correction order = 8
MG DL_MG: Solver finished
MG Hartree energy from (\int phi*rho dr):              1197.581509
MG Hartree energy from (\int eps (grad phi)^2 dr):     1197.391660
MG Discrepancy due to finite box and discretization:     -0.189849 (  -0.01585%)
MG Correction to account for finite box:                  0.006451
MG Remaining discrepancy, due to discretization:         -0.183398 (  -0.01531%)
     Trial step:       0.159684171367
             Q1:  -11645.915970119182
 Quadratic coef:       0.000000000586
 Linear coef   :      -0.000000000237
           Qmin:  -11645.915970119555
Quadratic minimum step length (  0.032354096413) accepted
    Initial Ne1:    7192.00000000
      Final Ne1:    7192.00000000

=================== Penalty functional idempotency correction ==================
 RMS occupancy error at iteration   1:  0.000000 (step -0.5000 Ne1=   7192.0000)
            Final RMS occupancy error   :  0.000000 (Ne1=   7192.0000)
               Final occupancy bounds   : [ -0.0000,  1.0000]
================================================================================

    8        -1.164591597012E+04     4.3391E-09     3.9247E-09     0.0000E+00

Reusing previously generated solute cavity.
MG BCs: +ve charge blocks (gridpoints):     28789 (   19216521).
MG BCs: -ve charge blocks (gridpoints):      8403 (    1046602).
MG BCs:     Elided blocks (gridpoints):    165125 (  170707502).
MG BCs: Computational effort saved:  99.9805%.
MG BCs: Charge after coarse-graining:           -9.0009415.
MG DL_MG: Calling solver with defect correction order = 8
MG DL_MG: Solver finished
MG Hartree energy from (\int phi*rho dr):              1197.581507
MG Hartree energy from (\int eps (grad phi)^2 dr):     1197.391658
MG Discrepancy due to finite box and discretization:     -0.189849 (  -0.01585%)
MG Correction to account for finite box:                  0.006451
MG Remaining discrepancy, due to discretization:         -0.183398 (  -0.01531%)
      ideal mu1:      -0.475231654673
             Q0:  -11645.915970119415
             G0:      -0.000000001813
   RMS gradient:       0.000000003982

Reusing previously generated solute cavity.
MG BCs: +ve charge blocks (gridpoints):     28789 (   19216521).
MG BCs: -ve charge blocks (gridpoints):      8403 (    1046602).
MG BCs:     Elided blocks (gridpoints):    165125 (  170707502).
MG BCs: Computational effort saved:  99.9805%.
MG BCs: Charge after coarse-graining:           -9.0009415.
MG DL_MG: Calling solver with defect correction order = 8
MG DL_MG: Solver finished
MG Hartree energy from (\int phi*rho dr):              1197.581508
MG Hartree energy from (\int eps (grad phi)^2 dr):     1197.391659
MG Discrepancy due to finite box and discretization:     -0.189849 (  -0.01585%)
MG Correction to account for finite box:                  0.006451
MG Remaining discrepancy, due to discretization:         -0.183398 (  -0.01531%)
     Trial step:       0.071877931774
             Q1:  -11645.915970119298
 Quadratic coef:       0.000000000247
 Linear coef   :      -0.000000000130
           Qmin:  -11645.915970119431
Quadratic minimum step length (  0.018927500192) accepted
    Initial Ne1:    7192.00000000
      Final Ne1:    7192.00000000

=================== Penalty functional idempotency correction ==================
 RMS occupancy error at iteration   1:  0.000000 (step -0.5000 Ne1=   7192.0000)
            Final RMS occupancy error   :  0.000000 (Ne1=   7192.0000)
               Final occupancy bounds   : [  0.0000,  1.0000]
================================================================================

    9        -1.164591597012E+04     3.9819E-09     3.6016E-09     1.1642E-10

Reusing previously generated solute cavity.
MG BCs: +ve charge blocks (gridpoints):     28789 (   19216521).
MG BCs: -ve charge blocks (gridpoints):      8403 (    1046602).
MG BCs:     Elided blocks (gridpoints):    165125 (  170707502).
MG BCs: Computational effort saved:  99.9805%.
MG BCs: Charge after coarse-graining:           -9.0009415.
MG DL_MG: Calling solver with defect correction order = 8
MG DL_MG: Solver finished
MG Hartree energy from (\int phi*rho dr):              1197.581507
MG Hartree energy from (\int eps (grad phi)^2 dr):     1197.391659
MG Discrepancy due to finite box and discretization:     -0.189849 (  -0.01585%)
MG Correction to account for finite box:                  0.006451
MG Remaining discrepancy, due to discretization:         -0.183398 (  -0.01531%)
      ideal mu1:      -0.475231654510
   10        -1.164591597012E+04     3.7252E-09     3.3693E-09     0.0000E+00
Finished density kernel iterations (  10)

Writing density kernel to file "host_24801.dkn" ... done


>>> Density kernel optimised for the current NGWF basis:
     ~~~~~~~~~~~~~~~~~~~~~~~~~~~~~~~~~~~~~~~~~~~~~~~~~~~~~~~~~~~
     Total energy                =  -1.16459159701194E+04  Eh
     Estimated bandgap           =   9.8938E-02  Eh
     RMS occupancy error         =   2.3223E-16
     [H,K] commutator            =   3.3693E-09
     Occupancy bounds            = [  0.000:  1.000]
     ~~~~~~~~~~~~~~~~~~~~~~~~~~~~~~~~~~~~~~~~~~~~~~~~~~~~~~~~~~~




################################################################################
########################### NGWF CG iteration  005 #############################
################################################################################
****** Reciprocal space K.E. preconditioning with k_zero =  3.5000 a0^-1 *******

>>> Checking for convergence of NGWFs: 
           ........................................................
           |         *** NGWF optimisation converged ***          |
           | RMS NGWF gradient =    0.00000093517435              |
           | Criteria satisfied:                                  |
           | -> RMS NGWF gradient lower than set threshold.       |
           ========================================================

Reusing previously generated solute cavity.
MG BCs: +ve charge blocks (gridpoints):     28789 (   19216521).
MG BCs: -ve charge blocks (gridpoints):      8403 (    1046602).
MG BCs:     Elided blocks (gridpoints):    165125 (  170707502).
MG BCs: Computational effort saved:  99.9805%.
MG BCs: Charge after coarse-graining:           -9.0009415.
MG DL_MG: Calling solver with defect correction order = 8
MG DL_MG: Solver finished
MG Hartree energy from (\int phi*rho dr):              1197.581507
MG Hartree energy from (\int eps (grad phi)^2 dr):     1197.391659
MG Discrepancy due to finite box and discretization:     -0.189849 (  -0.01585%)
MG Correction to account for finite box:                  0.006451
MG Remaining discrepancy, due to discretization:         -0.183398 (  -0.01531%)

================================================================================
           ---------------- ENERGY COMPONENTS (Eh) ----------------
           | Kinetic                    :     8581.01034376943790 |
           | Pseudo. (local,OBC,corr'd) :    -5085.39368254048895 |
           | Pseudopotential (non-local):     1402.84436723486806 |
           | Hartree (molecular)        :     1197.58150732262061 |
           | Exchange-correlation       :    -3328.92725593176419 |
           | Ion-ion (open BC)          :   827478.85482297209091 |
           | Dispersion Correction      :       -4.60509148818432 |
           | Smeared ion non-self corr. :  -827430.77234195591882 |
           | Smeared ion self corr.     :   -14457.16956389741972 |
           | Solvent cavitation energy  :        2.35141650914014 |
           | Solute-solvent dis-rep en. :       -1.69049211383357 |
           | Total                      :   -11645.91597011950034 |
           --------------------------------------------------------
           ------ LOCAL ENERGY COMPONENTS FROM MATRIX TRACES ------
           | Pseudopotential (local)    :    -5085.39368254049532 |
           | Hartree                    :    -2000.64244878954287 |
           --------------------------------------------------------
           Integrated density           :     7191.99999999899319
           Integrated density tr(KS)    :     7192.00000000000000
================================================================================


                        <<<<< CALCULATION SUMMARY >>>>>                         
|ITER|    RMS GRADIENT   |     TOTAL ENERGY    |   step   |     Epredicted              
   0     0.00003887872053 -11645.85773610102478   0.608478 -11645.90795863201129        
   1     0.00000990588249 -11645.91540025128052   0.088244 -11645.91587307888585        
   2     0.00000442511380 -11645.91594903997611   0.016514 -11645.91596669749561        
   3     0.00000200202699 -11645.91596921533346   0.003435 -11645.91596996722001        
   4     0.00000093517435 -11645.91597011941485  <-- CG                                 

=================== Finished the calculation in solvent ========================
= Adjusting the following parameters: 
= read_denskern: F
= read_tightbox_ngwfs: F
= maxit_pen: 0 (restored to user-specified value)
= restart read filename prefix: ""
= restart write filename prefix: ""
================================================================================

================================================================================
IS: Calculation in solvent completed (NGWFs converged).      

Individual components of total energy in solvent:     hartree           kcal/mol
- Usual non-electrostatic DFT terms:    -12844.15840183734144    -8059830.908661
- Electrostatic fixed charge energy:      1197.58150732262061      751493.725504
- Apolar cavitation energy:                  2.35141650914014        1475.536105
- Apolar dispersion-repulsion energy:       -1.69049211383357       -1060.799794
 -------------------------------------------------------------------------------
- Total energy in solvent:              -11645.91597011941485    -7307922.446847

Components of total energy in solvent:                hartree           kcal/mol
- Usual non-electrostatic DFT terms:    -12844.15840183734144    -8059830.908661
- Electrostatic energy:                   1197.58150732262061      751493.725504
- Apolar energy terms:                       0.66092439530656         414.736311
 -------------------------------------------------------------------------------
- Total energy in solvent:              -11645.91597011941485    -7307922.446847

Calculation of free energy of solvation:              hartree           kcal/mol
- Total energy in solvent:         (+)  -11645.91597011941485    -7307922.446847
- Total energy in vacuum:          (-)  -11642.19145660276990    -7305585.279379
 -------------------------------------------------------------------------------
- Total free energy of solvation:           -3.72451351664495       -2337.167467

Components of polar term in f.e. of solvation:        hartree           kcal/mol
- Electrostatic:                            -4.45698027552771       -2796.797288
- Change in nonelectrostatic DFT terms:      0.07154236357746          44.893510
 -------------------------------------------------------------------------------
- Polar term in f.e. of solvation:          -4.38543791195025       -2751.903778

Components of free energy of solvation:               hartree           kcal/mol
- Polar term in f.e. of solvation: (+)      -4.38543791195025       -2751.903778
- Apolar (cavitation, dis., rep.): (+)       0.66092439530656         414.736311
 -------------------------------------------------------------------------------
- Total free energy of solvation:           -3.72451351664369       -2337.167467
================================================================================


------------------------------ TIMING INFORMATION ------------------------------
AVERAGE TIME:   31638.352s on     60 node(s)                                    
TOTAL TIME:     31638.352s on     60 node(s)                                    
================= AVERAGE TIMINGS FROM ALL NODES (CUMULATIVE) ==================
|| TAG                                    #calls    cpu time   %total  Gflops ||
|| work_imbalance                       :     1        0.00s   0.000%  ------ ||
|| sparse_set_to_garbage                :   176        0.03s   0.000%  ------ ||
|| parallel_prepare_fd_halos_request    :  1947        0.03s   0.000%  ------ ||
|| ngwfs_initialise_from_radial         :     1        0.11s   0.000%  ------ ||
|| basis_extract_function_from_box      :  3577        0.16s   0.001%  ------ ||
|| parallel_prepare_fd_halos_satisfy    :  1947        0.69s   0.002%  ------ ||
|| parallel_prepare_fd_halos_alloc      :  1947        1.72s   0.005%  ------ ||
|| pseudopotentials_nonlocal_mat        :    30        2.38s   0.008%  ------ ||
|| openbc_locps_radial                  :     1        3.04s   0.010%  ------ ||
|| density_init_guess_real              :     1        5.03s   0.016%  ------ ||
|| restart_kernel_read                  :     1        5.76s   0.018%  ------ ||
|| restart_ngwfs_tightbox_input         :     1        8.32s   0.026%  ------ ||
|| parallel_prepare_fd_halos_comms_imbal:  1947        8.92s   0.028%  ------ ||
|| parallel_prepare_fd_halos_clear      :  1947       20.01s   0.063%  ------ ||
|| sparse_init                          :     2       22.02s   0.070%  ------ ||
|| projectors_func_ovlp_box             :    30       27.39s   0.087%  ------ ||
|| parallel_prepare_fd_halos_comms_wait :  1947       27.64s   0.087%  ------ ||
|| function_ops_brappd_ketppd           :    30       31.62s   0.100%  ------ ||
|| palser_mano_kernel_optimise          :     1       32.22s   0.102%  ------ ||
|| projectors_init_fftbox_recip         :   142       35.07s   0.111%  ------ ||
|| basis_copy_function_to_box           : 58111       45.08s   0.142%  ------ ||
|| ngwf_gradient_coeffs                 :    16       46.94s   0.148%  ------ ||
|| pseudo_make_structure_factor         :     2       51.66s   0.163%  ------ ||
|| fourier_apply_box_pair               :  5101       53.68s   0.170% 586.108 ||
|| parallel_prepare_fd_halos            :  1947       59.04s   0.187%  ------ ||
|| sparse_embed_hotelling_invert_embed  :    30       74.73s   0.236%  ------ ||
|| restart_kernel_write                 :    17       99.80s   0.315%  ------ ||
|| finite_difference_derivative         :  1947      128.44s   0.406%  ------ ||
|| integrals_kinetic                    :    30      153.05s   0.484%  ------ ||
|| basis_dot_function_with_box          : 8.801M     177.54s   0.561%  ------ ||
|| projectors_gradient_batch            :   112      179.24s   0.567%  ------ ||
|| fourier_apply_cell_backward          :  1299      193.84s   0.613%  89.992 ||
|| sparse_trace                         :  5431      223.01s   0.705%  ------ ||
|| fourier_apply_cell_forward           :  1297      250.60s   0.792%  69.503 ||
|| openbc_locps_on_grid                 :     2      260.50s   0.823%  ------ ||
|| kernel_purify                        :   495      288.65s   0.912%  ------ ||
|| lnv_gradient_norm                    :   160      405.14s   1.281%  ------ ||
|| basis_add_function_to_box            : 18.35M     418.24s   1.322%  ------ ||
|| hamiltonian_energy_components        :     4      502.55s   1.588%  ------ ||
|| xc_energy_potential                  :   324      510.60s   1.614%  ------ ||
|| kernel_fix                           :   160      522.66s   1.652%  ------ ||
|| ngwf_gradient_build_batch            :   112      786.94s   2.487%  ------ ||
|| integrals_locpot_mat_els_batch       :  1183      799.86s   2.528%  ------ ||
|| ngwf_gradient_batch                  :   112     1073.41s   3.393%  ------ ||
|| restart_ngwfs_tightbox_output        :    14     1125.95s   3.559%  ------ ||
|| density_batch_row_sums               :  2261     1181.65s   3.735%  ------ ||
|| ngwf_gradient_lnv                    :    16     1204.40s   3.807%  ------ ||
|| cell_grid_deposit_box_real           : 37197     1365.28s   4.315%  ------ ||
|| cell_grid_extract_box_real           : 40746     1661.02s   5.250%  ------ ||
|| sparse_product                       :  6739     1784.45s   5.640%  ------ ||
|| density_fftbox_deposit_to_cell       : 35207     1979.33s   6.256%  ------ ||
|| potential_apply_to_ngwf_batch        :  1183     3780.74s  11.950%  ------ ||
|| density_fftbox_interpolate_multiply  : 35207     3961.44s  12.521%  ------ ||
|| integrals_locpot_dbl_grid            :   169     4602.62s  14.548%  ------ ||
|| multigrid_prepare_bound_cond         :   324     4624.85s  14.618%  ------ ||
|| fourier_apply_box                    : 121.3k    4849.60s  15.328% 747.364 ||
|| density_batch_interp_deposit         :  2261     6823.77s  21.568%  ------ ||
|| dl_mg_solver_calls                   :   324     7488.53s  23.669%  ------ ||
|| density_on_dbl_grid                  :   323     8334.18s  26.342%  ------ ||
|| multigrid_calculate_hartree          :   324    12292.78s  38.854%  ------ ||
|| hamiltonian_lhxc_calculate           :   319    21104.43s  66.705%  ------ ||
|| lnv_denskernel_optimise_cg           :    16    26581.11s  84.015%  ------ ||
|| ngwf_cg_optimise                     :     2    30731.68s  97.134%  ------ ||
|| total_time                           :     1    31638.35s 100.000%  ------ ||
================================================================================
Overhead of generating timer report: 
- 0 ms averaging over threads,
- 15 ms ensuring consistency across MPI ranks,
- 0 ms printing in order.

Job completed: 31-12-2019 18:21 (-0000)

Application 38515243 resources: utime ~6621715s, stime ~227589s, Rss ~3808484, inblocks ~313604707, outblocks ~67339270
