      -----------------------------------------------------------      
     |                   =====================                   |     
     |                           x T B                           |     
     |                   =====================                   |     
     |                         S. Grimme                         |     
     |          Mulliken Center for Theoretical Chemistry        |     
     |                    University of Bonn                     |     
      -----------------------------------------------------------      

   * xtb version 6.2.3 (d7bf61a) compiled by 'conda@06d140edd85e' on 2020-05-12

   xtb is free software: you can redistribute it and/or modify it under
   the terms of the GNU Lesser General Public License as published by
   the Free Software Foundation, either version 3 of the License, or
   (at your option) any later version.
   
   xtb is distributed in the hope that it will be useful,
   but WITHOUT ANY WARRANTY; without even the implied warranty of
   MERCHANTABILITY or FITNESS FOR A PARTICULAR PURPOSE.  See the
   GNU Lesser General Public License for more details.
   
   Cite this work as:
   * S. Grimme, C. Bannwarth, P. Shushkov, J. Chem. Theory Comput., 2017,
     13, 1989-2009. DOI: 10.1021/acs.jctc.7b00118
   * C. Bannwarth, S. Ehlert and S. Grimme., J. Chem. Theory Comput., 2019,
     15, 1652-1671. DOI: 10.1021/acs.jctc.8b01176
   * P. Pracht, E. Caldeweyher, S. Ehlert, S. Grimme, ChemRxiv, 2019, preprint.
     DOI: 10.26434/chemrxiv.8326202.v1
   
   for DFT-D4:
   * E. Caldeweyher, C. Bannwarth and S. Grimme, J. Chem. Phys., 2017,
     147, 034112. DOI: 10.1063/1.4993215
   * E. Caldeweyher, S. Ehlert, A. Hansen, H. Neugebauer, S. Spicher,
     C. Bannwarth and S. Grimme, J. Chem. Phys., 2019, 150, 154122.
     DOI: 10.1063/1.5090222
   
   for sTDA-xTB:
   * S. Grimme and C. Bannwarth, J. Chem. Phys., 2016, 145, 054103.
     DOI: 10.1063/1.4959605
   
   in the mass-spec context:
   * V. Asgeirsson, C. Bauer and S. Grimme, Chem. Sci., 2017, 8, 4879.
     DOI: 10.1039/c7sc00601b
   
   for metadynamics refer to:
   * S. Grimme, J. Chem. Theory Comput., 2019, 155, 2847-2862
     DOI: 10.1021/acs.jctc.9b00143
   
   with help from (in alphabetical order)
   C. Bannwarth, F. Bohle, G. Brandenburg, E. Caldeweyher, M. Checinski,
   S. Dohm, S. Ehlert, S. Ehrlich, F. März, H. Neugebauer, J. Pisarek,
   P. Pracht, P. Shushkov, and S. Spicher.
   
 * started run on 2020/06/09 at 13:45:51.524     

           -------------------------------------------------
          |                Calculation Setup                |
           -------------------------------------------------

          program call               : xtb complex_32021.xyz --chrg +9 --uhf 0 --gbsa water
          hostname                   : gold58.cluster.local
          coordinate file            : complex_32021.xyz
          omp threads                :                    64
          number of atoms            :                  2616
          number of electrons        :                  7234
          charge                     :                     9
          spin                       :                   0.0
          first test random number   :      0.78992780486206


molecular fragmentation (1/2 indicates fragments):
111111111111111111111111111111111111111111111111111111111111111111111111
111111111111111111111111111111111111111111111111111111111111111111111111
111111111111111111111111111111111111111111111111111111111111111111111111
111111111111111111111111111111111111111111111111111111111111111111111111
111111111111111111111111111111111111111111111111111111111111111111111111
111111111111111111111111111111111111111111111111111111111111111111111111
111111111111111111111111111111111111111111111111111111111111111111111111
111111111111111111111111111111111111111111111111111111111111111111111111
111111111111111111111111111111111111111111111111111111111111111111111111
111111111111111111111111111111111111111111111111111111111111111111111111
111111111111111111111111111111111111111111111111111111111111111111111111
111111111111111111111111111111111111111111111111111111111111111111111111
111111111111111111111111111111111111111111111111111111111111111111111111
111111111111111111111111111111111111111111111111111111111111111111111111
111111111111111111111111111111111111111111111111111111111111111111111111
111111111111111111111111111111111111111111111111111111111111111111111111
111111111111111111111111111111111111111111111111111111111111111111111111
111111111111111111111111111111111111111111111111111111111111111111111111
111111111111111111111111111111111111111111111111111111111111111111111111
111111111111111111111111111111111111111111111111111111111111111111111111
111111111111111111111111111111111111111111111111111111111111111111111111
111111111111111111111111111111111111111111111111111111111111111111111111
111111111111111111111111111111111111111111111111111111111111111111111111
111111111111111111111111111111111111111111111111111111111111111111111111
111111111111111111111111111111111111111111111111111111111111111111111111
111111111111111111111111111111111111111111111111111111111111111111111111
111111111111111111111111111111111111111111111111111111111111111111111111
111111111111111111111111111111111111111111111111111111111111111111111111
111111111111111111111111111111111111111111111111111111111111111111111111
111111111111111111111111111111111111111111111111111111111111111111111111
111111111111111111111111111111111111111111111111111111111111111111111111
111111111111111111111111111111111111111111111111111111111111111111111111
111111111111111111111111111111111111111111111111111111111111111111111111
111111111111111111111111111111111111111111111111111111111111111111111111
111111111111111111111111111111111111111111111111111111111111111111111111
111111111111111111111111111111111111111111111111111111111111111111111111
111111111122222222222222
# atoms in fragment 1/2:  2602    14
 fragment masses (1/2) :    18371.93      111.12
CMA distance (Bohr)    :  21.322
constraining FC (au)   :  0.0500
########################################################################
[WARNING] Please study the warnings concerning your input carefully
-2- prog_main: XTBPATH is not set, using XTBHOME instead
-1- prog_main: XTBHOME is not set, using HOME instead
########################################################################
           ------------------------------------------------- 
          |                 G F N 2 - x T B                 |
          | Geometry, Frequencies, Noncovalent interactions |
          |            JCTC 2019 parametrisation            |
           ------------------------------------------------- 
             k(s)              :                1.8500
             k(p)              :                2.2300
             k(d)              :                2.2300
             k(f)              :                2.0000
             kEN (H0ij)        :               -2.0000
             D4 a1             :                0.5200
             D4 a2             :                5.0000
             D4 s6             :                1.0000
             D4 s8             :                2.7000
             D4 s9             :                5.0000
             alphaj            :                2.0000

  Z AO/shell   Hii/eV     exponent
  1     Wed Apr 25 08:07:45 CEST 2018   EN: 2.200 GM2: 0.406  GM3: 0.0800  RAES: 1.40
     1s    -10.707211    1.230000
  6     Wed Apr 25 08:07:45 CEST 2018   EN: 2.550 GM2: 0.538  GM3: 0.1500  RAES: 3.00
     2s    -13.970922    2.096432
     2p    -10.063292    1.800000
  7     Wed Apr 25 08:07:45 CEST 2018   EN: 3.040 GM2: 0.461  GM3:-0.0640  RAES: 1.90
     2s    -16.686243    2.339881
     2p    -12.523956    2.014332
  8     Wed Apr 25 08:07:45 CEST 2018   EN: 3.440 GM2: 0.452  GM3:-0.0517  RAES: 1.80
     2s    -20.229985    2.439742
     2p    -15.503117    2.137023
  9     Mon Apr 23 13:58:50 CEST 2018   EN: 3.980 GM2: 0.532  GM3: 0.1426  RAES: 2.40
     2s    -23.458179    2.416361
     2p    -15.746583    2.308399
 16     Tue Apr 24 11:44:34 CEST 2018   EN: 2.580 GM2: 0.340  GM3:-0.0502  RAES: 3.10
     3s    -20.029654    1.981333
     3p    -11.377694    2.025643
     3d     -0.420282    1.702555

 Solvent             : water
 Using internal parameter file: .param_gbsa2_water
 Gsolv ref. state (COSMO-RS): gsolv [1 M gas/solution]
 temperature (mdtemp)       :    298.14999999999998     
 dielectric constant        :    80.200000000000003     
 rho                        :    1.0000000000000000     
 mass                       :    18.000000000000000     
 surface tension            :    15.568945408385856     
 probe radius               :   0.97531378999999996     
 Gshift (Eh)                :    1.8574431267947933E-003
 c1                         :    1.5524381700000001     
 soset                      :   0.13032636000000000     
 HB correction              :  T
           ------------------------------------------------- 
          |        Self-Consistent Charge Iterations        |
           ------------------------------------------------- 

          ...................................................
          :                      SETUP                      :
          :.................................................:
          :  # basis functions                6549          :
          :  # atomic orbitals                6543          :
          :  # shells                         3921          :
          :  # electrons                      7234          :
          :  max. iterations                   250          :
          :  Hamiltonian                  GFN2-xTB          :
          :  restarted?                      false          :
          :  GBSA solvation                   true          :
          :  PC potential                    false          :
          :  electronic temp.          300.0000000     K    :
          :  accuracy                    1.0000000          :
          :  -> integral cutoff          0.2500000E+02      :
          :  -> integral neglect         0.1000000E-07      :
          :  -> SCF convergence          0.1000000E-05 Eh   :
          :  -> wf. convergence          0.1000000E-03 e    :
          :  Broyden damping             0.4000000          :
          ...................................................

 iter      E             dE          RMSdq      gap      omega  full diag
   1  -4144.4280468 -0.414443E+04  0.428E+00    1.44       0.0  T
   2  -4156.5613057 -0.121333E+02  0.226E+00    2.09       1.0  T
   3  -4157.0283238 -0.467018E+00  0.119E+00    2.13       1.0  T
   4  -4157.0967042 -0.683805E-01  0.294E-01    1.82       1.0  T
   5  -4157.2084403 -0.111736E+00  0.145E-01    1.74       1.0  T
   6  -4157.2234143 -0.149740E-01  0.756E-02    1.76       1.0  T
   7  -4157.2261236 -0.270927E-02  0.392E-02    1.71       1.0  T
   8  -4157.2272994 -0.117580E-02  0.173E-02    1.66       1.0  T
   9  -4157.2274669 -0.167559E-03  0.105E-02    1.63       1.0  T
  10  -4157.2275598 -0.928821E-04  0.560E-03    1.61       1.0  T
  11  -4157.2275848 -0.249263E-04  0.280E-03    1.59       1.0  T
  12  -4157.2275917 -0.691178E-05  0.153E-03    1.59       1.3  T
  13  -4157.2275936 -0.198515E-05  0.814E-04    1.58       2.4  T
  14  -4157.2275942 -0.568900E-06  0.405E-04    1.58       4.8  T
  15  -4157.2275944 -0.147009E-06  0.201E-04    1.58       9.7  T

   *** convergence criteria satisfied after 15 iterations ***

         #    Occupation            Energy/Eh            Energy/eV
      -------------------------------------------------------------
         1        2.0000           -0.7928644             -21.5749
       ...           ...                  ...                  ...
      3611        2.0000           -0.3623998              -9.8614
      3612        2.0000           -0.3611871              -9.8284
      3613        2.0000           -0.3602300              -9.8024
      3614        2.0000           -0.3597568              -9.7895
      3615        2.0000           -0.3528332              -9.6011
      3616        2.0000           -0.3463148              -9.4237
      3617        2.0000           -0.3408401              -9.2747 (HOMO)
      3618                         -0.2827660              -7.6945 (LUMO)
      3619                         -0.2824839              -7.6868
      3620                         -0.2689756              -7.3192
      3621                         -0.2677208              -7.2851
      3622                         -0.2675340              -7.2800
       ...                                ...                  ...
      6543                          0.7343878              19.9837
      -------------------------------------------------------------
                  HL-Gap            0.0580741 Eh            1.5803 eV
             Fermi-level           -0.3118031 Eh           -8.4846 eV

 SCC (total)                   0 d,  0 h,  7 min,  3.903 sec
 SCC setup                      ...        0 min,  3.159 sec (  0.745%)
 Dispersion                     ...        0 min,  2.045 sec (  0.482%)
 integral evaluation            ...        0 min, 12.396 sec (  2.924%)
 zeroth order Hamiltonian       ...        0 min,  0.345 sec (  0.081%)
 iterations                     ...        6 min, 27.848 sec ( 91.495%)
 molecular gradient             ...        0 min, 17.392 sec (  4.103%)
 printout                       ...        0 min,  0.716 sec (  0.169%)

         :::::::::::::::::::::::::::::::::::::::::::::::::::::
         ::                     SUMMARY                     ::
         :::::::::::::::::::::::::::::::::::::::::::::::::::::
         :: total energy           -4108.809835155887 Eh    ::
         :: total w/o Gsasa/hb     -4108.421164535497 Eh    ::
         :: gradient norm              1.293960075005 Eh/a0 ::
         :: HOMO-LUMO gap              1.580275985509 eV    ::
         ::.................................................::
         :: SCC energy             -4157.288173349657 Eh    ::
         :: -> isotropic ES           14.172384890215 Eh    ::
         :: -> anisotropic ES         -0.798374176097 Eh    ::
         :: -> anisotropic XC          1.166913446253 Eh    ::
         :: -> dispersion             -3.938060690806 Eh    ::
         :: -> Gsolv                  -4.050491525931 Eh    ::
         ::    -> Gborn               -3.661820905540 Eh    ::
         ::    -> Gsasa               -0.062436428831 Eh    ::
         ::    -> Ghb                 -0.328091634686 Eh    ::
         ::    -> Gshift               0.001857443127 Eh    ::
         :: repulsion energy          47.929297491868 Eh    ::
         :: add. restraining           0.000000000000 Eh    ::
         :::::::::::::::::::::::::::::::::::::::::::::::::::::

           -------------------------------------------------
          |                Property Printout                |
           -------------------------------------------------

    * Orbital Energies and Occupations

         #    Occupation            Energy/Eh            Energy/eV
      -------------------------------------------------------------
         1        2.0000           -0.7928644             -21.5749
       ...           ...                  ...                  ...
      3605        2.0000           -0.3692991             -10.0491
      3606        2.0000           -0.3687033             -10.0329
      3607        2.0000           -0.3683572             -10.0235
      3608        2.0000           -0.3678886             -10.0108
      3609        2.0000           -0.3648333              -9.9276
      3610        2.0000           -0.3629416              -9.8761
      3611        2.0000           -0.3623998              -9.8614
      3612        2.0000           -0.3611871              -9.8284
      3613        2.0000           -0.3602300              -9.8024
      3614        2.0000           -0.3597568              -9.7895
      3615        2.0000           -0.3528332              -9.6011
      3616        2.0000           -0.3463148              -9.4237
      3617        2.0000           -0.3408401              -9.2747 (HOMO)
      3618                         -0.2827660              -7.6945 (LUMO)
      3619                         -0.2824839              -7.6868
      3620                         -0.2689756              -7.3192
      3621                         -0.2677208              -7.2851
      3622                         -0.2675340              -7.2800
      3623                         -0.2670634              -7.2672
      3624                         -0.2652009              -7.2165
      3625                         -0.2650424              -7.2122
      3626                         -0.2650330              -7.2119
      3627                         -0.2628468              -7.1524
      3628                         -0.2618613              -7.1256
       ...                                ...                  ...
      6543                          0.7343878              19.9837
      -------------------------------------------------------------
                  HL-Gap            0.0580741 Eh            1.5803 eV
             Fermi-level           -0.3118031 Eh           -8.4846 eV

     #   Z        covCN         q      C6AA      α(0)
     1   7 N      3.497    -0.143    24.091     7.290
     2   1 H      0.860     0.319     0.660     1.273
     3   1 H      0.860     0.301     0.712     1.321
     4   1 H      0.860     0.318     0.663     1.275
     5   6 C      3.802    -0.028    21.073     6.536
     6   1 H      0.925     0.113     1.673     2.023
     7   6 C      3.852    -0.101    22.395     6.731
     8   1 H      0.925     0.109     1.706     2.043
     9   1 H      0.925     0.112     1.682     2.028
    10   6 C      3.809    -0.015    20.828     6.496
    11   1 H      0.925     0.056     2.251     2.346
    12   1 H      0.925     0.058     2.222     2.331
    13  16 S      1.987    -0.221   150.478    20.646
    14   6 C      3.746    -0.036    21.281     6.580
    15   1 H      0.925     0.046     2.369     2.407
    16   1 H      0.925     0.029     2.605     2.524
    17   1 H      0.926     0.051     2.308     2.376
    18   6 C      2.755     0.264    22.548     7.776
    19   8 O      0.858    -0.424    22.173     6.313
    20   7 N      2.693    -0.147    24.173     7.302
    21   1 H      0.860     0.203     1.090     1.635
    22   6 C      3.789     0.009    20.436     6.438
    23   1 H      0.925     0.113     1.668     2.020
    24   6 C      3.808    -0.128    22.955     6.820
    25   1 H      0.925     0.129     1.541     1.942
    26   1 H      0.924     0.109     1.704     2.041
    27   6 C      2.741     0.273    22.377     7.745
    28   8 O      0.859    -0.517    24.161     6.590
    29   7 N      2.643    -0.271    27.015     7.719
    30   1 H      0.860     0.230     0.967     1.541
    31   1 H      0.860     0.248     0.891     1.478
    32   6 C      2.746     0.259    22.637     7.790
    33   8 O      0.857    -0.493    23.621     6.516
    34   7 N      2.683    -0.181    24.914     7.413
    35   1 H      0.860     0.226     0.981     1.552
    36   6 C      3.776     0.012    20.408     6.436
    37   1 H      0.925     0.098     1.807     2.102
    38   6 C      3.819    -0.035    21.177     6.549
    39   1 H      0.924     0.092     1.861     2.133
    40   6 C      3.744    -0.132    23.118     6.859
    41   1 H      0.925     0.061     2.188     2.313
    42   1 H      0.924     0.036     2.498     2.472
    43   1 H      0.924     0.053     2.281     2.362
    44   6 C      3.781    -0.068    21.820     6.654
    45   1 H      0.925     0.044     2.403     2.424
    46   1 H      0.924     0.054     2.275     2.359
    47   6 C      3.743    -0.126    22.986     6.840
    48   1 H      0.924     0.045     2.382     2.414
    49   1 H      0.925     0.043     2.405     2.425
    50   1 H      0.924     0.051     2.313     2.379
    51   6 C      2.742     0.269    22.447     7.757
    52   8 O      0.860    -0.487    23.499     6.499
    53   7 N      2.685    -0.181    24.930     7.416
    54   1 H      0.860     0.204     1.086     1.632
    55   6 C      3.782     0.019    20.277     6.415
    56   1 H      0.925     0.088     1.897     2.154
    57   6 C      3.806    -0.083    22.070     6.688
    58   1 H      0.925     0.049     2.334     2.389
    59   1 H      0.924     0.074     2.039     2.233
    60   6 C      2.950     0.010    27.782     8.645
    61   6 C      2.905    -0.038    28.953     8.823
    62   1 H      0.926     0.024     2.667     2.554
    63   6 C      2.899    -0.035    28.874     8.810
    64   1 H      0.926     0.019     2.750     2.593
    65   6 C      2.894    -0.040    28.997     8.829
    66   1 H      0.926     0.041     2.433     2.439
    67   6 C      2.909    -0.035    28.877     8.811
    68   1 H      0.926     0.057     2.239     2.340
    69   6 C      2.906    -0.047    29.179     8.857
    70   1 H      0.926     0.067     2.116     2.275
    71   6 C      2.746     0.260    22.615     7.787
    72   8 O      0.856    -0.506    23.922     6.558
    73   7 N      2.685    -0.183    24.972     7.422
    74   1 H      0.860     0.248     0.893     1.480
    75   6 C      3.788     0.031    20.062     6.379
    76   1 H      0.924     0.057     2.239     2.340
    77   6 C      3.793    -0.067    21.795     6.648
    78   1 H      0.924     0.063     2.170     2.303
    79   1 H      0.925     0.066     2.125     2.280
    80   6 C      3.798    -0.102    22.445     6.746
    81   1 H      0.924     0.043     2.405     2.425
    82   1 H      0.924     0.032     2.552     2.498
    83   6 C      2.686     0.368    20.763     7.457
    84   8 O      0.858    -0.580    25.627     6.787
    85   8 O      0.856    -0.682    28.215     7.122
    86   6 C      2.746     0.279    22.271     7.727
    87   8 O      0.866    -0.535    24.564     6.645
    88   7 N      2.697    -0.173    24.733     7.386
    89   1 H      0.860     0.222     0.999     1.566
    90   6 C      3.781     0.022    20.217     6.405
    91   1 H      0.925     0.077     2.014     2.219
    92   6 C      3.811    -0.080    22.025     6.680
    93   1 H      0.925     0.063     2.169     2.303
    94   1 H      0.924     0.071     2.073     2.251
    95   6 C      3.794    -0.022    20.970     6.521
    96   1 H      0.925     0.050     2.319     2.382
    97   1 H      0.925     0.040     2.448     2.447
    98  16 S      1.950    -0.168   148.149    20.486
    99   6 C      3.740    -0.078    22.076     6.704
   100   1 H      0.925     0.062     2.174     2.306
   101   1 H      0.925     0.080     1.979     2.200
   102   1 H      0.925     0.062     2.176     2.307
   103   6 C      2.747     0.274    22.365     7.744
   104   8 O      0.858    -0.496    23.686     6.525
   105   7 N      2.685    -0.179    24.872     7.407
   106   1 H      0.860     0.207     1.071     1.621
   107   6 C      3.771     0.026    20.167     6.399
   108   1 H      0.925     0.088     1.895     2.153
   109   6 C      3.774    -0.075    21.967     6.678
   110   1 H      0.925     0.045     2.378     2.412
   111   1 H      0.925     0.073     2.051     2.240
   112   6 C      3.835    -0.020    20.903     6.505
   113   1 H      0.925     0.057     2.236     2.338
   114   6 C      3.756    -0.125    22.955     6.831
   115   1 H      0.924     0.042     2.423     2.434
   116   1 H      0.924     0.028     2.618     2.530
   117   1 H      0.925     0.049     2.338     2.391
   118   6 C      3.764    -0.130    23.033     6.841
   119   1 H      0.925     0.061     2.187     2.313
   120   1 H      0.924     0.070     2.082     2.257
   121   1 H      0.925     0.046     2.366     2.405
   122   6 C      2.747     0.272    22.408     7.751
   123   8 O      0.862    -0.522    24.283     6.607
   124   7 N      2.685    -0.169    24.654     7.374
   125   1 H      0.860     0.195     1.132     1.667
   126   6 C      3.773     0.022    20.228     6.409
   127   1 H      0.924     0.080     1.976     2.199
   128   6 C      3.800    -0.068    21.802     6.648
   129   1 H      0.925     0.056     2.242     2.341
   130   1 H      0.924     0.057     2.237     2.339
   131   6 C      3.794    -0.078    21.997     6.679
   132   1 H      0.924     0.079     1.987     2.205
   133   1 H      0.925     0.062     2.175     2.306
   134   6 C      3.728    -0.025    21.113     6.560
   135   1 H      0.925     0.090     1.876     2.142
   136   1 H      0.924     0.063     2.161     2.299
   137   7 N      2.738    -0.153    24.300     7.321
   138   1 H      0.860     0.226     0.982     1.552
   139   6 C      2.736     0.238    23.028     7.857
   140   7 N      2.658    -0.270    26.987     7.715
   141   1 H      0.860     0.262     0.839     1.435
   142   1 H      0.860     0.245     0.905     1.490
   143   7 N      2.715    -0.274    27.087     7.730
   144   1 H      0.860     0.256     0.859     1.452
   145   1 H      0.860     0.253     0.870     1.461
   146   6 C      2.740     0.265    22.521     7.770
   147   8 O      0.857    -0.489    23.533     6.504
   148   7 N      2.682    -0.165    24.562     7.361
   149   1 H      0.860     0.204     1.087     1.634
   150   6 C      3.782     0.008    20.466     6.444
   151   1 H      0.924     0.095     1.829     2.115
   152   6 C      3.845    -0.031    21.093     6.533
   153   1 H      0.925     0.067     2.122     2.278
   154   6 C      3.747    -0.115    22.773     6.807
   155   1 H      0.925     0.044     2.391     2.418
   156   1 H      0.925     0.056     2.245     2.343
   157   1 H      0.924     0.029     2.598     2.521
   158   6 C      3.805    -0.059    21.626     6.620
   159   1 H      0.925     0.031     2.574     2.509
   160   1 H      0.925     0.042     2.428     2.437
   161   6 C      3.754    -0.115    22.761     6.803
   162   1 H      0.924     0.033     2.544     2.494
   163   1 H      0.925     0.052     2.293     2.368
   164   1 H      0.925     0.050     2.317     2.380
   165   6 C      2.743     0.275    22.345     7.740
   166   8 O      0.862    -0.450    22.695     6.387
   167   7 N      2.691    -0.204    25.441     7.491
   168   1 H      0.860     0.193     1.141     1.673
   169   6 C      3.795     0.031    20.061     6.378
   170   1 H      0.925     0.101     1.774     2.083
   171   6 C      3.805    -0.102    22.450     6.745
   172   1 H      0.924     0.058     2.226     2.333
   173   1 H      0.924     0.031     2.568     2.506
   174   6 C      2.681     0.370    20.734     7.452
   175   8 O      0.859    -0.560    25.150     6.724
   176   8 O      0.858    -0.578    25.588     6.782
   177   6 C      2.755     0.260    22.621     7.788
   178   8 O      0.856    -0.499    23.754     6.535
   179   7 N      2.690    -0.199    25.316     7.473
   180   1 H      0.860     0.213     1.042     1.599
   181   6 C      3.794     0.027    20.133     6.389
   182   1 H      0.924     0.092     1.858     2.132
   183   6 C      3.802    -0.054    21.546     6.609
   184   1 H      0.925     0.044     2.398     2.422
   185   1 H      0.924     0.050     2.314     2.379
   186   6 C      3.794    -0.093    22.273     6.721
   187   1 H      0.924     0.034     2.528     2.486
   188   1 H      0.925     0.028     2.611     2.527
   189   6 C      2.681     0.361    20.873     7.476
   190   8 O      0.857    -0.664    27.755     7.063
   191   8 O      0.857    -0.598    26.068     6.845
   192   6 C      2.752     0.266    22.503     7.768
   193   8 O      0.861    -0.508    23.964     6.563
   194   7 N      2.686    -0.151    24.262     7.316
   195   1 H      0.860     0.201     1.101     1.644
   196   6 C      3.734    -0.038    21.343     6.594
   197   1 H      0.925     0.102     1.765     2.077
   198   1 H      0.925     0.090     1.877     2.143
   199   6 C      2.749     0.269    22.457     7.760
   200   8 O      0.858    -0.500    23.777     6.538
   201   7 N      2.686    -0.153    24.302     7.322
   202   1 H      0.860     0.228     0.973     1.545
   203   6 C      3.783     0.009    20.448     6.441
   204   1 H      0.925     0.072     2.061     2.245
   205   6 C      3.807    -0.087    22.157     6.701
   206   1 H      0.925     0.071     2.077     2.254
   207   1 H      0.925     0.057     2.232     2.336
   208   6 C      3.852    -0.017    20.836     6.492
   209   1 H      0.924     0.042     2.417     2.431
   210   6 C      3.769    -0.123    22.894     6.819
   211   1 H      0.925     0.020     2.735     2.586
   212   1 H      0.924     0.039     2.457     2.451
   213   1 H      0.924     0.045     2.383     2.414
   214   6 C      3.762    -0.122    22.885     6.819
   215   1 H      0.924     0.060     2.202     2.321
   216   1 H      0.925     0.047     2.358     2.402
   217   1 H      0.924     0.045     2.378     2.412
   218   6 C      2.740     0.262    22.581     7.780
   219   8 O      0.857    -0.473    23.196     6.457
   220   7 N      2.681    -0.151    24.270     7.317
   221   1 H      0.860     0.197     1.123     1.660
   222   6 C      3.774    -0.004    20.677     6.479
   223   1 H      0.925     0.088     1.903     2.157
   224   6 C      3.796    -0.083    22.081     6.691
   225   1 H      0.925     0.074     2.043     2.235
   226   1 H      0.925     0.061     2.185     2.311
   227   6 C      3.808    -0.086    22.129     6.697
   228   1 H      0.925     0.076     2.017     2.221
   229   1 H      0.924     0.102     1.763     2.077
   230   6 C      3.734    -0.033    21.252     6.580
   231   1 H      0.924     0.115     1.658     2.014
   232   1 H      0.925     0.106     1.732     2.058
   233   7 N      2.737    -0.153    24.312     7.323
   234   1 H      0.861     0.206     1.074     1.623
   235   6 C      2.733     0.250    22.803     7.818
   236   7 N      2.675    -0.255    26.620     7.663
   237   1 H      0.860     0.247     0.895     1.482
   238   1 H      0.860     0.271     0.805     1.406
   239   7 N      2.703    -0.249    26.482     7.643
   240   1 H      0.860     0.213     1.042     1.599
   241   1 H      0.860     0.211     1.051     1.606
   242   6 C      2.747     0.268    22.472     7.762
   243   8 O      0.859    -0.466    23.045     6.436
   244   7 N      2.686    -0.173    24.750     7.389
   245   1 H      0.860     0.215     1.031     1.590
   246   6 C      3.788     0.013    20.372     6.428
   247   1 H      0.924     0.097     1.817     2.108
   248   6 C      3.799    -0.082    22.075     6.690
   249   1 H      0.924     0.070     2.089     2.260
   250   1 H      0.924     0.065     2.140     2.288
   251   6 C      3.844    -0.012    20.760     6.481
   252   1 H      0.924     0.042     2.424     2.435
   253   6 C      3.758    -0.112    22.696     6.792
   254   1 H      0.924     0.046     2.371     2.408
   255   1 H      0.925     0.024     2.676     2.558
   256   1 H      0.924     0.046     2.373     2.409
   257   6 C      3.752    -0.124    22.935     6.829
   258   1 H      0.924     0.039     2.458     2.452
   259   1 H      0.925     0.049     2.331     2.388
   260   1 H      0.924     0.035     2.515     2.480
   261   6 C      2.742     0.256    22.700     7.801
   262   8 O      0.857    -0.488    23.528     6.503
   263   7 N      2.680    -0.181    24.917     7.414
   264   1 H      0.860     0.195     1.132     1.667
   265   6 C      3.767     0.009    20.466     6.448
   266   1 H      0.925     0.090     1.884     2.146
   267   6 C      3.781    -0.081    22.072     6.693
   268   1 H      0.925     0.066     2.130     2.282
   269   1 H      0.924     0.074     2.038     2.233
   270   6 C      3.783    -0.091    22.250     6.719
   271   1 H      0.925     0.070     2.085     2.258
   272   1 H      0.925     0.077     2.008     2.216
   273   6 C      3.793    -0.108    22.573     6.766
   274   1 H      0.925     0.072     2.067     2.249
   275   1 H      0.925     0.076     2.020     2.223
   276   6 C      3.727    -0.066    21.862     6.675
   277   1 H      0.925     0.141     1.457     1.888
   278   1 H      0.925     0.126     1.565     1.956
   279   7 N      3.489    -0.152    24.268     7.317
   280   1 H      0.860     0.306     0.696     1.307
   281   1 H      0.860     0.287     0.752     1.358
   282   1 H      0.860     0.314     0.674     1.286
   283   6 C      2.745     0.272    22.394     7.748
   284   8 O      0.862    -0.496    23.704     6.528
   285   7 N      2.689    -0.155    24.362     7.331
   286   1 H      0.860     0.222     0.999     1.566
   287   6 C      3.782     0.012    20.385     6.432
   288   1 H      0.924     0.058     2.220     2.330
   289   6 C      3.842    -0.037    21.204     6.550
   290   1 H      0.924     0.082     1.955     2.187
   291   6 C      3.752    -0.128    23.022     6.843
   292   1 H      0.924     0.027     2.633     2.537
   293   1 H      0.925     0.053     2.286     2.365
   294   1 H      0.925     0.074     2.040     2.234
   295   6 C      3.793    -0.082    22.073     6.691
   296   1 H      0.925     0.059     2.216     2.328
   297   1 H      0.925     0.032     2.555     2.500
   298   6 C      3.744    -0.130    23.067     6.851
   299   1 H      0.924     0.041     2.436     2.441
   300   1 H      0.924     0.070     2.082     2.257
   301   1 H      0.925     0.037     2.495     2.470
   302   6 C      2.747     0.270    22.442     7.757
   303   8 O      0.857    -0.481    23.364     6.481
   304   7 N      2.682    -0.178    24.855     7.404
   305   1 H      0.860     0.216     1.027     1.587
   306   6 C      3.783     0.012    20.385     6.431
   307   1 H      0.924     0.101     1.772     2.082
   308   6 C      3.806    -0.082    22.069     6.688
   309   1 H      0.925     0.099     1.796     2.096
   310   1 H      0.924     0.081     1.971     2.195
   311   6 C      2.947     0.002    27.987     8.677
   312   6 C      2.900    -0.047    29.173     8.856
   313   1 H      0.926     0.044     2.394     2.420
   314   6 C      2.896    -0.071    29.767     8.945
   315   1 H      0.926     0.006     2.955     2.688
   316   6 C      2.833     0.130    25.138     8.216
   317   8 O      1.657    -0.466    22.174     6.357
   318   1 H      0.805     0.311     0.689     1.304
   319   6 C      2.896    -0.064    29.600     8.920
   320   1 H      0.926     0.044     2.396     2.421
   321   6 C      2.904    -0.042    29.046     8.837
   322   1 H      0.926     0.086     1.922     2.168
   323   6 C      2.742     0.269    22.462     7.760
   324   8 O      0.858    -0.459    22.897     6.416
   325   7 N      2.671    -0.182    24.943     7.417
   326   1 H      0.860     0.227     0.978     1.549
   327   6 C      3.763     0.011    20.426     6.442
   328   1 H      0.925     0.076     2.019     2.222
   329   6 C      3.790    -0.078    22.001     6.680
   330   1 H      0.925     0.049     2.338     2.391
   331   1 H      0.925     0.078     1.996     2.209
   332   6 C      3.801    -0.084    22.110     6.695
   333   1 H      0.925     0.083     1.944     2.180
   334   1 H      0.925     0.054     2.266     2.354
   335   6 C      3.805    -0.095    22.309     6.724
   336   1 H      0.925     0.055     2.260     2.351
   337   1 H      0.925     0.084     1.940     2.178
   338   6 C      3.741    -0.059    21.711     6.648
   339   1 H      0.924     0.140     1.459     1.889
   340   1 H      0.925     0.115     1.655     2.012
   341   7 N      3.492    -0.127    23.750     7.238
   342   1 H      0.860     0.283     0.768     1.372
   343   1 H      0.860     0.297     0.723     1.332
   344   1 H      0.860     0.298     0.718     1.327
   345   6 C      2.752     0.264    22.541     7.774
   346   8 O      0.857    -0.507    23.938     6.560
   347   7 N      2.694    -0.159    24.448     7.344
   348   1 H      0.860     0.214     1.037     1.595
   349   6 C      3.797     0.056    19.644     6.311
   350   1 H      0.925     0.069     2.098     2.265
   351   6 C      3.805    -0.096    22.329     6.727
   352   1 H      0.924     0.050     2.322     2.383
   353   1 H      0.925     0.036     2.498     2.472
   354   6 C      2.682     0.354    20.997     7.499
   355   8 O      0.856    -0.642    27.178     6.990
   356   8 O      0.856    -0.621    26.647     6.921
   357   6 C      2.762     0.259    22.642     7.792
   358   8 O      0.860    -0.541    24.705     6.664
   359   7 N      2.691    -0.154    24.326     7.325
   360   1 H      0.860     0.213     1.044     1.601
   361   6 C      3.787     0.032    20.048     6.377
   362   1 H      0.924     0.094     1.839     2.121
   363   6 C      3.729     0.117    18.760     6.183
   364   1 H      0.925     0.019     2.752     2.594
   365   6 C      3.765    -0.135    23.131     6.855
   366   1 H      0.924     0.058     2.225     2.333
   367   1 H      0.925     0.082     1.956     2.187
   368   1 H      0.924     0.075     2.033     2.230
   369   8 O      1.667    -0.486    22.594     6.417
   370   1 H      0.806     0.342     0.606     1.223
   371   6 C      2.737     0.267    22.488     7.764
   372   8 O      0.858    -0.464    23.003     6.430
   373   7 N      2.667    -0.214    25.663     7.524
   374   1 H      0.860     0.194     1.135     1.669
   375   6 C      3.772     0.028    20.138     6.395
   376   1 H      0.925     0.078     2.001     2.212
   377   6 C      3.797    -0.050    21.470     6.598
   378   1 H      0.925     0.036     2.499     2.472
   379   1 H      0.924     0.054     2.275     2.359
   380   6 C      3.799    -0.096    22.326     6.728
   381   1 H      0.925     0.041     2.435     2.440
   382   1 H      0.925     0.053     2.288     2.365
   383   6 C      2.687     0.355    20.966     7.493
   384   8 O      0.856    -0.645    27.254     6.999
   385   8 O      0.857    -0.603    26.203     6.863
   386   6 C      2.745     0.270    22.431     7.755
   387   8 O      0.859    -0.492    23.600     6.513
   388   7 N      2.682    -0.200    25.344     7.477
   389   1 H      0.860     0.212     1.047     1.603
   390   6 C      3.730    -0.039    21.372     6.599
   391   1 H      0.924     0.113     1.670     2.021
   392   1 H      0.925     0.110     1.698     2.038
   393   6 C      2.745     0.269    22.454     7.759
   394   8 O      0.858    -0.480    23.337     6.477
   395   7 N      2.688    -0.157    24.402     7.337
   396   1 H      0.860     0.176     1.238     1.743
   397   6 C      3.788     0.013    20.370     6.428
   398   1 H      0.925     0.087     1.905     2.159
   399   6 C      3.810    -0.078    21.988     6.675
   400   1 H      0.925     0.076     2.019     2.222
   401   1 H      0.925     0.039     2.466     2.456
   402   6 C      2.954    -0.011    28.281     8.722
   403   6 C      2.899    -0.055    29.377     8.887
   404   1 H      0.926     0.051     2.301     2.372
   405   6 C      2.903    -0.069    29.709     8.937
   406   1 H      0.926     0.068     2.110     2.272
   407   6 C      2.833     0.144    24.851     8.169
   408   8 O      1.661    -0.411    21.069     6.196
   409   1 H      0.807     0.354     0.579     1.195
   410   6 C      2.906    -0.074    29.849     8.958
   411   1 H      0.925     0.051     2.312     2.378
   412   6 C      2.904    -0.034    28.842     8.806
   413   1 H      0.926     0.041     2.435     2.440
   414   6 C      2.748     0.266    22.511     7.769
   415   8 O      0.858    -0.506    23.917     6.557
   416   7 N      2.692    -0.140    24.041     7.282
   417   1 H      0.860     0.223     0.998     1.565
   418   6 C      3.803     0.016    20.303     6.415
   419   1 H      0.925     0.087     1.904     2.158
   420   6 C      3.807    -0.088    22.175     6.704
   421   1 H      0.925     0.076     2.026     2.226
   422   1 H      0.925     0.059     2.216     2.328
   423   6 C      2.974    -0.007    28.196     8.710
   424   6 C      2.910    -0.035    28.866     8.810
   425   1 H      0.926     0.036     2.499     2.472
   426   6 C      2.902    -0.079    29.963     8.975
   427   1 H      0.926     0.049     2.337     2.391
   428   6 C      2.834     0.129    25.174     8.222
   429   8 O      1.659    -0.404    20.919     6.174
   430   1 H      0.805     0.350     0.588     1.204
   431   6 C      2.918    -0.063    29.568     8.917
   432   1 H      0.926     0.077     2.015     2.220
   433   6 C      2.900    -0.042    29.052     8.838
   434   1 H      0.926     0.055     2.254     2.348
   435   6 C      2.746     0.268    22.476     7.763
   436   8 O      0.859    -0.492    23.597     6.513
   437   7 N      2.687    -0.182    24.943     7.418
   438   1 H      0.860     0.244     0.908     1.493
   439   6 C      3.788     0.018    20.289     6.415
   440   1 H      0.925     0.067     2.120     2.277
   441   6 C      3.733     0.131    18.543     6.146
   442   1 H      0.925     0.019     2.752     2.594
   443   6 C      3.752    -0.110    22.666     6.789
   444   1 H      0.924     0.041     2.432     2.439
   445   1 H      0.925     0.046     2.377     2.411
   446   1 H      0.924     0.043     2.411     2.428
   447   8 O      1.659    -0.475    22.365     6.384
   448   1 H      0.806     0.323     0.655     1.271
   449   6 C      2.754     0.255    22.711     7.804
   450   8 O      0.860    -0.458    22.873     6.412
   451   7 N      2.684    -0.169    24.653     7.374
   452   1 H      0.860     0.205     1.080     1.628
   453   6 C      3.786     0.013    20.365     6.428
   454   1 H      0.925     0.074     2.037     2.232
   455   6 C      3.850    -0.029    21.059     6.527
   456   1 H      0.924     0.069     2.093     2.262
   457   6 C      3.751    -0.132    23.108     6.855
   458   1 H      0.925     0.048     2.350     2.397
   459   1 H      0.925     0.044     2.397     2.421
   460   1 H      0.924     0.065     2.144     2.290
   461   6 C      3.804    -0.072    21.878     6.659
   462   1 H      0.924     0.042     2.417     2.431
   463   1 H      0.924     0.039     2.459     2.452
   464   6 C      3.748    -0.120    22.872     6.821
   465   1 H      0.925     0.050     2.320     2.382
   466   1 H      0.925     0.055     2.264     2.353
   467   1 H      0.924     0.053     2.284     2.364
   468   6 C      2.745     0.272    22.397     7.749
   469   8 O      0.858    -0.506    23.924     6.558
   470   7 N      2.693    -0.153    24.304     7.322
   471   1 H      0.860     0.226     0.982     1.552
   472   6 C      3.740    -0.027    21.129     6.558
   473   1 H      0.925     0.070     2.090     2.261
   474   1 H      0.925     0.124     1.584     1.968
   475   6 C      2.760     0.260    22.627     7.790
   476   8 O      0.857    -0.491    23.596     6.513
   477   7 N      2.683    -0.173    24.753     7.389
   478   1 H      0.860     0.202     1.098     1.641
   479   6 C      3.798     0.020    20.240     6.406
   480   1 H      0.925     0.077     2.005     2.214
   481   6 C      3.848    -0.023    20.956     6.511
   482   1 H      0.924     0.044     2.398     2.421
   483   6 C      3.758    -0.114    22.730     6.797
   484   1 H      0.925     0.044     2.400     2.423
   485   1 H      0.924     0.025     2.656     2.549
   486   1 H      0.925     0.060     2.200     2.320
   487   6 C      3.793    -0.071    21.862     6.658
   488   1 H      0.925     0.036     2.505     2.475
   489   1 H      0.925     0.053     2.283     2.363
   490   6 C      3.747    -0.117    22.812     6.812
   491   1 H      0.925     0.042     2.419     2.432
   492   1 H      0.925     0.052     2.301     2.372
   493   1 H      0.925     0.049     2.326     2.385
   494   6 C      2.748     0.272    22.396     7.749
   495   8 O      0.861    -0.457    22.857     6.410
   496   7 N      2.683    -0.180    24.898     7.411
   497   1 H      0.860     0.208     1.064     1.616
   498   6 C      3.756    -0.026    21.085     6.547
   499   1 H      0.924     0.071     2.074     2.252
   500   1 H      0.924     0.087     1.908     2.160
   501   6 C      2.749     0.285    22.178     7.711
   502   8 O      0.859    -0.506    23.915     6.557
   503   7 N      2.700    -0.150    24.235     7.311
   504   1 H      0.860     0.225     0.986     1.556
   505   6 C      3.800     0.028    20.106     6.384
   506   1 H      0.924     0.065     2.139     2.287
   507   6 C      3.814    -0.087    22.150     6.699
   508   1 H      0.925     0.121     1.604     1.980
   509   1 H      0.924     0.095     1.831     2.116
   510   6 C      3.009     0.051    26.829     8.497
   511   7 N      2.801    -0.043    22.068     6.977
   512   1 H      0.860     0.255     0.865     1.457
   513   6 C      2.924     0.078    26.256     8.403
   514   1 H      0.926     0.157     1.345     1.814
   515   7 N      2.795    -0.016    21.565     6.897
   516   1 H      0.860     0.273     0.798     1.399
   517   6 C      2.975    -0.025    28.634     8.777
   518   1 H      0.926     0.124     1.578     1.964
   519   6 C      2.751     0.263    22.560     7.777
   520   8 O      0.860    -0.477    23.278     6.469
   521   7 N      2.692    -0.169    24.649     7.374
   522   1 H      0.860     0.206     1.074     1.623
   523   6 C      3.798     0.020    20.247     6.407
   524   1 H      0.925     0.063     2.159     2.298
   525   6 C      3.821    -0.084    22.079     6.687
   526   1 H      0.924     0.063     2.165     2.301
   527   1 H      0.924     0.061     2.183     2.310
   528   6 C      3.854    -0.011    20.732     6.476
   529   1 H      0.924     0.035     2.519     2.482
   530   6 C      3.817    -0.120    22.782     6.793
   531   1 H      0.925     0.050     2.321     2.382
   532   1 H      0.925     0.029     2.597     2.520
   533   1 H      0.925     0.054     2.271     2.357
   534   6 C      3.829    -0.130    22.971     6.820
   535   1 H      0.925     0.047     2.352     2.398
   536   1 H      0.924     0.049     2.327     2.385
   537   1 H      0.925     0.067     2.120     2.277
   538   6 C      2.762     0.275    22.353     7.743
   539   8 O      0.858    -0.487    23.497     6.499
   540   7 N      2.697    -0.181    24.930     7.416
   541   1 H      0.860     0.220     1.008     1.572
   542   6 C      3.804     0.020    20.240     6.405
   543   1 H      0.924     0.092     1.856     2.131
   544   6 C      3.809    -0.076    21.946     6.669
   545   1 H      0.925     0.049     2.332     2.388
   546   1 H      0.925     0.057     2.235     2.338
   547   6 C      3.842    -0.020    20.898     6.503
   548   1 H      0.925     0.046     2.374     2.409
   549   6 C      3.750    -0.130    23.062     6.849
   550   1 H      0.924     0.062     2.177     2.307
   551   1 H      0.925     0.067     2.123     2.279
   552   1 H      0.924     0.051     2.307     2.375
   553   6 C      3.752    -0.119    22.832     6.814
   554   1 H      0.925     0.025     2.659     2.550
   555   1 H      0.925     0.060     2.203     2.321
   556   1 H      0.925     0.023     2.689     2.564
   557   6 C      2.762     0.274    22.372     7.746
   558   8 O      0.863    -0.498    23.730     6.531
   559   7 N      2.701    -0.171    24.690     7.380
   560   1 H      0.860     0.220     1.008     1.573
   561   6 C      3.799     0.028    20.112     6.385
   562   1 H      0.925     0.072     2.068     2.249
   563   6 C      3.739     0.106    18.919     6.206
   564   1 H      0.925     0.035     2.515     2.480
   565   6 C      3.744    -0.124    22.959     6.835
   566   1 H      0.925     0.049     2.328     2.386
   567   1 H      0.924     0.056     2.252     2.347
   568   1 H      0.925     0.078     2.003     2.213
   569   8 O      1.650    -0.495    22.797     6.445
   570   1 H      0.805     0.341     0.609     1.226
   571   6 C      2.769     0.268    22.473     7.764
   572   8 O      0.861    -0.471    23.158     6.452
   573   7 N      2.686    -0.169    24.654     7.374
   574   1 H      0.860     0.217     1.024     1.585
   575   6 C      3.781     0.014    20.368     6.429
   576   1 H      0.925     0.089     1.890     2.150
   577   6 C      3.806    -0.086    22.129     6.697
   578   1 H      0.924     0.075     2.030     2.228
   579   1 H      0.925     0.068     2.110     2.272
   580   6 C      3.800    -0.090    22.223     6.712
   581   1 H      0.925     0.068     2.112     2.273
   582   1 H      0.924     0.063     2.161     2.299
   583   6 C      3.802    -0.100    22.410     6.740
   584   1 H      0.925     0.092     1.864     2.135
   585   1 H      0.924     0.097     1.811     2.105
   586   6 C      3.728    -0.062    21.786     6.664
   587   1 H      0.924     0.117     1.638     2.001
   588   1 H      0.925     0.132     1.517     1.926
   589   7 N      3.485    -0.148    24.202     7.307
   590   1 H      0.860     0.287     0.753     1.359
   591   1 H      0.860     0.298     0.719     1.329
   592   1 H      0.860     0.299     0.716     1.325
   593   6 C      2.751     0.270    22.440     7.757
   594   8 O      0.863    -0.485    23.445     6.492
   595   7 N      2.687    -0.192    25.167     7.451
   596   1 H      0.860     0.210     1.058     1.611
   597   6 C      3.780     0.024    20.187     6.401
   598   1 H      0.925     0.074     2.047     2.237
   599   6 C      3.670     0.071    19.625     6.351
   600   1 H      0.925     0.044     2.401     2.423
   601   1 H      0.925     0.053     2.284     2.363
   602   8 O      1.655    -0.476    22.372     6.385
   603   1 H      0.805     0.342     0.607     1.224
   604   6 C      2.760     0.270    22.447     7.759
   605   8 O      0.861    -0.514    24.098     6.582
   606   7 N      2.739    -0.070    22.597     7.060
   607   6 C      3.774    -0.007    20.735     6.488
   608   1 H      0.925     0.060     2.198     2.318
   609   1 H      0.924     0.064     2.155     2.296
   610   6 C      3.811    -0.073    21.884     6.659
   611   1 H      0.924     0.068     2.102     2.267
   612   1 H      0.925     0.068     2.113     2.273
   613   6 C      3.807    -0.076    21.950     6.669
   614   1 H      0.925     0.072     2.064     2.247
   615   1 H      0.925     0.080     1.981     2.201
   616   6 C      3.814     0.015    20.320     6.416
   617   1 H      0.924     0.080     1.978     2.199
   618   6 C      2.741     0.267    22.486     7.764
   619   8 O      0.858    -0.475    23.240     6.463
   620   7 N      2.689    -0.177    24.843     7.403
   621   1 H      0.860     0.211     1.049     1.605
   622   6 C      3.789     0.013    20.374     6.429
   623   1 H      0.925     0.086     1.918     2.166
   624   6 C      3.686     0.075    19.518     6.325
   625   1 H      0.925     0.033     2.546     2.495
   626   1 H      0.925     0.040     2.450     2.448
   627   8 O      1.658    -0.477    22.399     6.389
   628   1 H      0.806     0.352     0.584     1.200
   629   6 C      2.744     0.272    22.397     7.749
   630   8 O      0.861    -0.461    22.943     6.422
   631   7 N      2.685    -0.184    24.983     7.423
   632   1 H      0.860     0.212     1.049     1.604
   633   6 C      3.781     0.005    20.519     6.453
   634   1 H      0.925     0.107     1.726     2.055
   635   6 C      3.804    -0.087    22.156     6.701
   636   1 H      0.925     0.067     2.118     2.276
   637   1 H      0.925     0.082     1.961     2.190
   638   6 C      3.849    -0.024    20.968     6.513
   639   1 H      0.925     0.045     2.389     2.417
   640   6 C      3.761    -0.137    23.179     6.863
   641   1 H      0.925     0.042     2.420     2.433
   642   1 H      0.925     0.062     2.171     2.304
   643   1 H      0.925     0.057     2.234     2.338
   644   6 C      3.758    -0.140    23.246     6.874
   645   1 H      0.924     0.074     2.045     2.237
   646   1 H      0.925     0.043     2.407     2.426
   647   1 H      0.925     0.049     2.335     2.390
   648   6 C      2.746     0.258    22.663     7.795
   649   8 O      0.858    -0.465    23.014     6.432
   650   7 N      2.686    -0.176    24.817     7.399
   651   1 H      0.860     0.214     1.040     1.597
   652   6 C      3.784     0.020    20.255     6.411
   653   1 H      0.924     0.123     1.593     1.974
   654   6 C      3.822    -0.116    22.699     6.780
   655   1 H      0.925     0.075     2.033     2.230
   656   1 H      0.925     0.114     1.660     2.015
   657   6 C      2.749     0.290    22.089     7.696
   658   8 O      0.861    -0.534    24.550     6.643
   659   7 N      2.644    -0.261    26.763     7.683
   660   1 H      0.860     0.232     0.957     1.532
   661   1 H      0.860     0.250     0.885     1.474
   662   6 C      2.737     0.260    22.618     7.787
   663   8 O      0.862    -0.487    23.503     6.500
   664   7 N      2.693    -0.182    24.952     7.419
   665   1 H      0.860     0.225     0.986     1.556
   666   6 C      3.782     0.022    20.217     6.405
   667   1 H      0.924     0.074     2.037     2.232
   668   6 C      3.760    -0.137    23.192     6.865
   669   1 H      0.925     0.065     2.143     2.289
   670   1 H      0.925     0.077     2.011     2.217
   671   1 H      0.924     0.083     1.944     2.181
   672   6 C      2.751     0.253    22.741     7.809
   673   8 O      0.859    -0.511    24.033     6.573
   674   7 N      2.709    -0.175    24.788     7.394
   675   1 H      0.860     0.234     0.948     1.525
   676   6 C      3.803     0.034    20.007     6.368
   677   1 H      0.924     0.066     2.135     2.285
   678   6 C      3.761    -0.142    23.275     6.877
   679   1 H      0.925     0.095     1.832     2.117
   680   1 H      0.925     0.084     1.938     2.177
   681   1 H      0.925     0.073     2.051     2.239
   682   6 C      2.765     0.271    22.420     7.754
   683   8 O      0.861    -0.510    23.999     6.568
   684   7 N      2.685    -0.188    25.067     7.436
   685   1 H      0.860     0.247     0.895     1.482
   686   6 C      3.787     0.017    20.310     6.419
   687   1 H      0.925     0.101     1.775     2.084
   688   6 C      3.808    -0.088    22.174     6.703
   689   1 H      0.925     0.063     2.168     2.303
   690   1 H      0.924     0.086     1.923     2.169
   691   6 C      3.820    -0.095    22.286     6.718
   692   1 H      0.925     0.089     1.891     2.150
   693   1 H      0.925     0.056     2.246     2.344
   694   6 C      3.812    -0.096    22.314     6.724
   695   1 H      0.924     0.077     2.006     2.215
   696   1 H      0.925     0.086     1.918     2.166
   697   6 C      3.749    -0.056    21.639     6.634
   698   1 H      0.924     0.129     1.542     1.942
   699   1 H      0.925     0.109     1.709     2.044
   700   7 N      3.486    -0.152    24.270     7.317
   701   1 H      0.860     0.308     0.690     1.301
   702   1 H      0.860     0.280     0.777     1.381
   703   1 H      0.860     0.297     0.723     1.332
   704   6 C      2.745     0.265    22.522     7.771
   705   8 O      0.864    -0.522    24.285     6.607
   706   7 N      2.689    -0.169    24.654     7.374
   707   1 H      0.860     0.222     1.001     1.568
   708   6 C      3.783     0.020    20.260     6.412
   709   1 H      0.925     0.068     2.111     2.272
   710   6 C      3.679     0.069    19.640     6.348
   711   1 H      0.924     0.053     2.285     2.364
   712   1 H      0.925     0.037     2.487     2.466
   713   8 O      1.653    -0.491    22.707     6.433
   714   1 H      0.808     0.346     0.597     1.214
   715   6 C      2.744     0.284    22.182     7.712
   716   8 O      0.862    -0.498    23.738     6.532
   717   7 N      2.683    -0.208    25.533     7.505
   718   1 H      0.860     0.239     0.929     1.510
   719   6 C      3.783     0.037    19.974     6.366
   720   1 H      0.924     0.054     2.272     2.357
   721   6 C      3.804    -0.041    21.300     6.570
   722   1 H      0.924     0.047     2.364     2.404
   723   1 H      0.925     0.044     2.391     2.418
   724   6 C      3.792    -0.088    22.194     6.709
   725   1 H      0.925     0.034     2.534     2.489
   726   1 H      0.925     0.030     2.590     2.517
   727   6 C      2.682     0.352    21.027     7.504
   728   8 O      0.855    -0.655    27.501     7.031
   729   8 O      0.856    -0.648    27.333     7.009
   730   6 C      2.748     0.260    22.619     7.787
   731   8 O      0.862    -0.515    24.113     6.584
   732   7 N      2.687    -0.169    24.649     7.374
   733   1 H      0.860     0.218     1.019     1.581
   734   6 C      3.775     0.016    20.335     6.425
   735   1 H      0.924     0.098     1.800     2.098
   736   6 C      3.826    -0.091    22.211     6.706
   737   1 H      0.925     0.063     2.165     2.301
   738   1 H      0.925     0.102     1.770     2.081
   739   6 C      3.855    -0.012    20.761     6.480
   740   1 H      0.924     0.027     2.634     2.538
   741   6 C      3.763    -0.128    23.011     6.838
   742   1 H      0.924     0.055     2.260     2.351
   743   1 H      0.925     0.030     2.579     2.512
   744   1 H      0.924     0.059     2.206     2.322
   745   6 C      3.788    -0.125    22.903     6.816
   746   1 H      0.925     0.043     2.415     2.430
   747   1 H      0.925     0.040     2.450     2.448
   748   1 H      0.925     0.065     2.147     2.291
   749   6 C      2.741     0.276    22.331     7.737
   750   8 O      0.859    -0.468    23.078     6.441
   751   7 N      2.687    -0.220    25.808     7.545
   752   1 H      0.860     0.236     0.941     1.520
   753   6 C      3.791     0.056    19.650     6.313
   754   1 H      0.925     0.047     2.358     2.401
   755   6 C      3.804    -0.088    22.166     6.703
   756   1 H      0.924     0.023     2.690     2.565
   757   1 H      0.924     0.048     2.339     2.392
   758   6 C      2.688     0.373    20.681     7.442
   759   8 O      0.857    -0.634    26.968     6.963
   760   8 O      0.857    -0.661    27.658     7.051
   761   6 C      2.747     0.283    22.206     7.716
   762   8 O      0.858    -0.503    23.862     6.549
   763   7 N      2.688    -0.195    25.223     7.459
   764   1 H      0.860     0.192     1.150     1.680
   765   6 C      3.785     0.030    20.083     6.383
   766   1 H      0.924     0.085     1.926     2.170
   767   6 C      3.827    -0.061    21.650     6.621
   768   1 H      0.925     0.029     2.594     2.518
   769   1 H      0.925     0.052     2.298     2.371
   770   6 C      3.803    -0.079    22.003     6.678
   771   1 H      0.925     0.078     1.995     2.209
   772   1 H      0.925     0.056     2.246     2.344
   773   6 C      3.804    -0.086    22.141     6.699
   774   1 H      0.925     0.064     2.152     2.294
   775   1 H      0.925     0.070     2.090     2.261
   776   6 C      3.730    -0.049    21.553     6.627
   777   1 H      0.924     0.130     1.532     1.935
   778   1 H      0.925     0.126     1.569     1.959
   779   7 N      3.488    -0.157    24.387     7.335
   780   1 H      0.860     0.305     0.700     1.310
   781   1 H      0.860     0.299     0.715     1.324
   782   1 H      0.860     0.305     0.700     1.310
   783   6 C      2.754     0.259    22.640     7.792
   784   8 O      0.859    -0.506    23.915     6.557
   785   7 N      2.682    -0.163    24.532     7.356
   786   1 H      0.860     0.190     1.157     1.685
   787   6 C      3.790     0.023    20.204     6.401
   788   1 H      0.925     0.103     1.760     2.074
   789   6 C      3.752    -0.132    23.099     6.854
   790   1 H      0.925     0.085     1.926     2.170
   791   1 H      0.925     0.091     1.869     2.138
   792   1 H      0.925     0.054     2.271     2.356
   793   6 C      2.757     0.272    22.396     7.750
   794   8 O      0.859    -0.513    24.078     6.579
   795   7 N      2.688    -0.184    24.983     7.423
   796   1 H      0.860     0.216     1.028     1.588
   797   6 C      3.793     0.016    20.321     6.420
   798   1 H      0.925     0.101     1.776     2.084
   799   6 C      3.845    -0.021    20.916     6.506
   800   1 H      0.924     0.059     2.211     2.325
   801   6 C      3.752    -0.110    22.673     6.790
   802   1 H      0.925     0.058     2.225     2.332
   803   1 H      0.925     0.040     2.453     2.449
   804   1 H      0.925     0.023     2.684     2.562
   805   6 C      3.800    -0.065    21.747     6.640
   806   1 H      0.925     0.048     2.339     2.392
   807   1 H      0.925     0.063     2.168     2.302
   808   6 C      3.750    -0.112    22.700     6.795
   809   1 H      0.924     0.026     2.640     2.541
   810   1 H      0.925     0.046     2.364     2.404
   811   1 H      0.925     0.048     2.341     2.393
   812   6 C      2.751     0.272    22.402     7.750
   813   8 O      0.863    -0.469    23.100     6.444
   814   7 N      2.687    -0.183    24.965     7.421
   815   1 H      0.860     0.186     1.178     1.700
   816   6 C      3.740    -0.025    21.092     6.553
   817   1 H      0.925     0.101     1.777     2.085
   818   1 H      0.924     0.082     1.962     2.191
   819   6 C      2.742     0.283    22.203     7.715
   820   8 O      0.858    -0.477    23.276     6.468
   821   7 N      2.689    -0.178    24.860     7.405
   822   1 H      0.860     0.191     1.153     1.682
   823   6 C      3.783     0.023    20.213     6.404
   824   1 H      0.925     0.071     2.075     2.253
   825   6 C      3.805    -0.076    21.941     6.668
   826   1 H      0.925     0.067     2.116     2.275
   827   1 H      0.925     0.066     2.133     2.284
   828   6 C      3.803    -0.069    21.813     6.649
   829   1 H      0.925     0.050     2.320     2.382
   830   1 H      0.925     0.067     2.120     2.277
   831   6 C      3.738    -0.017    20.964     6.534
   832   1 H      0.924     0.089     1.889     2.149
   833   1 H      0.925     0.079     1.985     2.203
   834   7 N      2.698    -0.165    24.578     7.363
   835   1 H      0.860     0.238     0.932     1.512
   836   6 C      2.733     0.230    23.166     7.880
   837   7 N      2.650    -0.243    26.331     7.621
   838   1 H      0.860     0.257     0.856     1.450
   839   1 H      0.860     0.236     0.939     1.518
   840   7 N      2.662    -0.260    26.755     7.682
   841   1 H      0.860     0.230     0.964     1.538
   842   1 H      0.860     0.246     0.900     1.486
   843   6 C      2.745     0.270    22.435     7.756
   844   8 O      0.857    -0.487    23.493     6.498
   845   7 N      2.676    -0.189    25.103     7.441
   846   1 H      0.860     0.218     1.016     1.579
   847   6 C      3.772     0.030    20.100     6.388
   848   1 H      0.924     0.060     2.203     2.321
   849   6 C      3.817    -0.115    22.680     6.778
   850   1 H      0.924     0.108     1.715     2.048
   851   1 H      0.925     0.080     1.977     2.199
   852   6 C      2.745     0.308    21.766     7.639
   853   8 O      0.865    -0.503    23.847     6.547
   854   7 N      2.656    -0.283    27.299     7.760
   855   1 H      0.860     0.242     0.916     1.500
   856   1 H      0.860     0.228     0.974     1.546
   857   6 C      2.745     0.288    22.125     7.702
   858   8 O      0.860    -0.448    22.671     6.384
   859   7 N      2.681    -0.192    25.160     7.450
   860   1 H      0.860     0.182     1.202     1.717
   861   6 C      3.793     0.009    20.440     6.438
   862   1 H      0.925     0.116     1.644     2.005
   863   6 C      3.793    -0.017    20.895     6.510
   864   1 H      0.925     0.067     2.116     2.275
   865   1 H      0.927     0.100     1.786     2.090
   866  16 S      1.910    -0.289   153.528    20.855
   867   1 H      0.923     0.167     1.285     1.773
   868   6 C      2.748     0.274    22.360     7.743
   869   8 O      0.858    -0.448    22.674     6.384
   870   7 N      2.684    -0.169    24.668     7.376
   871   1 H      0.860     0.197     1.119     1.657
   872   6 C      3.792     0.015    20.330     6.421
   873   1 H      0.924     0.092     1.856     2.131
   874   6 C      3.799    -0.094    22.287     6.722
   875   1 H      0.924     0.080     1.978     2.199
   876   1 H      0.924     0.079     1.987     2.204
   877   6 C      2.743     0.277    22.311     7.734
   878   8 O      0.865    -0.523    24.287     6.608
   879   7 N      2.641    -0.256    26.662     7.669
   880   1 H      0.860     0.267     0.820     1.419
   881   1 H      0.860     0.229     0.970     1.543
   882   6 C      2.777     0.261    22.595     7.786
   883   8 O      0.857    -0.470    23.139     6.449
   884   7 N      2.693    -0.140    24.031     7.281
   885   1 H      0.860     0.200     1.104     1.646
   886   6 C      3.767    -0.049    21.498     6.608
   887   1 H      0.924     0.134     1.503     1.917
   888   1 H      0.925     0.102     1.766     2.078
   889   6 C      2.744     0.268    22.473     7.762
   890   8 O      0.860    -0.483    23.416     6.488
   891   7 N      2.673    -0.166    24.583     7.364
   892   1 H      0.860     0.213     1.040     1.598
   893   6 C      3.764     0.003    20.575     6.466
   894   1 H      0.925     0.095     1.829     2.115
   895   6 C      3.837    -0.019    20.881     6.501
   896   1 H      0.925     0.050     2.321     2.382
   897   6 C      3.748    -0.123    22.926     6.829
   898   1 H      0.924     0.047     2.358     2.401
   899   1 H      0.924     0.015     2.805     2.619
   900   1 H      0.925     0.055     2.259     2.350
   901   6 C      3.754    -0.134    23.133     6.858
   902   1 H      0.924     0.069     2.091     2.262
   903   1 H      0.924     0.072     2.068     2.249
   904   1 H      0.924     0.060     2.194     2.316
   905   6 C      2.731     0.266    22.501     7.766
   906   8 O      0.858    -0.476    23.264     6.467
   907   7 N      2.679    -0.166    24.587     7.364
   908   1 H      0.860     0.221     1.006     1.571
   909   6 C      3.780     0.016    20.331     6.424
   910   1 H      0.924     0.061     2.191     2.315
   911   6 C      3.843    -0.028    21.037     6.525
   912   1 H      0.925     0.036     2.504     2.474
   913   6 C      3.746    -0.121    22.887     6.824
   914   1 H      0.924     0.061     2.190     2.314
   915   1 H      0.925     0.042     2.417     2.431
   916   1 H      0.925     0.054     2.272     2.357
   917   6 C      3.799    -0.070    21.837     6.654
   918   1 H      0.925     0.023     2.694     2.567
   919   1 H      0.925     0.065     2.147     2.291
   920   6 C      3.745    -0.119    22.852     6.819
   921   1 H      0.924     0.045     2.380     2.413
   922   1 H      0.925     0.062     2.172     2.305
   923   1 H      0.925     0.027     2.632     2.537
   924   6 C      2.741     0.257    22.664     7.795
   925   8 O      0.862    -0.495    23.681     6.525
   926   7 N      2.682    -0.178    24.857     7.405
   927   1 H      0.860     0.226     0.982     1.552
   928   6 C      3.775     0.008    20.471     6.447
   929   1 H      0.925     0.097     1.815     2.107
   930   6 C      3.706     0.101    19.052     6.240
   931   1 H      0.924     0.052     2.296     2.370
   932   6 C      3.748    -0.135    23.167     6.865
   933   1 H      0.925     0.067     2.117     2.275
   934   1 H      0.925     0.071     2.069     2.250
   935   1 H      0.924     0.072     2.059     2.244
   936   8 O      1.644    -0.528    23.509     6.545
   937   1 H      0.806     0.325     0.650     1.266
   938   6 C      2.747     0.271    22.413     7.752
   939   8 O      0.858    -0.482    23.384     6.483
   940   7 N      2.684    -0.188    25.086     7.439
   941   1 H      0.860     0.226     0.982     1.552
   942   6 C      3.786     0.023    20.201     6.402
   943   1 H      0.925     0.083     1.948     2.182
   944   6 C      3.807    -0.088    22.171     6.703
   945   1 H      0.924     0.074     2.047     2.237
   946   1 H      0.925     0.095     1.829     2.115
   947   6 C      3.803    -0.079    22.001     6.678
   948   1 H      0.925     0.062     2.174     2.306
   949   1 H      0.924     0.043     2.413     2.429
   950   6 C      3.805    -0.102    22.442     6.744
   951   1 H      0.925     0.072     2.065     2.247
   952   1 H      0.925     0.106     1.735     2.060
   953   6 C      3.737    -0.046    21.476     6.613
   954   1 H      0.925     0.129     1.544     1.943
   955   1 H      0.925     0.114     1.665     2.018
   956   7 N      3.487    -0.151    24.247     7.313
   957   1 H      0.860     0.279     0.781     1.384
   958   1 H      0.860     0.272     0.803     1.404
   959   1 H      0.860     0.295     0.728     1.337
   960   6 C      2.745     0.271    22.424     7.754
   961   8 O      0.859    -0.496    23.692     6.526
   962   7 N      2.697    -0.193    25.181     7.453
   963   1 H      0.860     0.203     1.089     1.634
   964   6 C      3.797     0.051    19.728     6.324
   965   1 H      0.925     0.062     2.177     2.307
   966   6 C      3.821    -0.095    22.288     6.718
   967   1 H      0.925     0.041     2.439     2.442
   968   1 H      0.924     0.044     2.394     2.420
   969   6 C      2.688     0.375    20.649     7.437
   970   8 O      0.858    -0.678    28.122     7.110
   971   8 O      0.857    -0.611    26.403     6.889
   972   6 C      2.747     0.279    22.278     7.729
   973   8 O      0.860    -0.506    23.925     6.558
   974   7 N      2.681    -0.188    25.087     7.439
   975   1 H      0.860     0.209     1.062     1.614
   976   6 C      3.784     0.023    20.198     6.402
   977   1 H      0.924     0.083     1.953     2.186
   978   6 C      3.813    -0.065    21.738     6.636
   979   1 H      0.925     0.065     2.144     2.290
   980   1 H      0.925     0.066     2.133     2.284
   981   6 C      3.799    -0.096    22.332     6.728
   982   1 H      0.925     0.049     2.332     2.388
   983   1 H      0.925     0.048     2.343     2.394
   984   6 C      2.689     0.356    20.963     7.493
   985   8 O      0.856    -0.599    26.093     6.849
   986   8 O      0.856    -0.595    25.988     6.835
   987   6 C      2.764     0.269    22.463     7.762
   988   8 O      0.863    -0.484    23.429     6.490
   989   7 N      2.690    -0.198    25.294     7.470
   990   1 H      0.860     0.231     0.960     1.535
   991   6 C      3.786     0.009    20.444     6.440
   992   1 H      0.924     0.090     1.875     2.141
   993   6 C      3.743    -0.133    23.143     6.863
   994   1 H      0.925     0.083     1.948     2.183
   995   1 H      0.924     0.076     2.022     2.224
   996   1 H      0.925     0.063     2.164     2.300
   997   6 C      2.742     0.268    22.467     7.761
   998   8 O      0.862    -0.486    23.470     6.495
   999   7 N      2.698    -0.186    25.021     7.429
  1000   1 H      0.860     0.211     1.053     1.607
  1001   6 C      3.787     0.028    20.120     6.389
  1002   1 H      0.925     0.078     2.003     2.213
  1003   6 C      3.801    -0.052    21.511     6.603
  1004   1 H      0.925     0.034     2.537     2.491
  1005   1 H      0.925     0.046     2.377     2.411
  1006   6 C      3.789    -0.090    22.229     6.715
  1007   1 H      0.925     0.052     2.292     2.368
  1008   1 H      0.925     0.036     2.500     2.472
  1009   6 C      2.682     0.349    21.077     7.513
  1010   8 O      0.855    -0.636    27.021     6.969
  1011   8 O      0.855    -0.625    26.739     6.933
  1012   6 C      2.749     0.268    22.478     7.763
  1013   8 O      0.861    -0.484    23.431     6.490
  1014   7 N      2.697    -0.175    24.782     7.394
  1015   1 H      0.860     0.196     1.126     1.662
  1016   6 C      3.802     0.024    20.178     6.395
  1017   1 H      0.925     0.089     1.885     2.147
  1018   6 C      3.818    -0.082    22.058     6.684
  1019   1 H      0.924     0.056     2.248     2.345
  1020   1 H      0.925     0.065     2.136     2.286
  1021   6 C      3.793    -0.091    22.251     6.717
  1022   1 H      0.925     0.066     2.130     2.282
  1023   1 H      0.925     0.057     2.230     2.335
  1024   6 C      3.791    -0.106    22.528     6.759
  1025   1 H      0.924     0.087     1.905     2.159
  1026   1 H      0.925     0.071     2.073     2.252
  1027   6 C      3.731    -0.060    21.754     6.658
  1028   1 H      0.924     0.130     1.536     1.938
  1029   1 H      0.925     0.130     1.532     1.935
  1030   7 N      3.489    -0.144    24.110     7.293
  1031   1 H      0.860     0.304     0.702     1.312
  1032   1 H      0.860     0.308     0.690     1.301
  1033   1 H      0.860     0.300     0.714     1.324
  1034   6 C      2.759     0.268    22.471     7.763
  1035   8 O      0.864    -0.497    23.713     6.529
  1036   7 N      2.701    -0.179    24.876     7.408
  1037   1 H      0.860     0.222     1.000     1.567
  1038   6 C      3.794     0.025    20.155     6.393
  1039   1 H      0.924     0.085     1.932     2.173
  1040   6 C      3.821    -0.081    22.031     6.680
  1041   1 H      0.925     0.049     2.335     2.390
  1042   1 H      0.924     0.075     2.034     2.231
  1043   6 C      3.851    -0.011    20.742     6.478
  1044   1 H      0.924     0.018     2.757     2.596
  1045   6 C      3.758    -0.135    23.138     6.858
  1046   1 H      0.924     0.051     2.311     2.377
  1047   1 H      0.924     0.048     2.346     2.395
  1048   1 H      0.924     0.060     2.195     2.317
  1049   6 C      3.758    -0.134    23.120     6.855
  1050   1 H      0.924     0.045     2.384     2.414
  1051   1 H      0.925     0.059     2.209     2.324
  1052   1 H      0.925     0.053     2.281     2.362
  1053   6 C      2.751     0.281    22.245     7.723
  1054   8 O      0.862    -0.497    23.719     6.530
  1055   7 N      2.690    -0.178    24.851     7.404
  1056   1 H      0.860     0.206     1.078     1.627
  1057   6 C      3.796     0.045    19.824     6.340
  1058   1 H      0.924     0.082     1.961     2.190
  1059   6 C      3.818    -0.073    21.872     6.656
  1060   1 H      0.925     0.053     2.283     2.363
  1061   1 H      0.924     0.069     2.093     2.263
  1062   6 C      2.955    -0.000    28.040     8.685
  1063   6 C      2.906    -0.050    29.235     8.866
  1064   1 H      0.926     0.035     2.522     2.483
  1065   6 C      2.903    -0.035    28.870     8.810
  1066   1 H      0.926     0.056     2.244     2.342
  1067   6 C      2.904    -0.040    28.993     8.829
  1068   1 H      0.926     0.074     2.039     2.233
  1069   6 C      2.914    -0.028    28.695     8.784
  1070   1 H      0.926     0.035     2.516     2.481
  1071   6 C      2.907    -0.038    28.937     8.821
  1072   1 H      0.926     0.022     2.707     2.573
  1073   6 C      2.754     0.262    22.592     7.783
  1074   8 O      0.857    -0.508    23.973     6.565
  1075   7 N      2.680    -0.194    25.203     7.456
  1076   1 H      0.860     0.220     1.008     1.573
  1077   6 C      3.796     0.034    20.008     6.369
  1078   1 H      0.924     0.090     1.880     2.144
  1079   6 C      3.802    -0.110    22.593     6.767
  1080   1 H      0.925     0.078     2.004     2.214
  1081   1 H      0.925     0.101     1.777     2.084
  1082   6 C      2.747     0.280    22.255     7.724
  1083   8 O      0.858    -0.472    23.178     6.455
  1084   7 N      2.635    -0.295    27.611     7.804
  1085   1 H      0.860     0.242     0.917     1.500
  1086   1 H      0.860     0.233     0.950     1.527
  1087   6 C      2.752     0.271    22.419     7.753
  1088   8 O      0.859    -0.490    23.570     6.509
  1089   7 N      2.689    -0.184    24.977     7.423
  1090   1 H      0.860     0.224     0.992     1.561
  1091   6 C      3.800     0.031    20.059     6.377
  1092   1 H      0.924     0.077     2.007     2.215
  1093   6 C      3.811    -0.061    21.662     6.625
  1094   1 H      0.924     0.063     2.166     2.302
  1095   1 H      0.925     0.062     2.171     2.304
  1096   6 C      3.803    -0.114    22.667     6.778
  1097   1 H      0.925     0.079     1.991     2.206
  1098   1 H      0.925     0.079     1.984     2.203
  1099   6 C      2.740     0.284    22.190     7.713
  1100   8 O      0.866    -0.521    24.247     6.602
  1101   7 N      2.645    -0.272    27.038     7.723
  1102   1 H      0.860     0.252     0.876     1.466
  1103   1 H      0.860     0.237     0.934     1.514
  1104   6 C      2.753     0.286    22.154     7.707
  1105   8 O      0.866    -0.488    23.510     6.501
  1106   7 N      2.688    -0.179    24.877     7.408
  1107   1 H      0.860     0.192     1.148     1.679
  1108   6 C      3.780     0.044    19.852     6.347
  1109   1 H      0.925     0.074     2.040     2.233
  1110   6 C      3.804    -0.086    22.130     6.697
  1111   1 H      0.925     0.040     2.453     2.449
  1112   1 H      0.924     0.031     2.572     2.508
  1113   6 C      2.687     0.374    20.663     7.439
  1114   8 O      0.859    -0.620    26.607     6.916
  1115   8 O      0.859    -0.620    26.622     6.918
  1116   6 C      2.744     0.259    22.633     7.790
  1117   8 O      0.857    -0.481    23.376     6.482
  1118   7 N      2.687    -0.206    25.470     7.495
  1119   1 H      0.860     0.215     1.033     1.592
  1120   6 C      3.793     0.021    20.237     6.406
  1121   1 H      0.924     0.075     2.027     2.226
  1122   6 C      3.840    -0.018    20.865     6.498
  1123   1 H      0.924     0.038     2.478     2.462
  1124   6 C      3.750    -0.126    22.986     6.838
  1125   1 H      0.925     0.075     2.035     2.231
  1126   1 H      0.924     0.063     2.166     2.302
  1127   1 H      0.925     0.046     2.373     2.409
  1128   6 C      3.773    -0.117    22.768     6.799
  1129   1 H      0.925     0.058     2.224     2.332
  1130   1 H      0.925     0.063     2.168     2.303
  1131   1 H      0.924     0.029     2.599     2.521
  1132   6 C      2.758     0.286    22.162     7.709
  1133   8 O      0.864    -0.458    22.865     6.411
  1134   7 N      2.692    -0.222    25.848     7.551
  1135   1 H      0.860     0.205     1.079     1.627
  1136   6 C      3.782     0.044    19.853     6.347
  1137   1 H      0.925     0.061     2.185     2.312
  1138   6 C      3.808    -0.089    22.184     6.705
  1139   1 H      0.924     0.029     2.600     2.522
  1140   1 H      0.925     0.027     2.629     2.536
  1141   6 C      2.691     0.368    20.763     7.457
  1142   8 O      0.857    -0.627    26.790     6.940
  1143   8 O      0.859    -0.617    26.544     6.908
  1144   6 C      2.735     0.275    22.354     7.741
  1145   8 O      0.860    -0.477    23.273     6.468
  1146   7 N      2.687    -0.180    24.898     7.411
  1147   1 H      0.860     0.203     1.090     1.636
  1148   6 C      3.786     0.028    20.119     6.389
  1149   1 H      0.924     0.091     1.869     2.138
  1150   6 C      3.770    -0.130    23.026     6.838
  1151   1 H      0.925     0.048     2.342     2.393
  1152   1 H      0.925     0.075     2.031     2.229
  1153   1 H      0.924     0.077     2.015     2.220
  1154   6 C      2.755     0.271    22.413     7.752
  1155   8 O      0.859    -0.490    23.571     6.509
  1156   7 N      2.684    -0.188    25.081     7.438
  1157   1 H      0.860     0.215     1.032     1.591
  1158   6 C      3.785     0.030    20.078     6.383
  1159   1 H      0.924     0.080     1.975     2.198
[...]
  2291  N   3.474        C 2289 1.299    C 2293 0.978    H 2292 0.917    O 2290 0.202
  2292  H   0.958        N 2291 0.917
  2293  C   3.961        C 2295 0.989    N 2291 0.978    H 2294 0.943    C 2313 0.932
  2294  H   0.990        C 2293 0.943
  2295  C   3.982        C 2298 0.994    C 2293 0.989    H 2297 0.969    H 2296 0.969
  2296  H   0.995        C 2295 0.969
  2297  H   0.994        C 2295 0.969
  2298  C   3.977        C 2301 0.998    C 2295 0.994    H 2300 0.975    H 2299 0.975
  2299  H   0.994        C 2298 0.975
  2300  H   0.992        C 2298 0.975
  2301  C   3.948        C 2298 0.998    N 2304 0.974    H 2302 0.967    H 2303 0.961
  2302  H   0.994        C 2301 0.967
  2303  H   0.996        C 2301 0.961
  2304  N   3.456        C 2306 1.326    C 2301 0.974    H 2305 0.884    N 2310 0.118
  2305  H   0.937        N 2304 0.884
  2306  C   3.978        N 2310 1.376    N 2304 1.326    N 2307 1.249
  2307  N   3.327        C 2306 1.249    H 2309 0.925    H 2308 0.924
  2308  H   0.950        N 2307 0.924
  2309  H   0.948        N 2307 0.925
  2310  N   3.433        C 2306 1.376    H 2311 0.920    H 2312 0.858    N 2304 0.118
  2311  H   0.950        N 2310 0.920
  2312  H   0.923        N 2310 0.858
  2313  C   3.950        O 2314 1.643    N 2315 1.289    C 2293 0.932
  2314  O   1.994        C 2313 1.643    N 2315 0.203
  2315  N   3.450        C 2313 1.289    C 2317 0.962    H 2316 0.901    O 2314 0.203
  2316  H   0.949        N 2315 0.901
  2317  C   3.954        C 2319 0.999    N 2315 0.962    H 2318 0.952    C 2323 0.925
  2318  H   0.992        C 2317 0.952
  2319  C   3.984        C 2317 0.999    H 2322 0.978    H 2321 0.977    H 2320 0.971
  2320  H   0.994        C 2319 0.971
  2321  H   0.995        C 2319 0.977
  2322  H   0.996        C 2319 0.978
  2323  C   3.952        O 2324 1.620    N 2325 1.330    C 2317 0.925
  2324  O   1.964        C 2323 1.620    N 2325 0.203
  2325  N   3.483        C 2323 1.330    C 2327 0.970    H 2326 0.885    O 2324 0.203
  2326  H   0.947        N 2325 0.885
  2327  C   3.958        C 2329 0.979    N 2325 0.970    H 2328 0.945    C 2345 0.943
  2328  H   0.991        C 2327 0.945
  2329  C   3.979        C 2332 1.012    C 2327 0.979    H 2330 0.965    H 2331 0.960
  2330  H   0.993        C 2329 0.965
  2331  H   0.994        C 2329 0.960
  2332  C   3.987        C 2329 1.012    C 2335 1.001    H 2333 0.968    H 2334 0.965
  2333  H   0.995        C 2332 0.968
  2334  H   0.993        C 2332 0.965
  2335  C   3.982        C 2332 1.001    C 2338 0.997    H 2337 0.973    H 2336 0.971
  2336  H   0.992        C 2335 0.971
  2337  H   0.993        C 2335 0.973
  2338  C   3.914        C 2335 0.997    N 2341 0.971    H 2339 0.960    H 2340 0.949
  2339  H   0.988        C 2338 0.960
  2340  H   0.989        C 2338 0.949
  2341  N   3.663        C 2338 0.971    H 2342 0.896    H 2344 0.894    H 2343 0.884
  2342  H   0.915        N 2341 0.896
  2343  H   0.911        N 2341 0.884
  2344  H   0.911        N 2341 0.894
  2345  C   3.944        O 2346 1.605    N 2347 1.317    C 2327 0.943
  2346  O   1.931        C 2345 1.605    N 2347 0.196
  2347  N   3.467        C 2345 1.317    C 2349 0.961    H 2348 0.911    O 2346 0.196
  2348  H   0.954        N 2347 0.911
  2349  C   3.961        C 2351 0.980    N 2347 0.961    H 2350 0.954    C 2369 0.937
  2350  H   0.991        C 2349 0.954
  2351  C   3.983        C 2354 0.998    C 2349 0.980    H 2352 0.965    H 2353 0.964
  2352  H   0.995        C 2351 0.965
  2353  H   0.994        C 2351 0.964
  2354  C   3.988        C 2357 1.000    C 2351 0.998    H 2355 0.973    H 2356 0.968
  2355  H   0.993        C 2354 0.973
  2356  H   0.995        C 2354 0.968
  2357  C   3.952        C 2354 1.000    N 2360 0.979    H 2359 0.963    H 2358 0.959
  2358  H   0.993        C 2357 0.959
  2359  H   0.994        C 2357 0.963
  2360  N   3.468        C 2362 1.315    C 2357 0.979    H 2361 0.898    N 2366 0.103
  2361  H   0.949        N 2360 0.898
  2362  C   3.979        N 2366 1.325    N 2360 1.315    N 2363 1.312
  2363  N   3.379        C 2362 1.312    H 2365 0.918    H 2364 0.873
  2364  H   0.946        N 2363 0.873
  2365  H   0.946        N 2363 0.918
  2366  N   3.399        C 2362 1.325    H 2367 0.918    H 2368 0.883    N 2360 0.103
  2367  H   0.944        N 2366 0.918
  2368  H   0.945        N 2366 0.883
  2369  C   3.947        O 2370 1.559    N 2371 1.359    C 2349 0.937
  2370  O   1.925        C 2369 1.559    N 2371 0.190
  2371  N   3.490        C 2369 1.359    C 2373 0.960    H 2372 0.885    O 2370 0.190
  2372  H   0.943        N 2371 0.885
  2373  C   3.950        C 2375 0.968    N 2371 0.960    H 2374 0.955    C 2385 0.925
  2374  H   0.994        C 2373 0.955
  2375  C   3.987        C 2381 1.014    C 2377 1.003    C 2373 0.968    H 2376 0.960
  2376  H   0.996        C 2375 0.960
  2377  C   3.987        C 2375 1.003    H 2379 0.984    H 2380 0.982    H 2378 0.977
  2378  H   0.996        C 2377 0.977
  2379  H   0.997        C 2377 0.984
  2380  H   0.998        C 2377 0.982
  2381  C   3.992        C 2375 1.014    H 2382 0.981    H 2383 0.975    H 2384 0.973
  2382  H   0.998        C 2381 0.981
  2383  H   0.996        C 2381 0.975
  2384  H   0.996        C 2381 0.973
  2385  C   3.949        O 2386 1.628    N 2387 1.320    C 2373 0.925
  2386  O   1.969        C 2385 1.628    N 2387 0.201
  2387  N   3.474        C 2385 1.320    C 2389 0.967    H 2388 0.900    O 2386 0.201
  2388  H   0.949        N 2387 0.900
  2389  C   3.952        C 2391 0.967    N 2387 0.967    H 2390 0.945    C 2404 0.942
  2390  H   0.992        C 2389 0.945
  2391  C   3.982        C 2393 1.004    C 2397 0.992    C 2389 0.967    H 2392 0.959
  2392  H   0.996        C 2391 0.959
  2393  C   3.988        C 2391 1.004    H 2395 0.984    H 2394 0.984    H 2396 0.975
  2394  H   0.997        C 2393 0.984
  2395  H   0.999        C 2393 0.984
  2396  H   0.994        C 2393 0.975
  2397  C   3.988        C 2400 1.017    C 2391 0.992    H 2398 0.973    H 2399 0.967
  2398  H   0.998        C 2397 0.973
  2399  H   0.997        C 2397 0.967
  2400  C   3.992        C 2397 1.017    H 2403 0.987    H 2402 0.981    H 2401 0.979
  2401  H   0.997        C 2400 0.979
  2402  H   0.998        C 2400 0.981
  2403  H   0.998        C 2400 0.987
  2404  C   3.946        O 2405 1.620    N 2406 1.293    C 2389 0.942
  2405  O   1.949        C 2404 1.620    N 2406 0.194
  2406  N   3.460        C 2404 1.293    C 2408 0.998    H 2407 0.894    O 2405 0.194
  2407  H   0.945        N 2406 0.894
  2408  C   3.967        N 2406 0.998    C 2410 0.953    H 2409 0.945    C 2418 0.915
  2409  H   0.991        C 2408 0.945
  2410  C   3.966        O 2416 1.012    C 2412 0.990    H 2411 0.965    C 2408 0.953
  2411  H   0.999        C 2410 0.965
  2412  C   3.983        C 2410 0.990    H 2414 0.983    H 2413 0.982    H 2415 0.981
  2413  H   0.996        C 2412 0.982
  2414  H   1.000        C 2412 0.983
  2415  H   0.996        C 2412 0.981
  2416  O   1.956        C 2410 1.012    H 2417 0.864
  2417  H   0.880        O 2416 0.864
  2418  C   3.949        O 2419 1.644    N 2420 1.310    C 2408 0.915
  2419  O   1.994        C 2418 1.644    N 2420 0.197
  2420  N   3.471        C 2418 1.310    C 2422 0.975    H 2421 0.902    O 2419 0.197
  2421  H   0.953        N 2420 0.902
  2422  C   3.962        N 2420 0.975    C 2432 0.964    H 2423 0.945    C 2424 0.943
  2423  H   0.992        C 2422 0.945
  2424  C   3.954        C 2426 1.009    O 2430 0.994    H 2425 0.960    C 2422 0.943
  2425  H   0.998        C 2424 0.960
  2426  C   3.988        C 2424 1.009    H 2429 0.983    H 2427 0.981    H 2428 0.980
  2427  H   0.997        C 2426 0.981
  2428  H   0.995        C 2426 0.980
  2429  H   0.996        C 2426 0.983
  2430  O   1.939        C 2424 0.994    H 2431 0.839
  2431  H   0.891        O 2430 0.839
  2432  C   3.951        O 2433 1.615    N 2434 1.285    C 2422 0.964
  2433  O   1.961        C 2432 1.615    N 2434 0.196
  2434  N   3.451        C 2432 1.285    C 2436 0.971    H 2435 0.906    O 2433 0.196
  2435  H   0.953        N 2434 0.906
  2436  C   3.956        N 2434 0.971    C 2438 0.971    C 2452 0.943    H 2437 0.937
  2437  H   0.992        C 2436 0.937
  2438  C   3.979        C 2441 1.008    C 2436 0.971    H 2440 0.963    H 2439 0.950
  2439  H   0.993        C 2438 0.950
  2440  H   0.994        C 2438 0.963
  2441  C   3.986        C 2450 1.452    C 2442 1.376    C 2438 1.008    C 2446 0.106
  2442  C   3.987        C 2444 1.468    C 2441 1.376    H 2443 0.969    C 2448 0.116
  2443  H   0.998        C 2442 0.969
  2444  C   3.988        C 2442 1.468    C 2446 1.411    H 2445 0.970    C 2450 0.111
  2445  H   0.996        C 2444 0.970
  2446  C   3.990        C 2448 1.470    C 2444 1.411    H 2447 0.967    C 2441 0.106
  2447  H   0.997        C 2446 0.967
  2448  C   3.992        C 2446 1.470    C 2450 1.406    H 2449 0.966    C 2442 0.116
  2449  H   0.998        C 2448 0.966
  2450  C   3.991        C 2441 1.452    C 2448 1.406    H 2451 0.962    C 2444 0.111
  2451  H   0.998        C 2450 0.962
  2452  C   3.950        O 2453 1.589    N 2454 1.336    C 2436 0.943
  2453  O   1.944        C 2452 1.589    N 2454 0.190
  2454  N   3.480        C 2452 1.336    C 2456 0.956    H 2455 0.904    O 2453 0.190
  2455  H   0.952        N 2454 0.904
  2456  C   3.956        C 2458 1.004    N 2454 0.956    H 2457 0.947    C 2476 0.902
  2457  H   0.991        C 2456 0.947
  2458  C   3.986        C 2456 1.004    C 2461 0.989    H 2459 0.966    H 2460 0.964
  2459  H   0.994        C 2458 0.966
  2460  H   0.994        C 2458 0.964
  2461  C   3.985        C 2464 0.993    C 2458 0.989    H 2463 0.976    H 2462 0.968
  2462  H   0.992        C 2461 0.968
  2463  H   0.996        C 2461 0.976
  2464  C   3.947        C 2461 0.993    N 2467 0.981    H 2465 0.965    H 2466 0.962
  2465  H   0.994        C 2464 0.965
  2466  H   0.991        C 2464 0.962
  2467  N   3.424        C 2469 1.264    C 2464 0.981    H 2468 0.917
  2468  H   0.951        N 2467 0.917
  2469  C   3.978        N 2470 1.354    N 2473 1.331    N 2467 1.264
  2470  N   3.434        C 2469 1.354    H 2472 0.920    H 2471 0.892    N 2473 0.111
  2471  H   0.941        N 2470 0.892
  2472  H   0.947        N 2470 0.920
  2473  N   3.402        C 2469 1.331    H 2474 0.914    H 2475 0.907    N 2470 0.111
  2474  H   0.936        N 2473 0.914
  2475  H   0.934        N 2473 0.907
  2476  C   3.946        O 2477 1.667    N 2478 1.304    C 2456 0.902
  2477  O   1.993        C 2476 1.667    N 2478 0.199
  2478  N   3.459        C 2476 1.304    C 2480 0.966    H 2479 0.905    O 2477 0.199
  2479  H   0.950        N 2478 0.905
  2480  C   3.970        C 2482 0.970    N 2478 0.966    C 2490 0.954    H 2481 0.950
  2481  H   0.991        C 2480 0.950
  2482  C   3.957        C 2484 1.004    O 2488 0.975    C 2480 0.970    H 2483 0.958
  2483  H   0.998        C 2482 0.958
  2484  C   3.988        C 2482 1.004    H 2486 0.982    H 2487 0.980    H 2485 0.976
  2485  H   0.994        C 2484 0.976
  2486  H   0.997        C 2484 0.982
  2487  H   0.997        C 2484 0.980
  2488  O   1.947        C 2482 0.975    H 2489 0.880
  2489  H   0.901        O 2488 0.880
  2490  C   3.952        O 2491 1.636    N 2492 1.286    C 2480 0.954
  2491  O   1.945        C 2490 1.636    N 2492 0.201
  2492  N   3.455        C 2490 1.286    C 2494 0.994    H 2493 0.893    O 2491 0.201
  2493  H   0.947        N 2492 0.893
  2494  C   3.960        N 2492 0.994    H 2495 0.954    H 2496 0.949    C 2497 0.937
  2495  H   0.989        C 2494 0.954
  2496  H   0.991        C 2494 0.949
  2497  C   3.946        O 2498 1.687    N 2499 1.261    C 2494 0.937
  2498  O   2.011        C 2497 1.687    N 2499 0.200
  2499  N   3.437        C 2497 1.261    C 2501 0.978    H 2500 0.914    O 2498 0.200
  2500  H   0.956        N 2499 0.914
  2501  C   3.974        N 2499 0.978    C 2503 0.967    H 2502 0.950    C 2511 0.920
  2502  H   0.994        C 2501 0.950
  2503  C   3.953        O 2509 0.992    C 2505 0.989    C 2501 0.967    H 2504 0.954
  2504  H   0.999        C 2503 0.954
  2505  C   3.987        C 2503 0.989    H 2507 0.985    H 2508 0.983    H 2506 0.982
  2506  H   0.996        C 2505 0.982
  2507  H   0.996        C 2505 0.985
  2508  H   0.994        C 2505 0.983
  2509  O   1.952        C 2503 0.992    H 2510 0.872
  2510  H   0.893        O 2509 0.872
  2511  C   3.952        O 2512 1.666    N 2513 1.293    C 2501 0.920
  2512  O   1.990        C 2511 1.666    N 2513 0.201
  2513  N   3.445        C 2511 1.293    C 2515 0.952    H 2514 0.924    O 2512 0.201
  2514  H   0.960        N 2513 0.924
  2515  C   3.953        C 2517 0.974    N 2513 0.952    C 2535 0.944    H 2516 0.939
  2516  H   0.990        C 2515 0.939
  2517  C   3.981        C 2520 1.007    C 2515 0.974    H 2519 0.972    H 2518 0.957
  2518  H   0.996        C 2517 0.957
  2519  H   0.996        C 2517 0.972
  2520  C   3.966        C 2521 1.633    C 2534 1.144    C 2517 1.007
  2521  C   3.958        C 2520 1.633    N 2523 1.181    H 2522 0.965
  2522  H   0.995        C 2521 0.965
  2523  N   3.514        C 2521 1.181    C 2525 1.161    H 2524 0.935
  2524  H   0.960        N 2523 0.935
  2525  C   3.957        C 2526 1.403    C 2534 1.212    N 2523 1.161
  2526  C   3.984        C 2525 1.403    C 2528 1.397    H 2527 0.966    C 2532 0.123
  2527  H   0.996        C 2526 0.966
  2528  C   3.987        C 2530 1.468    C 2526 1.397    H 2529 0.966
  2529  H   0.996        C 2528 0.966
  2530  C   3.988        C 2528 1.468    C 2532 1.406    H 2531 0.970
  2531  H   0.998        C 2530 0.970
  2532  C   3.988        C 2534 1.409    C 2530 1.406    H 2533 0.972    C 2526 0.123
  2533  H   0.999        C 2532 0.972
  2534  C   3.977        C 2532 1.409    C 2525 1.212    C 2520 1.144
  2535  C   3.937        O 2536 1.619    N 2537 1.294    C 2515 0.944
  2536  O   1.962        C 2535 1.619    N 2537 0.193
  2537  N   3.452        C 2535 1.294    C 2539 0.959    H 2538 0.913    O 2536 0.193
  2538  H   0.957        N 2537 0.913
  2539  C   3.962        C 2541 0.977    N 2537 0.959    C 2547 0.947    H 2540 0.942
  2540  H   0.995        C 2539 0.942
  2541  C   3.983        C 2539 0.977    H 2542 0.974    H 2543 0.957    C 2544 0.945
  2542  H   0.999        C 2541 0.974
  2543  H   0.996        C 2541 0.957
  2544  C   3.942        O 2546 1.542    O 2545 1.426    C 2541 0.945
  2545  O   1.773        C 2544 1.426    O 2546 0.218
  2546  O   1.836        C 2544 1.542    O 2545 0.218
  2547  C   3.952        O 2548 1.625    N 2549 1.303    C 2539 0.947
  2548  O   1.936        C 2547 1.625    N 2549 0.192
  2549  N   3.465        C 2547 1.303    C 2551 0.969    H 2550 0.926    O 2548 0.192
  2550  H   0.958        N 2549 0.926
  2551  C   3.945        C 2553 0.986    N 2549 0.969    H 2552 0.948    C 2557 0.908
  2552  H   0.991        C 2551 0.948
  2553  C   3.977        C 2551 0.986    H 2556 0.985    H 2554 0.980    H 2555 0.979
  2554  H   0.994        C 2553 0.980
  2555  H   0.993        C 2553 0.979
  2556  H   0.995        C 2553 0.985
  2557  C   3.945        O 2558 1.684    N 2559 1.278    C 2551 0.908
  2558  O   2.011        C 2557 1.684    N 2559 0.198
  2559  N   3.444        C 2557 1.278    C 2561 0.964    H 2560 0.901    O 2558 0.198
  2560  H   0.960        N 2559 0.901
  2561  C   3.962        C 2563 0.977    N 2559 0.964    H 2562 0.954    C 2578 0.912
  2562  H   0.995        C 2561 0.954
  2563  C   3.984        C 2566 1.006    C 2561 0.977    H 2565 0.966    H 2564 0.958
  2564  H   0.997        C 2563 0.958
  2565  H   0.998        C 2563 0.966
  2566  C   3.985        C 2576 1.451    C 2567 1.383    C 2563 1.006
  2567  C   3.989        C 2569 1.464    C 2566 1.383    H 2568 0.969    C 2574 0.117
  2568  H   0.998        C 2567 0.969
  2569  C   3.985        C 2567 1.464    C 2571 1.354    H 2570 0.964    C 2576 0.112
  2570  H   0.995        C 2569 0.964
  2571  C   3.951        C 2574 1.397    C 2569 1.354    O 2572 1.082
  2572  O   2.073        C 2571 1.082    H 2573 0.789
  2573  H   0.881        O 2572 0.789
  2574  C   3.984        C 2571 1.397    C 2576 1.389    H 2575 0.967    C 2567 0.117
  2575  H   0.998        C 2574 0.967
  2576  C   3.988        C 2566 1.451    C 2574 1.389    H 2577 0.963    C 2569 0.112
  2577  H   1.000        C 2576 0.963
  2578  C   3.944        O 2579 1.627    N 2580 1.330    C 2561 0.912
  2579  O   1.949        C 2578 1.627    N 2580 0.199
  2580  N   3.484        C 2578 1.330    C 2582 0.948    H 2581 0.927    O 2579 0.199
  2581  H   0.964        N 2580 0.927
  2582  C   3.952        C 2584 0.985    H 2583 0.968    N 2580 0.948    C 2600 0.926
  2583  H   0.998        C 2582 0.968
  2584  C   3.990        C 2587 0.987    C 2582 0.985    H 2586 0.977    H 2585 0.966
  2585  H   0.997        C 2584 0.966
  2586  H   0.998        C 2584 0.977
  2587  C   3.990        C 2590 1.013    C 2584 0.987    H 2588 0.977    H 2589 0.976
  2588  H   0.998        C 2587 0.977
  2589  H   0.999        C 2587 0.976
  2590  C   3.984        C 2593 1.015    C 2587 1.013    H 2591 0.965    H 2592 0.963
  2591  H   0.996        C 2590 0.965
  2592  H   0.993        C 2590 0.963
  2593  C   3.917        C 2590 1.015    H 2594 0.962    H 2595 0.957    N 2596 0.954
  2594  H   0.986        C 2593 0.962
  2595  H   0.990        C 2593 0.957
  2596  N   3.646        C 2593 0.954    H 2597 0.898    H 2598 0.897    H 2599 0.845
  2597  H   0.915        N 2596 0.898
  2598  H   0.916        N 2596 0.897
  2599  H   0.915        N 2596 0.845
  2600  C   3.939        O 2601 1.500    O 2602 1.475    C 2582 0.926
  2601  O   1.798        C 2600 1.500    O 2602 0.226
  2602  O   1.768        C 2600 1.475    O 2601 0.226
  2603  F   1.054        C 2604 0.930
  2604  C   3.863        C 2605 1.448    C 2613 1.268    F 2603 0.930
  2605  C   3.987        C 2604 1.448    C 2607 1.404    H 2606 0.963
  2606  H   0.996        C 2605 0.963
  2607  C   3.985        C 2609 1.435    C 2605 1.404    H 2608 0.969
  2608  H   0.998        C 2607 0.969
  2609  C   3.988        C 2607 1.435    C 2611 1.433    H 2610 0.970
  2610  H   0.998        C 2609 0.970
  2611  C   3.983        C 2609 1.433    C 2613 1.368    H 2612 0.962
  2612  H   0.997        C 2611 0.962
  2613  C   3.976        C 2611 1.368    C 2604 1.268    N 2614 1.193
  2614  N   3.288        C 2613 1.193    H 2615 0.940    H 2616 0.932
  2615  H   0.961        N 2614 0.940
  2616  H   0.961        N 2614 0.932

molecular dipole:
                 x           y           z       tot (Debye)
 q only:      597.572     669.251     665.800
   full:      600.385     669.523     675.697    2859.087
molecular quadrupole (traceless):
                xx          xy          yy          xz          yz          zz
 q only:   -10821.589   70123.138    5029.192   69513.066   78626.568    5792.397
  q+dip:   -11390.038   70009.021    4089.717   70678.198   79681.223    7300.321
   full:   -11382.234   70013.225    4067.014   70681.665   79681.209    7315.220


           -------------------------------------------------
          | TOTAL ENERGY            -4108.809835155887 Eh   |
          | GRADIENT NORM               1.293960075005 Eh/α |
          | HOMO-LUMO GAP               1.580275985509 eV   |
           -------------------------------------------------

------------------------------------------------------------------------
 * finished run on 2020/06/09 at 13:53:23.884     
------------------------------------------------------------------------
 total:
 * wall-time:     0 d,  0 h,  7 min, 32.360 sec
 *  cpu-time:     0 d,  5 h, 42 min,  6.521 sec
 * ratio c/w:    45.376 speedup
 SCF:
 * wall-time:     0 d,  0 h,  7 min,  3.967 sec
 *  cpu-time:     0 d,  5 h, 33 min, 12.870 sec
 * ratio c/w:    47.157 speedup

