      -----------------------------------------------------------      
     |                   =====================                   |     
     |                           x T B                           |     
     |                   =====================                   |     
     |                         S. Grimme                         |     
     |          Mulliken Center for Theoretical Chemistry        |     
     |                    University of Bonn                     |     
      -----------------------------------------------------------      

   * xtb version 6.2.3 (d7bf61a) compiled by 'conda@06d140edd85e' on 2020-05-12

   xtb is free software: you can redistribute it and/or modify it under
   the terms of the GNU Lesser General Public License as published by
   the Free Software Foundation, either version 3 of the License, or
   (at your option) any later version.
   
   xtb is distributed in the hope that it will be useful,
   but WITHOUT ANY WARRANTY; without even the implied warranty of
   MERCHANTABILITY or FITNESS FOR A PARTICULAR PURPOSE.  See the
   GNU Lesser General Public License for more details.
   
   Cite this work as:
   * S. Grimme, C. Bannwarth, P. Shushkov, J. Chem. Theory Comput., 2017,
     13, 1989-2009. DOI: 10.1021/acs.jctc.7b00118
   * C. Bannwarth, S. Ehlert and S. Grimme., J. Chem. Theory Comput., 2019,
     15, 1652-1671. DOI: 10.1021/acs.jctc.8b01176
   * P. Pracht, E. Caldeweyher, S. Ehlert, S. Grimme, ChemRxiv, 2019, preprint.
     DOI: 10.26434/chemrxiv.8326202.v1
   
   for DFT-D4:
   * E. Caldeweyher, C. Bannwarth and S. Grimme, J. Chem. Phys., 2017,
     147, 034112. DOI: 10.1063/1.4993215
   * E. Caldeweyher, S. Ehlert, A. Hansen, H. Neugebauer, S. Spicher,
     C. Bannwarth and S. Grimme, J. Chem. Phys., 2019, 150, 154122.
     DOI: 10.1063/1.5090222
   
   for sTDA-xTB:
   * S. Grimme and C. Bannwarth, J. Chem. Phys., 2016, 145, 054103.
     DOI: 10.1063/1.4959605
   
   in the mass-spec context:
   * V. Asgeirsson, C. Bauer and S. Grimme, Chem. Sci., 2017, 8, 4879.
     DOI: 10.1039/c7sc00601b
   
   for metadynamics refer to:
   * S. Grimme, J. Chem. Theory Comput., 2019, 155, 2847-2862
     DOI: 10.1021/acs.jctc.9b00143
   
   with help from (in alphabetical order)
   C. Bannwarth, F. Bohle, G. Brandenburg, E. Caldeweyher, M. Checinski,
   S. Dohm, S. Ehlert, S. Ehrlich, F. März, H. Neugebauer, J. Pisarek,
   P. Pracht, P. Shushkov, and S. Spicher.
   
 * started run on 2020/06/09 at 14:16:10.356     

           -------------------------------------------------
          |                Calculation Setup                |
           -------------------------------------------------

          program call               : xtb complex_33541.xyz --chrg +9 --uhf 0 --gbsa water
          hostname                   : gold58.cluster.local
          coordinate file            : complex_33541.xyz
          omp threads                :                    64
          number of atoms            :                  2616
          number of electrons        :                  7234
          charge                     :                     9
          spin                       :                   0.0
          first test random number   :      0.39225626418626


molecular fragmentation (1/2 indicates fragments):
111111111111111111111111111111111111111111111111111111111111111111111111
111111111111111111111111111111111111111111111111111111111111111111111111
111111111111111111111111111111111111111111111111111111111111111111111111
111111111111111111111111111111111111111111111111111111111111111111111111
111111111111111111111111111111111111111111111111111111111111111111111111
111111111111111111111111111111111111111111111111111111111111111111111111
111111111111111111111111111111111111111111111111111111111111111111111111
111111111111111111111111111111111111111111111111111111111111111111111111
111111111111111111111111111111111111111111111111111111111111111111111111
111111111111111111111111111111111111111111111111111111111111111111111111
111111111111111111111111111111111111111111111111111111111111111111111111
111111111111111111111111111111111111111111111111111111111111111111111111
111111111111111111111111111111111111111111111111111111111111111111111111
111111111111111111111111111111111111111111111111111111111111111111111111
111111111111111111111111111111111111111111111111111111111111111111111111
111111111111111111111111111111111111111111111111111111111111111111111111
111111111111111111111111111111111111111111111111111111111111111111111111
111111111111111111111111111111111111111111111111111111111111111111111111
111111111111111111111111111111111111111111111111111111111111111111111111
111111111111111111111111111111111111111111111111111111111111111111111111
111111111111111111111111111111111111111111111111111111111111111111111111
111111111111111111111111111111111111111111111111111111111111111111111111
111111111111111111111111111111111111111111111111111111111111111111111111
111111111111111111111111111111111111111111111111111111111111111111111111
111111111111111111111111111111111111111111111111111111111111111111111111
111111111111111111111111111111111111111111111111111111111111111111111111
111111111111111111111111111111111111111111111111111111111111111111111111
111111111111111111111111111111111111111111111111111111111111111111111111
111111111111111111111111111111111111111111111111111111111111111111111111
111111111111111111111111111111111111111111111111111111111111111111111111
111111111111111111111111111111111111111111111111111111111111111111111111
111111111111111111111111111111111111111111111111111111111111111111111111
111111111111111111111111111111111111111111111111111111111111111111111111
111111111111111111111111111111111111111111111111111111111111111111111111
111111111111111111111111111111111111111111111111111111111111111111111111
111111111111111111111111111111111111111111111111111111111111111111111111
111111111122222222222222
# atoms in fragment 1/2:  2602    14
 fragment masses (1/2) :    18371.93      111.12
CMA distance (Bohr)    :  21.119
constraining FC (au)   :  0.0500
########################################################################
[WARNING] Please study the warnings concerning your input carefully
-2- prog_main: XTBPATH is not set, using XTBHOME instead
-1- prog_main: XTBHOME is not set, using HOME instead
########################################################################
           ------------------------------------------------- 
          |                 G F N 2 - x T B                 |
          | Geometry, Frequencies, Noncovalent interactions |
          |            JCTC 2019 parametrisation            |
           ------------------------------------------------- 
             k(s)              :                1.8500
             k(p)              :                2.2300
             k(d)              :                2.2300
             k(f)              :                2.0000
             kEN (H0ij)        :               -2.0000
             D4 a1             :                0.5200
             D4 a2             :                5.0000
             D4 s6             :                1.0000
             D4 s8             :                2.7000
             D4 s9             :                5.0000
             alphaj            :                2.0000

  Z AO/shell   Hii/eV     exponent
  1     Wed Apr 25 08:07:45 CEST 2018   EN: 2.200 GM2: 0.406  GM3: 0.0800  RAES: 1.40
     1s    -10.707211    1.230000
  6     Wed Apr 25 08:07:45 CEST 2018   EN: 2.550 GM2: 0.538  GM3: 0.1500  RAES: 3.00
     2s    -13.970922    2.096432
     2p    -10.063292    1.800000
  7     Wed Apr 25 08:07:45 CEST 2018   EN: 3.040 GM2: 0.461  GM3:-0.0640  RAES: 1.90
     2s    -16.686243    2.339881
     2p    -12.523956    2.014332
  8     Wed Apr 25 08:07:45 CEST 2018   EN: 3.440 GM2: 0.452  GM3:-0.0517  RAES: 1.80
     2s    -20.229985    2.439742
     2p    -15.503117    2.137023
  9     Mon Apr 23 13:58:50 CEST 2018   EN: 3.980 GM2: 0.532  GM3: 0.1426  RAES: 2.40
     2s    -23.458179    2.416361
     2p    -15.746583    2.308399
 16     Tue Apr 24 11:44:34 CEST 2018   EN: 2.580 GM2: 0.340  GM3:-0.0502  RAES: 3.10
     3s    -20.029654    1.981333
     3p    -11.377694    2.025643
     3d     -0.420282    1.702555

 Solvent             : water
 Using internal parameter file: .param_gbsa2_water
 Gsolv ref. state (COSMO-RS): gsolv [1 M gas/solution]
 temperature (mdtemp)       :    298.14999999999998     
 dielectric constant        :    80.200000000000003     
 rho                        :    1.0000000000000000     
 mass                       :    18.000000000000000     
 surface tension            :    15.568945408385856     
 probe radius               :   0.97531378999999996     
 Gshift (Eh)                :    1.8574431267947933E-003
 c1                         :    1.5524381700000001     
 soset                      :   0.13032636000000000     
 HB correction              :  T
           ------------------------------------------------- 
          |        Self-Consistent Charge Iterations        |
           ------------------------------------------------- 

          ...................................................
          :                      SETUP                      :
          :.................................................:
          :  # basis functions                6549          :
          :  # atomic orbitals                6543          :
          :  # shells                         3921          :
          :  # electrons                      7234          :
          :  max. iterations                   250          :
          :  Hamiltonian                  GFN2-xTB          :
          :  restarted?                      false          :
          :  GBSA solvation                   true          :
          :  PC potential                    false          :
          :  electronic temp.          300.0000000     K    :
          :  accuracy                    1.0000000          :
          :  -> integral cutoff          0.2500000E+02      :
          :  -> integral neglect         0.1000000E-07      :
          :  -> SCF convergence          0.1000000E-05 Eh   :
          :  -> wf. convergence          0.1000000E-03 e    :
          :  Broyden damping             0.4000000          :
          ...................................................

 iter      E             dE          RMSdq      gap      omega  full diag
   1  -4144.4343527 -0.414443E+04  0.427E+00    1.35       0.0  T
   2  -4156.7291430 -0.122948E+02  0.226E+00    1.92       1.0  T
   3  -4157.2072803 -0.478137E+00  0.119E+00    2.06       1.0  T
   4  -4157.2740479 -0.667676E-01  0.294E-01    1.91       1.0  T
   5  -4157.3875796 -0.113532E+00  0.143E-01    1.84       1.0  T
   6  -4157.4020504 -0.144708E-01  0.745E-02    1.79       1.0  T
   7  -4157.4045334 -0.248308E-02  0.392E-02    1.70       1.0  T
   8  -4157.4057200 -0.118656E-02  0.178E-02    1.65       1.0  T
   9  -4157.4059110 -0.191040E-03  0.109E-02    1.62       1.0  T
  10  -4157.4060130 -0.102006E-03  0.579E-03    1.59       1.0  T
  11  -4157.4060428 -0.297948E-04  0.286E-03    1.58       1.0  T
  12  -4157.4060502 -0.734188E-05  0.162E-03    1.57       1.2  T
  13  -4157.4060526 -0.245726E-05  0.892E-04    1.57       2.2  T
  14  -4157.4060534 -0.733133E-06  0.461E-04    1.57       4.2  T
  15  -4157.4060536 -0.207427E-06  0.242E-04    1.57       8.1  T

   *** convergence criteria satisfied after 15 iterations ***

         #    Occupation            Energy/Eh            Energy/eV
      -------------------------------------------------------------
         1        2.0000           -0.7977795             -21.7087
       ...           ...                  ...                  ...
      3611        2.0000           -0.3584171              -9.7530
      3612        2.0000           -0.3570916              -9.7170
      3613        2.0000           -0.3563543              -9.6969
      3614        2.0000           -0.3536045              -9.6221
      3615        2.0000           -0.3534059              -9.6167
      3616        2.0000           -0.3500182              -9.5245
      3617        2.0000           -0.3330690              -9.0633 (HOMO)
      3618                         -0.2755214              -7.4973 (LUMO)
      3619                         -0.2738692              -7.4524
      3620                         -0.2724902              -7.4148
      3621                         -0.2708065              -7.3690
      3622                         -0.2698061              -7.3418
       ...                                ...                  ...
      6543                          0.7532034              20.4957
      -------------------------------------------------------------
                  HL-Gap            0.0575476 Eh            1.5659 eV
             Fermi-level           -0.3042952 Eh           -8.2803 eV

 SCC (total)                   0 d,  0 h,  6 min, 56.598 sec
 SCC setup                      ...        0 min,  3.155 sec (  0.757%)
 Dispersion                     ...        0 min,  2.055 sec (  0.493%)
 integral evaluation            ...        0 min, 11.459 sec (  2.751%)
 zeroth order Hamiltonian       ...        0 min,  0.346 sec (  0.083%)
 iterations                     ...        6 min, 21.463 sec ( 91.566%)
 molecular gradient             ...        0 min, 17.569 sec (  4.217%)
 printout                       ...        0 min,  0.552 sec (  0.132%)

         :::::::::::::::::::::::::::::::::::::::::::::::::::::
         ::                     SUMMARY                     ::
         :::::::::::::::::::::::::::::::::::::::::::::::::::::
         :: total energy           -4108.887867636859 Eh    ::
         :: total w/o Gsasa/hb     -4108.506022769946 Eh    ::
         :: gradient norm              1.345015721634 Eh/a0 ::
         :: HOMO-LUMO gap              1.565949207155 eV    ::
         ::.................................................::
         :: SCC energy             -4157.471321637911 Eh    ::
         :: -> isotropic ES           13.894446737222 Eh    ::
         :: -> anisotropic ES         -0.764914170695 Eh    ::
         :: -> anisotropic XC          1.160780188418 Eh    ::
         :: -> dispersion             -3.925661656755 Eh    ::
         :: -> Gsolv                  -3.859482537926 Eh    ::
         ::    -> Gborn               -3.477637671012 Eh    ::
         ::    -> Gsasa               -0.067125505237 Eh    ::
         ::    -> Ghb                 -0.316576804804 Eh    ::
         ::    -> Gshift               0.001857443127 Eh    ::
         :: repulsion energy          48.031929418864 Eh    ::
         :: add. restraining           0.000000000000 Eh    ::
         :::::::::::::::::::::::::::::::::::::::::::::::::::::

           -------------------------------------------------
          |                Property Printout                |
           -------------------------------------------------

    * Orbital Energies and Occupations

         #    Occupation            Energy/Eh            Energy/eV
      -------------------------------------------------------------
         1        2.0000           -0.7977795             -21.7087
       ...           ...                  ...                  ...
      3605        2.0000           -0.3686108             -10.0304
      3606        2.0000           -0.3674584              -9.9991
      3607        2.0000           -0.3665532              -9.9744
      3608        2.0000           -0.3647568              -9.9255
      3609        2.0000           -0.3613197              -9.8320
      3610        2.0000           -0.3593738              -9.7791
      3611        2.0000           -0.3584171              -9.7530
      3612        2.0000           -0.3570916              -9.7170
      3613        2.0000           -0.3563543              -9.6969
      3614        2.0000           -0.3536045              -9.6221
      3615        2.0000           -0.3534059              -9.6167
      3616        2.0000           -0.3500182              -9.5245
      3617        2.0000           -0.3330690              -9.0633 (HOMO)
      3618                         -0.2755214              -7.4973 (LUMO)
      3619                         -0.2738692              -7.4524
      3620                         -0.2724902              -7.4148
      3621                         -0.2708065              -7.3690
      3622                         -0.2698061              -7.3418
      3623                         -0.2683491              -7.3022
      3624                         -0.2667667              -7.2591
      3625                         -0.2648506              -7.2070
      3626                         -0.2638369              -7.1794
      3627                         -0.2628029              -7.1512
      3628                         -0.2616923              -7.1210
       ...                                ...                  ...
      6543                          0.7532034              20.4957
      -------------------------------------------------------------
                  HL-Gap            0.0575476 Eh            1.5659 eV
             Fermi-level           -0.3042952 Eh           -8.2803 eV

     #   Z        covCN         q      C6AA      α(0)
     1   7 N      3.500    -0.140    24.021     7.279
     2   1 H      0.860     0.312     0.678     1.290
     3   1 H      0.860     0.302     0.707     1.318
     4   1 H      0.860     0.307     0.691     1.303
     5   6 C      3.781    -0.046    21.424     6.594
     6   1 H      0.924     0.126     1.566     1.957
     7   6 C      3.796    -0.102    22.461     6.749
     8   1 H      0.925     0.117     1.639     2.002
     9   1 H      0.925     0.114     1.666     2.019
    10   6 C      3.788    -0.034    21.195     6.557
    11   1 H      0.925     0.070     2.084     2.258
    12   1 H      0.925     0.060     2.202     2.320
    13  16 S      1.953    -0.214   150.172    20.625
    14   6 C      3.747    -0.037    21.297     6.583
    15   1 H      0.925     0.048     2.348     2.396
    16   1 H      0.931     0.050     2.318     2.381
    17   1 H      0.925     0.028     2.615     2.529
    18   6 C      2.756     0.271    22.423     7.754
    19   8 O      0.861    -0.402    21.717     6.248
    20   7 N      2.686    -0.167    24.622     7.370
    21   1 H      0.860     0.202     1.093     1.638
    22   6 C      3.782     0.011    20.411     6.436
    23   1 H      0.925     0.104     1.748     2.068
    24   6 C      3.814    -0.125    22.892     6.810
    25   1 H      0.925     0.101     1.777     2.085
    26   1 H      0.924     0.095     1.831     2.116
    27   6 C      2.743     0.291    22.072     7.692
    28   8 O      0.861    -0.480    23.343     6.478
    29   7 N      2.645    -0.275    27.114     7.733
    30   1 H      0.860     0.207     1.072     1.622
    31   1 H      0.860     0.227     0.976     1.548
    32   6 C      2.736     0.260    22.618     7.787
    33   8 O      0.858    -0.490    23.566     6.509
    34   7 N      2.681    -0.168    24.632     7.371
    35   1 H      0.860     0.225     0.987     1.556
    36   6 C      3.785     0.009    20.449     6.441
    37   1 H      0.925     0.095     1.835     2.118
    38   6 C      3.843    -0.037    21.209     6.551
    39   1 H      0.924     0.081     1.971     2.195
    40   6 C      3.755    -0.132    23.097     6.853
    41   1 H      0.924     0.058     2.223     2.332
    42   1 H      0.924     0.062     2.180     2.309
    43   1 H      0.925     0.037     2.488     2.467
    44   6 C      3.789    -0.075    21.939     6.671
    45   1 H      0.924     0.042     2.416     2.431
    46   1 H      0.925     0.062     2.172     2.305
    47   6 C      3.743    -0.119    22.864     6.822
    48   1 H      0.925     0.047     2.362     2.403
    49   1 H      0.924     0.055     2.259     2.350
    50   1 H      0.925     0.035     2.513     2.479
    51   6 C      2.746     0.274    22.365     7.744
    52   8 O      0.858    -0.507    23.940     6.560
    53   7 N      2.683    -0.178    24.855     7.404
    54   1 H      0.860     0.218     1.020     1.582
    55   6 C      3.783     0.024    20.195     6.401
    56   1 H      0.925     0.086     1.918     2.166
    57   6 C      3.804    -0.079    22.014     6.680
    58   1 H      0.925     0.068     2.103     2.268
    59   1 H      0.924     0.074     2.037     2.232
    60   6 C      2.957     0.005    27.901     8.664
    61   6 C      2.917    -0.042    29.052     8.839
    62   1 H      0.926     0.042     2.421     2.433
    63   6 C      2.906    -0.031    28.770     8.795
    64   1 H      0.926     0.023     2.690     2.565
    65   6 C      2.917    -0.035    28.869     8.811
    66   1 H      0.926     0.018     2.756     2.596
    67   6 C      2.909    -0.037    28.925     8.819
    68   1 H      0.926     0.046     2.371     2.408
    69   6 C      2.909    -0.044    29.098     8.845
    70   1 H      0.926     0.069     2.097     2.265
    71   6 C      2.747     0.276    22.325     7.737
    72   8 O      0.859    -0.510    24.010     6.570
    73   7 N      2.682    -0.187    25.052     7.434
    74   1 H      0.860     0.232     0.955     1.531
    75   6 C      3.778     0.032    20.054     6.380
    76   1 H      0.925     0.066     2.125     2.279
    77   6 C      3.790    -0.056    21.591     6.618
    78   1 H      0.925     0.039     2.459     2.452
    79   1 H      0.924     0.068     2.104     2.268
    80   6 C      3.785    -0.110    22.610     6.773
    81   1 H      0.924     0.064     2.154     2.295
    82   1 H      0.925     0.056     2.251     2.346
    83   6 C      2.679     0.352    21.025     7.504
    84   8 O      0.857    -0.624    26.724     6.931
    85   8 O      0.858    -0.618    26.556     6.909
    86   6 C      2.756     0.264    22.543     7.775
    87   8 O      0.859    -0.515    24.111     6.583
    88   7 N      2.689    -0.171    24.697     7.381
    89   1 H      0.860     0.214     1.038     1.596
    90   6 C      3.798     0.044    19.848     6.343
    91   1 H      0.924     0.082     1.961     2.190
    92   6 C      3.820    -0.075    21.910     6.661
    93   1 H      0.924     0.065     2.141     2.288
    94   1 H      0.925     0.067     2.117     2.276
    95   6 C      3.796    -0.017    20.875     6.506
    96   1 H      0.924     0.035     2.516     2.480
    97   1 H      0.925     0.036     2.498     2.472
    98  16 S      1.940    -0.189   149.068    20.549
    99   6 C      3.739    -0.076    22.042     6.699
   100   1 H      0.925     0.086     1.917     2.165
   101   1 H      0.924     0.065     2.136     2.286
   102   1 H      0.925     0.060     2.194     2.317
   103   6 C      2.753     0.259    22.629     7.790
   104   8 O      0.858    -0.514    24.090     6.581
   105   7 N      2.684    -0.174    24.764     7.391
   106   1 H      0.860     0.230     0.966     1.540
   107   6 C      3.793     0.022    20.205     6.401
   108   1 H      0.925     0.080     1.982     2.202
   109   6 C      3.790    -0.082    22.077     6.692
   110   1 H      0.925     0.051     2.306     2.375
   111   1 H      0.925     0.056     2.244     2.343
   112   6 C      3.842    -0.019    20.891     6.502
   113   1 H      0.925     0.058     2.220     2.330
   114   6 C      3.758    -0.124    22.939     6.828
   115   1 H      0.924     0.043     2.407     2.426
   116   1 H      0.924     0.027     2.635     2.538
   117   1 H      0.925     0.054     2.267     2.355
   118   6 C      3.760    -0.124    22.918     6.825
   119   1 H      0.924     0.057     2.232     2.336
   120   1 H      0.924     0.058     2.218     2.329
   121   1 H      0.925     0.050     2.315     2.379
   122   6 C      2.748     0.274    22.363     7.743
   123   8 O      0.865    -0.503    23.845     6.547
   124   7 N      2.679    -0.204    25.437     7.491
   125   1 H      0.860     0.216     1.030     1.589
   126   6 C      3.780     0.016    20.328     6.423
   127   1 H      0.924     0.088     1.897     2.154
   128   6 C      3.803    -0.059    21.625     6.620
   129   1 H      0.925     0.037     2.491     2.468
   130   1 H      0.925     0.060     2.195     2.317
   131   6 C      3.797    -0.084    22.113     6.696
   132   1 H      0.925     0.070     2.084     2.257
   133   1 H      0.925     0.086     1.922     2.168
   134   6 C      3.723    -0.022    21.079     6.556
   135   1 H      0.925     0.098     1.802     2.099
   136   1 H      0.924     0.077     2.007     2.215
   137   7 N      2.697    -0.181    24.914     7.413
   138   1 H      0.860     0.224     0.992     1.561
   139   6 C      2.733     0.243    22.929     7.840
   140   7 N      2.667    -0.268    26.949     7.710
   141   1 H      0.860     0.254     0.867     1.459
   142   1 H      0.860     0.247     0.894     1.481
   143   7 N      2.676    -0.260    26.733     7.679
   144   1 H      0.860     0.238     0.932     1.513
   145   1 H      0.860     0.243     0.913     1.497
   146   6 C      2.749     0.277    22.314     7.735
   147   8 O      0.859    -0.468    23.078     6.441
   148   7 N      2.686    -0.169    24.654     7.374
   149   1 H      0.860     0.185     1.183     1.704
   150   6 C      3.794     0.016    20.313     6.418
   151   1 H      0.925     0.088     1.902     2.157
   152   6 C      3.851    -0.020    20.902     6.503
   153   1 H      0.925     0.063     2.165     2.301
   154   6 C      3.749    -0.110    22.667     6.790
   155   1 H      0.925     0.028     2.620     2.531
   156   1 H      0.925     0.050     2.322     2.383
   157   1 H      0.925     0.045     2.378     2.411
   158   6 C      3.800    -0.061    21.675     6.629
   159   1 H      0.925     0.040     2.449     2.447
   160   1 H      0.925     0.034     2.531     2.488
   161   6 C      3.745    -0.116    22.783     6.809
   162   1 H      0.924     0.046     2.374     2.409
   163   1 H      0.925     0.031     2.570     2.507
   164   1 H      0.924     0.059     2.210     2.325
   165   6 C      2.746     0.257    22.679     7.798
   166   8 O      0.858    -0.503    23.849     6.548
   167   7 N      2.685    -0.176    24.804     7.397
   168   1 H      0.860     0.209     1.062     1.614
   169   6 C      3.779     0.027    20.149     6.395
   170   1 H      0.924     0.097     1.813     2.106
   171   6 C      3.798    -0.102    22.443     6.746
   172   1 H      0.925     0.079     1.993     2.207
   173   1 H      0.924     0.047     2.355     2.400
   174   6 C      2.687     0.372    20.689     7.444
   175   8 O      0.858    -0.573    25.475     6.767
   176   8 O      0.856    -0.576    25.540     6.776
   177   6 C      2.747     0.262    22.589     7.782
   178   8 O      0.859    -0.485    23.449     6.492
   179   7 N      2.683    -0.183    24.964     7.421
   180   1 H      0.860     0.191     1.155     1.684
   181   6 C      3.781     0.022    20.223     6.406
   182   1 H      0.925     0.086     1.915     2.164
   183   6 C      3.802    -0.058    21.612     6.619
   184   1 H      0.925     0.044     2.402     2.424
   185   1 H      0.924     0.065     2.142     2.289
   186   6 C      3.791    -0.094    22.312     6.727
   187   1 H      0.924     0.018     2.763     2.599
   188   1 H      0.925     0.023     2.685     2.562
   189   6 C      2.679     0.360    20.895     7.480
   190   8 O      0.857    -0.621    26.639     6.920
   191   8 O      0.856    -0.631    26.892     6.953
   192   6 C      2.742     0.262    22.582     7.781
   193   8 O      0.857    -0.502    23.828     6.545
   194   7 N      2.677    -0.154    24.329     7.326
   195   1 H      0.860     0.224     0.993     1.561
   196   6 C      3.727    -0.045    21.480     6.617
   197   1 H      0.924     0.101     1.778     2.085
   198   1 H      0.925     0.094     1.841     2.122
   199   6 C      2.737     0.270    22.442     7.756
   200   8 O      0.858    -0.457    22.847     6.408
   201   7 N      2.683    -0.198    25.312     7.472
   202   1 H      0.860     0.209     1.061     1.614
   203   6 C      3.777     0.011    20.409     6.436
   204   1 H      0.925     0.059     2.211     2.325
   205   6 C      3.793    -0.088    22.184     6.707
   206   1 H      0.925     0.074     2.039     2.233
   207   1 H      0.924     0.071     2.077     2.254
   208   6 C      3.837    -0.020    20.899     6.504
   209   1 H      0.925     0.035     2.518     2.481
   210   6 C      3.750    -0.121    22.878     6.821
   211   1 H      0.925     0.019     2.756     2.596
   212   1 H      0.925     0.049     2.332     2.388
   213   1 H      0.924     0.036     2.499     2.472
   214   6 C      3.747    -0.137    23.203     6.871
   215   1 H      0.925     0.054     2.267     2.355
   216   1 H      0.924     0.069     2.091     2.261
   217   1 H      0.925     0.059     2.209     2.324
   218   6 C      2.742     0.280    22.251     7.723
   219   8 O      0.865    -0.458    22.866     6.411
   220   7 N      2.687    -0.181    24.932     7.416
   221   1 H      0.860     0.201     1.103     1.645
   222   6 C      3.781     0.012    20.390     6.433
   223   1 H      0.925     0.081     1.967     2.193
   224   6 C      3.800    -0.080    22.027     6.682
   225   1 H      0.924     0.072     2.066     2.248
   226   1 H      0.924     0.057     2.238     2.339
   227   6 C      3.799    -0.093    22.283     6.721
   228   1 H      0.924     0.074     2.038     2.232
   229   1 H      0.925     0.097     1.813     2.106
   230   6 C      3.729    -0.033    21.253     6.581
   231   1 H      0.924     0.105     1.741     2.064
   232   1 H      0.925     0.087     1.912     2.163
   233   7 N      2.683    -0.156    24.371     7.332
   234   1 H      0.860     0.202     1.094     1.638
   235   6 C      2.731     0.238    23.024     7.856
   236   7 N      2.671    -0.213    25.640     7.520
   237   1 H      0.860     0.256     0.862     1.454
   238   1 H      0.860     0.278     0.781     1.385
   239   7 N      2.673    -0.247    26.425     7.635
   240   1 H      0.860     0.216     1.026     1.587
   241   1 H      0.860     0.198     1.114     1.654
   242   6 C      2.743     0.271    22.428     7.754
   243   8 O      0.861    -0.477    23.270     6.468
   244   7 N      2.693    -0.189    25.090     7.439
   245   1 H      0.860     0.207     1.071     1.621
   246   6 C      3.799     0.021    20.222     6.403
   247   1 H      0.925     0.097     1.812     2.105
   248   6 C      3.838    -0.078    21.968     6.668
   249   1 H      0.924     0.079     1.986     2.204
   250   1 H      0.925     0.052     2.301     2.372
   251   6 C      3.851    -0.005    20.635     6.461
   252   1 H      0.924     0.050     2.315     2.379
   253   6 C      3.779    -0.127    22.965     6.827
   254   1 H      0.925     0.039     2.457     2.451
   255   1 H      0.925     0.049     2.333     2.388
   256   1 H      0.925     0.042     2.416     2.431
   257   6 C      3.764    -0.108    22.603     6.777
   258   1 H      0.925     0.026     2.642     2.542
   259   1 H      0.925     0.033     2.541     2.493
   260   1 H      0.924     0.038     2.481     2.463
   261   6 C      2.756     0.266    22.503     7.768
   262   8 O      0.861    -0.505    23.903     6.555
   263   7 N      2.687    -0.152    24.300     7.321
   264   1 H      0.860     0.211     1.052     1.606
   265   6 C      3.775    -0.003    20.661     6.477
   266   1 H      0.925     0.095     1.828     2.114
   267   6 C      3.804    -0.082    22.061     6.687
   268   1 H      0.924     0.067     2.117     2.275
   269   1 H      0.925     0.060     2.199     2.319
   270   6 C      3.812    -0.082    22.055     6.685
   271   1 H      0.924     0.063     2.162     2.299
   272   1 H      0.925     0.064     2.156     2.296
   273   6 C      3.802    -0.095    22.306     6.724
   274   1 H      0.924     0.078     2.003     2.213
   275   1 H      0.925     0.073     2.056     2.242
   276   6 C      3.740    -0.068    21.890     6.676
   277   1 H      0.925     0.133     1.513     1.924
   278   1 H      0.925     0.131     1.531     1.935
   279   7 N      3.488    -0.154    24.324     7.325
   280   1 H      0.860     0.298     0.718     1.327
   281   1 H      0.860     0.303     0.705     1.315
   282   1 H      0.860     0.295     0.728     1.336
   283   6 C      2.743     0.264    22.543     7.774
   284   8 O      0.859    -0.514    24.105     6.583
   285   7 N      2.686    -0.139    24.022     7.279
   286   1 H      0.860     0.224     0.990     1.558
   287   6 C      3.792     0.009    20.441     6.439
   288   1 H      0.925     0.055     2.254     2.348
   289   6 C      3.844    -0.039    21.236     6.555
   290   1 H      0.924     0.085     1.930     2.173
   291   6 C      3.756    -0.129    23.042     6.844
   292   1 H      0.925     0.036     2.500     2.472
   293   1 H      0.925     0.041     2.440     2.443
   294   1 H      0.924     0.063     2.162     2.299
   295   6 C      3.794    -0.081    22.053     6.687
   296   1 H      0.924     0.059     2.205     2.322
   297   1 H      0.925     0.041     2.433     2.439
   298   6 C      3.742    -0.128    23.040     6.848
   299   1 H      0.925     0.040     2.448     2.447
   300   1 H      0.924     0.070     2.082     2.257
   301   1 H      0.925     0.049     2.336     2.390
   302   6 C      2.745     0.275    22.347     7.740
   303   8 O      0.859    -0.473    23.194     6.457
   304   7 N      2.679    -0.166    24.588     7.365
   305   1 H      0.860     0.215     1.032     1.591
   306   6 C      3.764     0.014    20.386     6.436
   307   1 H      0.925     0.114     1.663     2.016
   308   6 C      3.798    -0.090    22.215     6.711
   309   1 H      0.925     0.103     1.762     2.076
   310   1 H      0.924     0.077     2.011     2.218
   311   6 C      2.956    -0.006    28.170     8.706
   312   6 C      2.904    -0.056    29.381     8.888
   313   1 H      0.926     0.043     2.415     2.430
   314   6 C      2.907    -0.074    29.836     8.957
   315   1 H      0.925     0.008     2.920     2.672
   316   6 C      2.835     0.149    24.759     8.154
   317   8 O      1.661    -0.459    22.017     6.334
   318   1 H      0.806     0.323     0.656     1.272
   319   6 C      2.910    -0.072    29.787     8.949
   320   1 H      0.926     0.034     2.529     2.487
   321   6 C      2.904    -0.046    29.132     8.850
   322   1 H      0.926     0.083     1.949     2.183
   323   6 C      2.735     0.251    22.788     7.816
   324   8 O      0.858    -0.495    23.676     6.524
   325   7 N      2.686    -0.165    24.562     7.361
   326   1 H      0.860     0.231     0.963     1.537
   327   6 C      3.785     0.017    20.300     6.418
   328   1 H      0.925     0.066     2.127     2.281
   329   6 C      3.803    -0.075    21.937     6.668
   330   1 H      0.925     0.043     2.410     2.428
   331   1 H      0.925     0.083     1.951     2.184
   332   6 C      3.799    -0.081    22.042     6.685
   333   1 H      0.924     0.076     2.024     2.225
   334   1 H      0.924     0.044     2.395     2.420
   335   6 C      3.801    -0.092    22.249     6.716
   336   1 H      0.925     0.092     1.862     2.134
   337   1 H      0.925     0.074     2.042     2.235
   338   6 C      3.731    -0.061    21.768     6.660
   339   1 H      0.925     0.109     1.708     2.044
   340   1 H      0.925     0.128     1.548     1.946
   341   7 N      3.485    -0.158    24.405     7.337
   342   1 H      0.860     0.302     0.708     1.318
   343   1 H      0.860     0.309     0.687     1.299
   344   1 H      0.860     0.313     0.675     1.287
   345   6 C      2.752     0.265    22.531     7.773
   346   8 O      0.860    -0.508    23.966     6.564
   347   7 N      2.695    -0.173    24.741     7.387
   348   1 H      0.861     0.231     0.960     1.535
   349   6 C      3.792     0.058    19.622     6.308
   350   1 H      0.925     0.051     2.313     2.378
   351   6 C      3.809    -0.088    22.180     6.704
   352   1 H      0.925     0.030     2.593     2.518
   353   1 H      0.925     0.044     2.391     2.418
   354   6 C      2.688     0.360    20.895     7.481
   355   8 O      0.857    -0.631    26.896     6.953
   356   8 O      0.856    -0.646    27.284     7.003
   357   6 C      2.752     0.258    22.652     7.794
   358   8 O      0.862    -0.505    23.904     6.555
   359   7 N      2.687    -0.163    24.516     7.354
   360   1 H      0.860     0.198     1.116     1.655
   361   6 C      3.782     0.004    20.525     6.454
   362   1 H      0.924     0.111     1.691     2.034
   363   6 C      3.720     0.103    18.985     6.223
   364   1 H      0.925     0.057     2.235     2.338
   365   6 C      3.761    -0.129    23.018     6.839
   366   1 H      0.924     0.059     2.212     2.326
   367   1 H      0.924     0.066     2.126     2.280
   368   1 H      0.925     0.092     1.858     2.131
   369   8 O      1.664    -0.458    22.001     6.332
   370   1 H      0.805     0.278     0.791     1.397
   371   6 C      2.748     0.273    22.393     7.748
   372   8 O      0.857    -0.460    22.910     6.417
   373   7 N      2.687    -0.210    25.582     7.512
   374   1 H      0.860     0.207     1.072     1.622
   375   6 C      3.792     0.034    20.003     6.369
   376   1 H      0.925     0.074     2.039     2.233
   377   6 C      3.814    -0.038    21.236     6.559
   378   1 H      0.925     0.026     2.647     2.544
   379   1 H      0.925     0.043     2.409     2.427
   380   6 C      3.800    -0.090    22.223     6.712
   381   1 H      0.924     0.040     2.444     2.445
   382   1 H      0.924     0.040     2.448     2.447
   383   6 C      2.688     0.356    20.965     7.493
   384   8 O      0.858    -0.625    26.745     6.934
   385   8 O      0.858    -0.612    26.411     6.890
   386   6 C      2.740     0.265    22.535     7.772
   387   8 O      0.857    -0.492    23.619     6.516
   388   7 N      2.677    -0.181    24.919     7.414
   389   1 H      0.860     0.206     1.076     1.625
   390   6 C      3.732    -0.041    21.407     6.604
   391   1 H      0.924     0.121     1.604     1.981
   392   1 H      0.925     0.124     1.585     1.969
   393   6 C      2.744     0.276    22.338     7.739
   394   8 O      0.858    -0.427    22.230     6.321
   395   7 N      2.690    -0.183    24.961     7.420
   396   1 H      0.860     0.167     1.289     1.778
   397   6 C      3.787     0.020    20.248     6.409
   398   1 H      0.925     0.090     1.877     2.143
   399   6 C      3.806    -0.066    21.758     6.640
   400   1 H      0.924     0.065     2.144     2.290
   401   1 H      0.925     0.025     2.656     2.549
   402   6 C      2.953    -0.003    28.104     8.695
   403   6 C      2.918    -0.048    29.183     8.859
   404   1 H      0.926     0.031     2.568     2.506
   405   6 C      2.907    -0.058    29.438     8.897
   406   1 H      0.926     0.055     2.264     2.353
   407   6 C      2.834     0.145    24.833     8.166
   408   8 O      1.659    -0.431    21.451     6.252
   409   1 H      0.805     0.352     0.583     1.199
   410   6 C      2.908    -0.073    29.811     8.953
   411   1 H      0.926     0.065     2.140     2.288
   412   6 C      2.909    -0.040    28.992     8.829
   413   1 H      0.926     0.043     2.414     2.429
   414   6 C      2.747     0.271    22.420     7.753
   415   8 O      0.860    -0.503    23.857     6.549
   416   7 N      2.691    -0.152    24.283     7.319
   417   1 H      0.860     0.223     0.997     1.564
   418   6 C      3.791     0.021    20.236     6.406
   419   1 H      0.924     0.092     1.862     2.134
   420   6 C      3.808    -0.083    22.068     6.687
   421   1 H      0.924     0.071     2.073     2.252
   422   1 H      0.924     0.056     2.252     2.347
   423   6 C      2.964    -0.006    28.174     8.706
   424   6 C      2.910    -0.037    28.916     8.818
   425   1 H      0.926     0.029     2.601     2.522
   426   6 C      2.911    -0.072    29.800     8.951
   427   1 H      0.926     0.040     2.449     2.447
   428   6 C      2.827     0.134    25.069     8.204
   429   8 O      1.656    -0.414    21.126     6.205
   430   1 H      0.805     0.339     0.613     1.230
   431   6 C      2.919    -0.062    29.539     8.913
   432   1 H      0.926     0.095     1.834     2.118
   433   6 C      2.915    -0.046    29.136     8.851
   434   1 H      0.926     0.067     2.122     2.278
   435   6 C      2.750     0.263    22.572     7.780
   436   8 O      0.857    -0.526    24.363     6.618
   437   7 N      2.687    -0.167    24.611     7.368
   438   1 H      0.860     0.248     0.891     1.479
   439   6 C      3.785     0.009    20.444     6.440
   440   1 H      0.924     0.078     2.004     2.214
   441   6 C      3.731     0.135    18.486     6.137
   442   1 H      0.924     0.021     2.712     2.575
   443   6 C      3.753    -0.115    22.769     6.804
   444   1 H      0.924     0.040     2.452     2.449
   445   1 H      0.924     0.066     2.134     2.284
   446   1 H      0.924     0.059     2.210     2.325
   447   8 O      1.656    -0.487    22.623     6.421
   448   1 H      0.805     0.307     0.701     1.315
   449   6 C      2.746     0.260    22.616     7.787
   450   8 O      0.859    -0.458    22.878     6.413
   451   7 N      2.680    -0.172    24.720     7.384
   452   1 H      0.860     0.222     1.000     1.566
   453   6 C      3.777     0.014    20.361     6.429
   454   1 H      0.925     0.087     1.904     2.158
   455   6 C      3.848    -0.037    21.205     6.550
   456   1 H      0.924     0.073     2.054     2.241
   457   6 C      3.755    -0.136    23.176     6.864
   458   1 H      0.925     0.049     2.332     2.388
   459   1 H      0.925     0.050     2.318     2.381
   460   1 H      0.924     0.075     2.030     2.228
   461   6 C      3.802    -0.086    22.137     6.699
   462   1 H      0.925     0.046     2.370     2.407
   463   1 H      0.924     0.076     2.020     2.223
   464   6 C      3.753    -0.123    22.910     6.826
   465   1 H      0.925     0.060     2.200     2.319
   466   1 H      0.924     0.018     2.757     2.597
   467   1 H      0.925     0.062     2.179     2.308
   468   6 C      2.743     0.252    22.759     7.811
   469   8 O      0.857    -0.514    24.092     6.581
   470   7 N      2.683    -0.140    24.036     7.281
   471   1 H      0.860     0.229     0.968     1.541
   472   6 C      3.738    -0.030    21.190     6.569
   473   1 H      0.925     0.072     2.061     2.245
   474   1 H      0.924     0.106     1.728     2.056
   475   6 C      2.754     0.274    22.360     7.743
   476   8 O      0.861    -0.465    23.024     6.433
   477   7 N      2.693    -0.171    24.692     7.380
   478   1 H      0.860     0.192     1.146     1.677
   479   6 C      3.791     0.015    20.327     6.421
   480   1 H      0.925     0.094     1.841     2.122
   481   6 C      3.848    -0.022    20.930     6.507
   482   1 H      0.925     0.054     2.272     2.357
   483   6 C      3.762    -0.116    22.763     6.801
   484   1 H      0.925     0.057     2.237     2.339
   485   1 H      0.925     0.042     2.425     2.435
   486   1 H      0.925     0.024     2.680     2.560
   487   6 C      3.802    -0.064    21.735     6.637
   488   1 H      0.925     0.034     2.531     2.488
   489   1 H      0.925     0.055     2.254     2.348
   490   6 C      3.741    -0.117    22.822     6.816
   491   1 H      0.924     0.030     2.588     2.516
   492   1 H      0.925     0.049     2.332     2.388
   493   1 H      0.925     0.050     2.321     2.382
   494   6 C      2.747     0.267    22.492     7.766
   495   8 O      0.859    -0.460    22.918     6.418
   496   7 N      2.681    -0.189    25.101     7.441
   497   1 H      0.860     0.202     1.095     1.639
   498   6 C      3.736    -0.030    21.191     6.569
   499   1 H      0.925     0.081     1.971     2.195
   500   1 H      0.924     0.094     1.844     2.123
   501   6 C      2.762     0.282    22.227     7.721
   502   8 O      0.863    -0.506    23.918     6.557
   503   7 N      2.698    -0.148    24.205     7.307
   504   1 H      0.860     0.222     1.002     1.568
   505   6 C      3.808     0.025    20.145     6.389
   506   1 H      0.925     0.068     2.107     2.270
   507   6 C      3.808    -0.093    22.258     6.716
   508   1 H      0.925     0.125     1.575     1.963
   509   1 H      0.925     0.089     1.886     2.148
   510   6 C      3.266     0.040    25.899     8.214
   511   7 N      2.757    -0.012    21.485     6.884
   512   1 H      0.860     0.261     0.843     1.438
   513   6 C      3.281     0.057    25.329     8.096
   514   1 H      0.926     0.124     1.582     1.967
   515   7 N      2.783    -0.004    21.334     6.860
   516   1 H      0.860     0.279     0.779     1.382
   517   6 C      3.081    -0.024    28.508     8.753
   518   1 H      0.926     0.139     1.471     1.897
   519   6 C      2.742     0.264    22.543     7.774
   520   8 O      0.857    -0.453    22.778     6.399
   521   7 N      2.693    -0.177    24.841     7.402
   522   1 H      0.860     0.221     1.006     1.571
   523   6 C      3.787     0.025    20.162     6.395
   524   1 H      0.925     0.057     2.229     2.335
   525   6 C      3.820    -0.074    21.903     6.660
   526   1 H      0.924     0.050     2.316     2.380
   527   1 H      0.924     0.038     2.475     2.460
   528   6 C      3.849    -0.011    20.746     6.479
   529   1 H      0.925     0.036     2.497     2.471
   530   6 C      3.761    -0.113    22.700     6.792
   531   1 H      0.925     0.033     2.538     2.491
   532   1 H      0.924     0.036     2.500     2.473
   533   1 H      0.925     0.051     2.304     2.374
   534   6 C      3.762    -0.126    22.962     6.831
   535   1 H      0.925     0.040     2.455     2.450
   536   1 H      0.924     0.043     2.404     2.424
   537   1 H      0.925     0.071     2.076     2.253
   538   6 C      2.751     0.280    22.262     7.726
   539   8 O      0.860    -0.517    24.158     6.590
   540   7 N      2.687    -0.182    24.939     7.417
   541   1 H      0.860     0.226     0.982     1.552
   542   6 C      3.784     0.019    20.265     6.412
   543   1 H      0.925     0.091     1.870     2.139
   544   6 C      3.829    -0.077    21.941     6.665
   545   1 H      0.925     0.061     2.188     2.313
   546   1 H      0.925     0.056     2.247     2.344
   547   6 C      3.853    -0.019    20.880     6.499
   548   1 H      0.925     0.031     2.577     2.510
   549   6 C      3.776    -0.126    22.938     6.824
   550   1 H      0.925     0.067     2.123     2.279
   551   1 H      0.925     0.044     2.391     2.418
   552   1 H      0.924     0.052     2.295     2.369
   553   6 C      3.755    -0.126    22.980     6.835
   554   1 H      0.925     0.038     2.475     2.460
   555   1 H      0.924     0.061     2.187     2.313
   556   1 H      0.925     0.032     2.561     2.503
   557   6 C      2.742     0.269    22.455     7.759
   558   8 O      0.860    -0.496    23.692     6.526
   559   7 N      2.677    -0.176    24.822     7.400
   560   1 H      0.860     0.210     1.057     1.611
   561   6 C      3.787     0.003    20.550     6.457
   562   1 H      0.924     0.066     2.128     2.281
   563   6 C      3.724     0.111    18.866     6.202
   564   1 H      0.925     0.043     2.404     2.424
   565   6 C      3.759    -0.123    22.912     6.824
   566   1 H      0.924     0.046     2.371     2.408
   567   1 H      0.925     0.077     2.009     2.216
   568   1 H      0.925     0.061     2.189     2.314
   569   8 O      1.662    -0.467    22.181     6.358
   570   1 H      0.805     0.347     0.595     1.211
   571   6 C      2.747     0.269    22.465     7.761
   572   8 O      0.857    -0.470    23.122     6.447
   573   7 N      2.682    -0.194    25.210     7.457
   574   1 H      0.860     0.221     1.007     1.572
   575   6 C      3.770     0.000    20.612     6.470
   576   1 H      0.924     0.080     1.982     2.202
   577   6 C      3.791    -0.081    22.058     6.689
   578   1 H      0.924     0.081     1.964     2.192
   579   1 H      0.924     0.082     1.960     2.189
   580   6 C      3.789    -0.079    22.016     6.683
   581   1 H      0.924     0.060     2.201     2.320
   582   1 H      0.924     0.044     2.400     2.423
   583   6 C      3.798    -0.095    22.324     6.728
   584   1 H      0.925     0.064     2.152     2.294
   585   1 H      0.925     0.084     1.942     2.179
   586   6 C      3.735    -0.053    21.617     6.635
   587   1 H      0.925     0.119     1.620     1.991
   588   1 H      0.924     0.119     1.621     1.991
   589   7 N      3.487    -0.154    24.323     7.325
   590   1 H      0.860     0.301     0.710     1.320
   591   1 H      0.860     0.304     0.702     1.313
   592   1 H      0.860     0.305     0.699     1.310
   593   6 C      2.749     0.277    22.315     7.735
   594   8 O      0.865    -0.479    23.313     6.474
   595   7 N      2.691    -0.153    24.321     7.324
   596   1 H      0.860     0.229     0.970     1.543
   597   6 C      3.778     0.017    20.318     6.422
   598   1 H      0.925     0.082     1.963     2.191
   599   6 C      3.658     0.060    19.843     6.393
   600   1 H      0.925     0.050     2.317     2.381
   601   1 H      0.924     0.068     2.105     2.269
   602   8 O      1.652    -0.485    22.565     6.412
   603   1 H      0.805     0.347     0.595     1.211
   604   6 C      2.746     0.233    23.109     7.871
   605   8 O      0.858    -0.480    23.346     6.478
   606   7 N      2.740    -0.079    22.772     7.087
   607   6 C      3.792    -0.018    20.899     6.510
   608   1 H      0.925     0.056     2.241     2.341
   609   1 H      0.924     0.073     2.053     2.241
   610   6 C      3.798    -0.072    21.872     6.659
   611   1 H      0.925     0.071     2.079     2.255
   612   1 H      0.924     0.069     2.097     2.265
   613   6 C      3.820    -0.072    21.870     6.655
   614   1 H      0.925     0.072     2.065     2.247
   615   1 H      0.924     0.074     2.043     2.235
   616   6 C      3.848     0.022    20.164     6.387
   617   1 H      0.925     0.055     2.255     2.348
   618   6 C      2.756     0.274    22.375     7.746
   619   8 O      0.859    -0.497    23.718     6.530
   620   7 N      2.691    -0.180    24.889     7.409
   621   1 H      0.860     0.234     0.947     1.524
   622   6 C      3.785    -0.001    20.618     6.468
   623   1 H      0.925     0.074     2.044     2.236
   624   6 C      3.674     0.069    19.647     6.352
   625   1 H      0.925     0.062     2.172     2.305
   626   1 H      0.925     0.061     2.187     2.313
   627   8 O      1.657    -0.467    22.185     6.358
   628   1 H      0.805     0.350     0.588     1.204
   629   6 C      2.748     0.263    22.561     7.778
   630   8 O      0.860    -0.463    22.972     6.426
   631   7 N      2.697    -0.164    24.538     7.357
   632   1 H      0.860     0.217     1.025     1.586
   633   6 C      3.792     0.002    20.551     6.456
   634   1 H      0.925     0.117     1.635     1.999
   635   6 C      3.812    -0.093    22.271     6.717
   636   1 H      0.925     0.050     2.319     2.381
   637   1 H      0.925     0.091     1.874     2.141
   638   6 C      3.850    -0.016    20.834     6.492
   639   1 H      0.925     0.044     2.394     2.420
   640   6 C      3.757    -0.134    23.137     6.858
   641   1 H      0.924     0.041     2.438     2.442
   642   1 H      0.925     0.060     2.199     2.319
   643   1 H      0.925     0.043     2.406     2.425
   644   6 C      3.752    -0.131    23.084     6.852
   645   1 H      0.925     0.044     2.390     2.418
   646   1 H      0.925     0.059     2.205     2.322
   647   1 H      0.924     0.060     2.202     2.320
   648   6 C      2.750     0.253    22.749     7.810
   649   8 O      0.857    -0.478    23.311     6.473
   650   7 N      2.681    -0.180    24.899     7.411
   651   1 H      0.860     0.218     1.017     1.580
   652   6 C      3.783     0.013    20.382     6.431
   653   1 H      0.925     0.105     1.740     2.063
   654   6 C      3.798    -0.119    22.775     6.795
   655   1 H      0.924     0.085     1.926     2.170
   656   1 H      0.925     0.112     1.680     2.027
   657   6 C      2.739     0.288    22.109     7.699
   658   8 O      0.872    -0.511    24.032     6.573
   659   7 N      2.648    -0.255    26.619     7.663
   660   1 H      0.860     0.242     0.915     1.498
   661   1 H      0.860     0.212     1.045     1.601
   662   6 C      2.753     0.273    22.386     7.748
   663   8 O      0.864    -0.481    23.375     6.482
   664   7 N      2.689    -0.184    24.979     7.423
   665   1 H      0.860     0.235     0.945     1.523
   666   6 C      3.787     0.022    20.218     6.404
   667   1 H      0.925     0.077     2.011     2.218
   668   6 C      3.760    -0.131    23.072     6.848
   669   1 H      0.924     0.064     2.148     2.292
   670   1 H      0.924     0.071     2.070     2.250
   671   1 H      0.925     0.054     2.270     2.356
   672   6 C      2.757     0.261    22.595     7.784
   673   8 O      0.860    -0.528    24.421     6.626
   674   7 N      2.693    -0.166    24.588     7.365
   675   1 H      0.860     0.234     0.949     1.526
   676   6 C      3.786     0.025    20.165     6.396
   677   1 H      0.925     0.054     2.266     2.354
   678   6 C      3.764    -0.143    23.296     6.880
   679   1 H      0.925     0.101     1.778     2.085
   680   1 H      0.924     0.075     2.035     2.231
   681   1 H      0.925     0.068     2.107     2.270
   682   6 C      2.732     0.266    22.504     7.767
   683   8 O      0.858    -0.477    23.284     6.469
   684   7 N      2.678    -0.187    25.063     7.435
   685   1 H      0.860     0.230     0.965     1.539
   686   6 C      3.773     0.005    20.525     6.456
   687   1 H      0.924     0.107     1.723     2.053
   688   6 C      3.800    -0.092    22.248     6.716
   689   1 H      0.925     0.058     2.227     2.334
   690   1 H      0.925     0.073     2.056     2.242
   691   6 C      3.800    -0.080    22.024     6.682
   692   1 H      0.924     0.089     1.885     2.147
   693   1 H      0.925     0.065     2.142     2.289
   694   6 C      3.805    -0.100    22.395     6.737
   695   1 H      0.925     0.083     1.946     2.181
   696   1 H      0.925     0.099     1.797     2.096
   697   6 C      3.730    -0.057    21.695     6.649
   698   1 H      0.924     0.115     1.651     2.010
   699   1 H      0.925     0.099     1.798     2.097
   700   7 N      3.489    -0.144    24.102     7.292
   701   1 H      0.860     0.296     0.724     1.333
   702   1 H      0.860     0.305     0.698     1.309
   703   1 H      0.860     0.290     0.744     1.351
   704   6 C      2.749     0.271    22.427     7.754
   705   8 O      0.860    -0.515    24.118     6.584
   706   7 N      2.681    -0.172    24.728     7.385
   707   1 H      0.860     0.233     0.951     1.527
   708   6 C      3.778    -0.005    20.697     6.481
   709   1 H      0.925     0.082     1.964     2.191
   710   6 C      3.663     0.054    19.930     6.404
   711   1 H      0.924     0.071     2.077     2.254
   712   1 H      0.924     0.057     2.235     2.338
   713   8 O      1.649    -0.469    22.236     6.365
   714   1 H      0.805     0.343     0.604     1.220
   715   6 C      2.756     0.256    22.683     7.799
   716   8 O      0.859    -0.510    24.003     6.569
   717   7 N      2.690    -0.158    24.419     7.339
   718   1 H      0.860     0.238     0.932     1.512
   719   6 C      3.804     0.030    20.072     6.378
   720   1 H      0.924     0.079     1.991     2.207
   721   6 C      3.802    -0.051    21.484     6.599
   722   1 H      0.925     0.040     2.448     2.447
   723   1 H      0.925     0.058     2.228     2.334
   724   6 C      3.805    -0.084    22.090     6.691
   725   1 H      0.924     0.035     2.514     2.480
   726   1 H      0.925     0.047     2.361     2.403
   727   6 C      2.688     0.347    21.098     7.517
   728   8 O      0.857    -0.608    26.312     6.877
   729   8 O      0.854    -0.699    28.683     7.180
   730   6 C      2.749     0.253    22.744     7.809
   731   8 O      0.860    -0.536    24.607     6.651
   732   7 N      2.694    -0.162    24.495     7.351
   733   1 H      0.860     0.225     0.987     1.556
   734   6 C      3.790     0.009    20.443     6.439
   735   1 H      0.925     0.091     1.873     2.140
   736   6 C      3.819    -0.087    22.144     6.697
   737   1 H      0.924     0.068     2.106     2.270
   738   1 H      0.924     0.079     1.986     2.204
   739   6 C      3.853    -0.019    20.880     6.499
   740   1 H      0.925     0.037     2.486     2.466
   741   6 C      3.754    -0.124    22.926     6.828
   742   1 H      0.925     0.059     2.208     2.324
   743   1 H      0.924     0.048     2.347     2.396
   744   1 H      0.924     0.025     2.662     2.552
   745   6 C      3.761    -0.129    23.022     6.840
   746   1 H      0.925     0.048     2.340     2.392
   747   1 H      0.924     0.063     2.168     2.303
   748   1 H      0.925     0.056     2.245     2.343
   749   6 C      2.744     0.282    22.222     7.719
   750   8 O      0.860    -0.486    23.482     6.497
   751   7 N      2.687    -0.200    25.350     7.478
   752   1 H      0.860     0.235     0.944     1.522
   753   6 C      3.793     0.041    19.899     6.352
   754   1 H      0.925     0.062     2.180     2.309
   755   6 C      3.815    -0.095    22.302     6.722
   756   1 H      0.924     0.023     2.683     2.561
   757   1 H      0.924     0.068     2.107     2.270
   758   6 C      2.688     0.382    20.534     7.416
   759   8 O      0.862    -0.636    27.007     6.968
   760   8 O      0.860    -0.664    27.752     7.063
   761   6 C      2.762     0.279    22.284     7.731
   762   8 O      0.858    -0.533    24.525     6.640
   763   7 N      2.693    -0.168    24.640     7.372
   764   1 H      0.860     0.214     1.037     1.595
   765   6 C      3.787     0.014    20.362     6.427
   766   1 H      0.925     0.081     1.974     2.197
   767   6 C      3.800    -0.092    22.264     6.718
   768   1 H      0.925     0.074     2.042     2.235
   769   1 H      0.925     0.079     1.987     2.204
   770   6 C      3.797    -0.070    21.845     6.655
   771   1 H      0.925     0.034     2.535     2.490
   772   1 H      0.924     0.041     2.429     2.437
   773   6 C      3.798    -0.073    21.897     6.663
   774   1 H      0.925     0.082     1.954     2.186
   775   1 H      0.925     0.067     2.122     2.278
   776   6 C      3.732    -0.048    21.536     6.624
   777   1 H      0.924     0.113     1.669     2.020
   778   1 H      0.925     0.108     1.717     2.049
   779   7 N      3.486    -0.149    24.207     7.307
   780   1 H      0.860     0.296     0.726     1.334
   781   1 H      0.860     0.298     0.718     1.327
   782   1 H      0.860     0.301     0.710     1.320
   783   6 C      2.748     0.279    22.272     7.728
   784   8 O      0.861    -0.480    23.350     6.479
   785   7 N      2.690    -0.184    24.988     7.424
   786   1 H      0.860     0.196     1.128     1.664
   787   6 C      3.783     0.022    20.214     6.404
   788   1 H      0.924     0.078     2.002     2.213
   789   6 C      3.757    -0.127    22.992     6.836
   790   1 H      0.925     0.068     2.102     2.267
   791   1 H      0.924     0.070     2.081     2.256
   792   1 H      0.925     0.068     2.109     2.271
   793   6 C      2.741     0.263    22.572     7.779
   794   8 O      0.859    -0.477    23.277     6.469
   795   7 N      2.686    -0.213    25.638     7.520
   796   1 H      0.860     0.234     0.948     1.525
   797   6 C      3.782     0.026    20.151     6.395
   798   1 H      0.925     0.084     1.941     2.178
   799   6 C      3.848    -0.030    21.072     6.529
   800   1 H      0.925     0.066     2.135     2.285
   801   6 C      3.751    -0.118    22.814     6.812
   802   1 H      0.925     0.066     2.132     2.284
   803   1 H      0.925     0.031     2.568     2.506
   804   1 H      0.925     0.035     2.516     2.480
   805   6 C      3.800    -0.061    21.672     6.628
   806   1 H      0.925     0.033     2.538     2.491
   807   1 H      0.925     0.056     2.247     2.344
   808   6 C      3.748    -0.116    22.779     6.807
   809   1 H      0.925     0.056     2.248     2.345
   810   1 H      0.924     0.047     2.363     2.404
   811   1 H      0.925     0.032     2.553     2.499
   812   6 C      2.743     0.269    22.450     7.758
   813   8 O      0.856    -0.509    23.977     6.565
   814   7 N      2.680    -0.162    24.500     7.351
   815   1 H      0.860     0.192     1.148     1.678
   816   6 C      3.734    -0.033    21.256     6.580
   817   1 H      0.924     0.109     1.707     2.043
   818   1 H      0.925     0.093     1.847     2.125
   819   6 C      2.746     0.270    22.433     7.755
   820   8 O      0.859    -0.496    23.703     6.528
   821   7 N      2.683    -0.167    24.614     7.368
   822   1 H      0.860     0.198     1.116     1.655
   823   6 C      3.784     0.011    20.401     6.434
   824   1 H      0.924     0.074     2.046     2.237
   825   6 C      3.828    -0.075    21.917     6.661
   826   1 H      0.924     0.084     1.937     2.176
   827   1 H      0.925     0.069     2.099     2.266
   828   6 C      3.824    -0.064    21.701     6.629
   829   1 H      0.925     0.050     2.318     2.381
   830   1 H      0.925     0.051     2.307     2.375
   831   6 C      3.768    -0.011    20.802     6.500
   832   1 H      0.924     0.073     2.055     2.242
   833   1 H      0.925     0.071     2.074     2.252
   834   7 N      2.730    -0.198    25.288     7.469
   835   1 H      0.860     0.251     0.881     1.471
   836   6 C      2.735     0.245    22.887     7.833
   837   7 N      2.693    -0.243    26.327     7.621
   838   1 H      0.860     0.248     0.891     1.478
   839   1 H      0.860     0.241     0.917     1.500
   840   7 N      2.700    -0.269    26.948     7.710
   841   1 H      0.860     0.241     0.918     1.501
   842   1 H      0.860     0.250     0.884     1.473
   843   6 C      2.755     0.270    22.445     7.758
   844   8 O      0.857    -0.472    23.171     6.454
   845   7 N      2.681    -0.183    24.975     7.422
   846   1 H      0.860     0.224     0.992     1.561
   847   6 C      3.785     0.025    20.176     6.398
   848   1 H      0.924     0.075     2.034     2.231
   849   6 C      3.822    -0.113    22.635     6.770
   850   1 H      0.925     0.090     1.882     2.146
   851   1 H      0.924     0.094     1.841     2.122
   852   6 C      2.745     0.297    21.960     7.673
   853   8 O      0.864    -0.521    24.245     6.602
   854   7 N      2.664    -0.274    27.090     7.730
   855   1 H      0.860     0.246     0.898     1.484
   856   1 H      0.860     0.238     0.929     1.510
   857   6 C      2.743     0.261    22.606     7.785
   858   8 O      0.857    -0.470    23.126     6.448
   859   7 N      2.684    -0.177    24.841     7.402
   860   1 H      0.860     0.197     1.121     1.659
   861   6 C      3.790     0.009    20.433     6.438
   862   1 H      0.924     0.115     1.653     2.010
   863   6 C      3.801    -0.026    21.036     6.530
   864   1 H      0.925     0.063     2.166     2.302
   865   1 H      0.926     0.097     1.816     2.107
   866  16 S      1.908    -0.235   151.121    20.691
   867   1 H      0.923     0.150     1.395     1.847
   868   6 C      2.745     0.277    22.307     7.733
   869   8 O      0.858    -0.445    22.602     6.374
   870   7 N      2.684    -0.182    24.951     7.419
   871   1 H      0.860     0.198     1.119     1.657
   872   6 C      3.782     0.014    20.352     6.426
   873   1 H      0.925     0.096     1.822     2.111
   874   6 C      3.804    -0.092    22.257     6.716
   875   1 H      0.924     0.077     2.012     2.218
   876   1 H      0.924     0.080     1.980     2.201
   877   6 C      2.745     0.286    22.159     7.708
   878   8 O      0.861    -0.516    24.140     6.587
   879   7 N      2.638    -0.271    27.008     7.718
   880   1 H      0.860     0.258     0.854     1.447
   881   1 H      0.860     0.225     0.988     1.557
   882   6 C      2.745     0.272    22.405     7.750
   883   8 O      0.859    -0.439    22.466     6.355
   884   7 N      2.681    -0.182    24.955     7.419
   885   1 H      0.860     0.186     1.183     1.704
   886   6 C      3.734    -0.054    21.634     6.638
   887   1 H      0.925     0.131     1.524     1.930
   888   1 H      0.924     0.100     1.785     2.089
   889   6 C      2.757     0.269    22.459     7.761
   890   8 O      0.861    -0.464    22.997     6.430
   891   7 N      2.693    -0.153    24.318     7.324
   892   1 H      0.860     0.195     1.131     1.666
   893   6 C      3.821     0.010    20.388     6.426
   894   1 H      0.925     0.105     1.738     2.062
   895   6 C      3.863    -0.018    20.861     6.495
   896   1 H      0.924     0.046     2.372     2.408
   897   6 C      3.763    -0.119    22.817     6.809
   898   1 H      0.925     0.054     2.270     2.356
   899   1 H      0.924     0.042     2.425     2.435
   900   1 H      0.925     0.022     2.696     2.568
   901   6 C      3.763    -0.125    22.938     6.827
   902   1 H      0.925     0.059     2.213     2.326
   903   1 H      0.925     0.045     2.382     2.414
   904   1 H      0.925     0.060     2.200     2.320
   905   6 C      2.756     0.273    22.390     7.749
   906   8 O      0.858    -0.504    23.881     6.552
   907   7 N      2.690    -0.165    24.571     7.362
   908   1 H      0.860     0.224     0.993     1.561
   909   6 C      3.792     0.007    20.473     6.444
   910   1 H      0.925     0.086     1.914     2.163
   911   6 C      3.836    -0.035    21.168     6.546
   912   1 H      0.925     0.040     2.451     2.448
   913   6 C      3.744    -0.122    22.918     6.829
   914   1 H      0.925     0.063     2.166     2.302
   915   1 H      0.925     0.054     2.273     2.358
   916   1 H      0.925     0.042     2.417     2.431
   917   6 C      3.793    -0.066    21.781     6.646
   918   1 H      0.925     0.034     2.530     2.488
   919   1 H      0.924     0.053     2.281     2.362
   920   6 C      3.750    -0.115    22.756     6.803
   921   1 H      0.924     0.025     2.664     2.552
   922   1 H      0.925     0.043     2.408     2.426
   923   1 H      0.925     0.059     2.208     2.324
   924   6 C      2.753     0.280    22.265     7.727
   925   8 O      0.860    -0.478    23.301     6.472
   926   7 N      2.686    -0.188    25.080     7.438
   927   1 H      0.860     0.217     1.026     1.586
   928   6 C      3.785     0.006    20.486     6.447
   929   1 H      0.924     0.098     1.801     2.099
   930   6 C      3.715     0.101    19.030     6.232
   931   1 H      0.925     0.061     2.189     2.314
   932   6 C      3.752    -0.142    23.297     6.883
   933   1 H      0.925     0.070     2.089     2.260
   934   1 H      0.925     0.068     2.113     2.273
   935   1 H      0.924     0.073     2.058     2.244
   936   8 O      1.649    -0.511    23.137     6.493
   937   1 H      0.805     0.319     0.667     1.283
   938   6 C      2.762     0.264    22.550     7.777
   939   8 O      0.857    -0.497    23.712     6.529
   940   7 N      2.691    -0.174    24.773     7.392
   941   1 H      0.860     0.223     0.994     1.562
   942   6 C      3.793     0.008    20.456     6.441
   943   1 H      0.924     0.105     1.740     2.063
   944   6 C      3.795    -0.084    22.117     6.697
   945   1 H      0.924     0.060     2.197     2.318
   946   1 H      0.925     0.089     1.889     2.149
   947   6 C      3.785    -0.073    21.920     6.669
   948   1 H      0.925     0.074     2.038     2.233
   949   1 H      0.924     0.044     2.400     2.423
   950   6 C      3.789    -0.104    22.499     6.755
   951   1 H      0.925     0.076     2.017     2.221
   952   1 H      0.924     0.107     1.724     2.054
   953   6 C      3.730    -0.047    21.523     6.622
   954   1 H      0.924     0.132     1.522     1.930
   955   1 H      0.924     0.118     1.628     1.995
   956   7 N      3.485    -0.160    24.458     7.345
   957   1 H      0.860     0.288     0.750     1.356
   958   1 H      0.860     0.270     0.808     1.408
   959   1 H      0.860     0.287     0.753     1.360
   960   6 C      2.754     0.263    22.559     7.778
   961   8 O      0.863    -0.509    23.987     6.567
   962   7 N      2.697    -0.168    24.634     7.371
   963   1 H      0.860     0.196     1.128     1.663
   964   6 C      3.796     0.043    19.854     6.345
   965   1 H      0.925     0.076     2.026     2.226
   966   6 C      3.795    -0.106    22.524     6.758
   967   1 H      0.924     0.033     2.549     2.497
   968   1 H      0.924     0.047     2.356     2.400
   969   6 C      2.676     0.360    20.893     7.480
   970   8 O      0.856    -0.625    26.738     6.933
   971   8 O      0.855    -0.639    27.099     6.979
   972   6 C      2.749     0.266    22.519     7.770
   973   8 O      0.859    -0.501    23.808     6.542
   974   7 N      2.681    -0.190    25.115     7.443
   975   1 H      0.860     0.209     1.061     1.613
   976   6 C      3.788     0.024    20.188     6.399
   977   1 H      0.925     0.077     2.008     2.216
   978   6 C      3.802    -0.065    21.745     6.639
   979   1 H      0.925     0.061     2.186     2.312
   980   1 H      0.925     0.071     2.079     2.255
   981   6 C      3.802    -0.103    22.468     6.748
   982   1 H      0.924     0.049     2.336     2.390
   983   1 H      0.924     0.053     2.286     2.364
   984   6 C      2.689     0.367    20.778     7.460
   985   8 O      0.860    -0.592    25.933     6.828
   986   8 O      0.861    -0.596    26.012     6.838
   987   6 C      2.749     0.256    22.682     7.798
   988   8 O      0.856    -0.483    23.418     6.488
   989   7 N      2.685    -0.180    24.902     7.411
   990   1 H      0.860     0.237     0.937     1.516
   991   6 C      3.795     0.028    20.113     6.386
   992   1 H      0.924     0.075     2.033     2.230
   993   6 C      3.753    -0.134    23.130     6.858
   994   1 H      0.925     0.088     1.902     2.157
   995   1 H      0.924     0.064     2.153     2.294
   996   1 H      0.925     0.069     2.093     2.262
   997   6 C      2.750     0.268    22.475     7.763
   998   8 O      0.859    -0.502    23.834     6.546
   999   7 N      2.685    -0.180    24.891     7.410
  1000   1 H      0.860     0.224     0.993     1.561
  1001   6 C      3.782     0.020    20.258     6.412
  1002   1 H      0.924     0.082     1.961     2.190
  1003   6 C      3.792    -0.050    21.478     6.600
  1004   1 H      0.925     0.044     2.396     2.420
  1005   1 H      0.924     0.042     2.426     2.436
  1006   6 C      3.791    -0.097    22.356     6.734
  1007   1 H      0.924     0.042     2.426     2.436
  1008   1 H      0.924     0.033     2.544     2.494
  1009   6 C      2.685     0.369    20.750     7.455
  1010   8 O      0.857    -0.649    27.367     7.014
  1011   8 O      0.857    -0.589    25.840     6.815
  1012   6 C      2.742     0.259    22.638     7.790
  1013   8 O      0.857    -0.494    23.663     6.522
  1014   7 N      2.688    -0.174    24.772     7.392
  1015   1 H      0.860     0.207     1.071     1.621
  1016   6 C      3.788     0.023    20.206     6.402
  1017   1 H      0.925     0.092     1.857     2.131
  1018   6 C      3.807    -0.090    22.207     6.708
  1019   1 H      0.924     0.080     1.977     2.199
  1020   1 H      0.925     0.083     1.953     2.185
  1021   6 C      3.814    -0.080    22.022     6.679
  1022   1 H      0.925     0.055     2.262     2.352
  1023   1 H      0.925     0.049     2.333     2.389
  1024   6 C      3.799    -0.099    22.386     6.737
  1025   1 H      0.924     0.093     1.846     2.125
  1026   1 H      0.924     0.082     1.954     2.186
  1027   6 C      3.738    -0.055    21.654     6.640
  1028   1 H      0.925     0.102     1.769     2.080
  1029   1 H      0.924     0.119     1.624     1.993
  1030   7 N      3.488    -0.137    23.965     7.271
  1031   1 H      0.860     0.305     0.697     1.308
  1032   1 H      0.860     0.286     0.755     1.362
  1033   1 H      0.860     0.300     0.714     1.323
  1034   6 C      2.744     0.259    22.628     7.789
  1035   8 O      0.858    -0.515    24.128     6.586
  1036   7 N      2.684    -0.180    24.894     7.410
  1037   1 H      0.860     0.234     0.950     1.527
  1038   6 C      3.780     0.025    20.182     6.400
  1039   1 H      0.925     0.083     1.951     2.184
  1040   6 C      3.813    -0.072    21.862     6.655
  1041   1 H      0.924     0.047     2.352     2.398
  1042   1 H      0.925     0.075     2.026     2.226
  1043   6 C      3.849    -0.023    20.941     6.509
  1044   1 H      0.925     0.025     2.663     2.552
  1045   6 C      3.760    -0.140    23.250     6.874
  1046   1 H      0.925     0.077     2.006     2.215
  1047   1 H      0.924     0.038     2.469     2.457
  1048   1 H      0.924     0.055     2.262     2.352
  1049   6 C      3.752    -0.134    23.134     6.859
  1050   1 H      0.925     0.065     2.136     2.286
  1051   1 H      0.924     0.047     2.353     2.399
  1052   1 H      0.925     0.053     2.286     2.365
  1053   6 C      2.751     0.270    22.441     7.757
  1054   8 O      0.858    -0.514    24.097     6.581
  1055   7 N      2.680    -0.209    25.546     7.507
  1056   1 H      0.860     0.231     0.962     1.536
  1057   6 C      3.786     0.042    19.890     6.352
  1058   1 H      0.925     0.070     2.082     2.256
  1059   6 C      3.797    -0.071    21.871     6.659
  1060   1 H      0.925     0.047     2.352     2.398
  1061   1 H      0.924     0.066     2.135     2.285
  1062   6 C      2.959    -0.004    28.114     8.697
  1063   6 C      2.906    -0.040    28.991     8.829
  1064   1 H      0.926     0.029     2.602     2.522
  1065   6 C      2.914    -0.037    28.918     8.818
  1066   1 H      0.926     0.053     2.283     2.363
  1067   6 C      2.905    -0.041    29.013     8.832
  1068   1 H      0.926     0.069     2.098     2.265
  1069   6 C      2.918    -0.024    28.608     8.771
  1070   1 H      0.926     0.047     2.354     2.400
  1071   6 C      2.901    -0.034    28.853     8.807
  1072   1 H      0.926     0.036     2.505     2.475
  1073   6 C      2.744     0.271    22.419     7.753
  1074   8 O      0.859    -0.485    23.445     6.492
  1075   7 N      2.688    -0.218    25.759     7.538
  1076   1 H      0.860     0.229     0.968     1.541
  1077   6 C      3.786     0.035    20.002     6.370
  1078   1 H      0.925     0.084     1.942     2.179
  1079   6 C      3.823    -0.118    22.737     6.786
  1080   1 H      0.925     0.065     2.142     2.289
  1081   1 H      0.925     0.083     1.944     2.181
  1082   6 C      2.741     0.310    21.730     7.633
  1083   8 O      0.869    -0.487    23.485     6.498
  1084   7 N      2.654    -0.283    27.314     7.762
  1085   1 H      0.860     0.244     0.907     1.491
  1086   1 H      0.860     0.243     0.912     1.496
  1087   6 C      2.756     0.280    22.264     7.727
  1088   8 O      0.858    -0.501    23.811     6.542
  1089   7 N      2.682    -0.168    24.644     7.373
  1090   1 H      0.860     0.202     1.097     1.641
  1091   6 C      3.778     0.021    20.252     6.411
  1092   1 H      0.925     0.083     1.952     2.185
  1093   6 C      3.798    -0.056    21.585     6.615
  1094   1 H      0.924     0.055     2.259     2.350
  1095   1 H      0.925     0.059     2.207     2.323
  1096   6 C      3.801    -0.098    22.368     6.734
  1097   1 H      0.924     0.065     2.137     2.286
  1098   1 H      0.925     0.065     2.143     2.289
  1099   6 C      2.741     0.286    22.156     7.707
  1100   8 O      0.860    -0.519    24.204     6.596
  1101   7 N      2.638    -0.275    27.113     7.733
  1102   1 H      0.860     0.235     0.945     1.523
  1103   1 H      0.860     0.235     0.944     1.522
  1104   6 C      2.742     0.270    22.436     7.755
  1105   8 O      0.860    -0.490    23.563     6.508
  1106   7 N      2.686    -0.171    24.709     7.383
  1107   1 H      0.860     0.209     1.063     1.615
  1108   6 C      3.789     0.036    19.985     6.367
  1109   1 H      0.925     0.079     1.991     2.207
  1110   6 C      3.810    -0.072    21.877     6.658
  1111   1 H      0.925     0.049     2.336     2.390
  1112   1 H      0.925     0.036     2.508     2.476
  1113   6 C      2.688     0.350    21.054     7.509
  1114   8 O      0.855    -0.634    26.967     6.962
  1115   8 O      0.856    -0.625    26.738     6.933
  1116   6 C      2.745     0.264    22.541     7.774
  1117   8 O      0.859    -0.487    23.507     6.500
  1118   7 N      2.681    -0.191    25.142     7.447
  1119   1 H      0.860     0.218     1.019     1.581
  1120   6 C      3.779     0.013    20.381     6.432
  1121   1 H      0.925     0.097     1.814     2.106
  1122   6 C      3.848    -0.020    20.900     6.503
  1123   1 H      0.924     0.034     2.534     2.489
  1124   6 C      3.789    -0.128    22.965     6.825
  1125   1 H      0.925     0.078     2.004     2.214
  1126   1 H      0.925     0.071     2.072     2.251
  1127   1 H      0.925     0.049     2.328     2.386
  1128   6 C      3.791    -0.125    22.909     6.816
  1129   1 H      0.924     0.076     2.018     2.222
  1130   1 H      0.925     0.065     2.136     2.286
  1131   1 H      0.924     0.028     2.620     2.531
  1132   6 C      2.751     0.258    22.661     7.795
  1133   8 O      0.856    -0.472    23.183     6.455
  1134   7 N      2.684    -0.193    25.197     7.455
  1135   1 H      0.860     0.180     1.213     1.725
  1136   6 C      3.792     0.036    19.983     6.366
  1137   1 H      0.925     0.085     1.927     2.171
  1138   6 C      3.810    -0.090    22.207     6.708
  1139   1 H      0.925     0.024     2.669     2.555
  1140   1 H      0.925     0.033     2.540     2.492
  1141   6 C      2.687     0.369    20.738     7.453
  1142   8 O      0.856    -0.642    27.182     6.990
  1143   8 O      0.857    -0.581    25.668     6.793
  1144   6 C      2.755     0.277    22.317     7.736
  1145   8 O      0.860    -0.471    23.158     6.452
  1146   7 N      2.684    -0.164    24.553     7.359
  1147   1 H      0.860     0.193     1.144     1.676
  1148   6 C      3.790     0.008    20.462     6.442
  1149   1 H      0.925     0.105     1.739     2.062
  1150   6 C      3.749    -0.134    23.153     6.863
  1151   1 H      0.925     0.075     2.028     2.227
  1152   1 H      0.924     0.051     2.312     2.378
  1153   1 H      0.924     0.074     2.047     2.237
  1154   6 C      2.748     0.269    22.452     7.759
  1155   8 O      0.860    -0.459    22.905     6.417
  1156   7 N      2.692    -0.182    24.941     7.417
  1157   1 H      0.860     0.206     1.078     1.627
  1158   6 C      3.784     0.018    20.291     6.416
  1159   1 H      0.924     0.084     1.936     2.176
[...]
  2291  N   3.513        C 2289 1.370    C 2293 0.962    H 2292 0.912    O 2290 0.198
  2292  H   0.955        N 2291 0.912
  2293  C   3.957        C 2295 0.981    N 2291 0.962    H 2294 0.950    C 2313 0.928
  2294  H   0.991        C 2293 0.950
  2295  C   3.985        C 2298 1.007    C 2293 0.981    H 2296 0.968    H 2297 0.967
  2296  H   0.993        C 2295 0.968
  2297  H   0.994        C 2295 0.967
  2298  C   3.985        C 2295 1.007    C 2301 0.994    H 2300 0.974    H 2299 0.972
  2299  H   0.996        C 2298 0.972
  2300  H   0.994        C 2298 0.974
  2301  C   3.953        C 2298 0.994    N 2304 0.990    H 2302 0.960    H 2303 0.959
  2302  H   0.994        C 2301 0.960
  2303  H   0.995        C 2301 0.959
  2304  N   3.428        C 2306 1.270    C 2301 0.990    H 2305 0.908
  2305  H   0.945        N 2304 0.908
  2306  C   3.976        N 2310 1.363    N 2307 1.314    N 2304 1.270
  2307  N   3.403        C 2306 1.314    H 2308 0.928    H 2309 0.919    N 2310 0.109
  2308  H   0.953        N 2307 0.928
  2309  H   0.945        N 2307 0.919
  2310  N   3.426        C 2306 1.363    H 2311 0.926    H 2312 0.868    N 2307 0.109
  2311  H   0.953        N 2310 0.926
  2312  H   0.927        N 2310 0.868
  2313  C   3.954        O 2314 1.649    N 2315 1.296    C 2293 0.928
  2314  O   2.002        C 2313 1.649    N 2315 0.201
  2315  N   3.469        C 2313 1.296    C 2317 0.981    H 2316 0.915    O 2314 0.201
  2316  H   0.955        N 2315 0.915
  2317  C   3.959        N 2315 0.981    C 2319 0.969    C 2323 0.955    H 2318 0.944
  2318  H   0.992        C 2317 0.944
  2319  C   3.976        H 2320 0.980    H 2321 0.978    H 2322 0.974    C 2317 0.969
  2320  H   0.994        C 2319 0.980
  2321  H   0.996        C 2319 0.978
  2322  H   0.994        C 2319 0.974
  2323  C   3.956        O 2324 1.594    N 2325 1.322    C 2317 0.955
  2324  O   1.942        C 2323 1.594    N 2325 0.192
  2325  N   3.466        C 2323 1.322    C 2327 0.965    H 2326 0.895    O 2324 0.192
  2326  H   0.948        N 2325 0.895
  2327  C   3.955        C 2329 0.980    N 2325 0.965    H 2328 0.952    C 2345 0.921
  2328  H   0.990        C 2327 0.952
  2329  C   3.981        C 2332 1.007    C 2327 0.980    H 2330 0.969    H 2331 0.965
  2330  H   0.996        C 2329 0.969
  2331  H   0.995        C 2329 0.965
  2332  C   3.987        C 2329 1.007    C 2335 1.001    H 2334 0.973    H 2333 0.969
  2333  H   0.995        C 2332 0.969
  2334  H   0.994        C 2332 0.973
  2335  C   3.983        C 2338 1.007    C 2332 1.001    H 2336 0.973    H 2337 0.965
  2336  H   0.994        C 2335 0.973
  2337  H   0.996        C 2335 0.965
  2338  C   3.905        C 2335 1.007    H 2339 0.964    H 2340 0.959    N 2341 0.953
  2339  H   0.986        C 2338 0.964
  2340  H   0.981        C 2338 0.959
  2341  N   3.658        C 2338 0.953    H 2343 0.896    H 2344 0.896    H 2342 0.893
  2342  H   0.910        N 2341 0.893
  2343  H   0.916        N 2341 0.896
  2344  H   0.910        N 2341 0.896
  2345  C   3.940        O 2346 1.615    N 2347 1.323    C 2327 0.921
  2346  O   1.997        C 2345 1.615    N 2347 0.191
  2347  N   3.458        C 2345 1.323    C 2349 0.957    H 2348 0.894    O 2346 0.191
  2348  H   0.943        N 2347 0.894
  2349  C   3.962        C 2369 0.971    C 2351 0.969    N 2347 0.957    H 2350 0.950
  2350  H   0.992        C 2349 0.950
  2351  C   3.986        C 2354 1.015    C 2349 0.969    H 2352 0.967    H 2353 0.966
  2352  H   0.996        C 2351 0.967
  2353  H   0.994        C 2351 0.966
  2354  C   3.986        C 2351 1.015    C 2357 1.010    H 2355 0.963    H 2356 0.954
  2355  H   0.992        C 2354 0.963
  2356  H   0.994        C 2354 0.954
  2357  C   3.953        C 2354 1.010    H 2359 0.965    H 2358 0.961    N 2360 0.955
  2358  H   0.992        C 2357 0.961
  2359  H   0.996        C 2357 0.965
  2360  N   3.437        C 2362 1.303    C 2357 0.955    H 2361 0.903    N 2366 0.102
  2361  H   0.950        N 2360 0.903
  2362  C   3.979        N 2363 1.329    N 2366 1.320    N 2360 1.303
  2363  N   3.400        C 2362 1.329    H 2364 0.918    H 2365 0.905    N 2366 0.105
  2364  H   0.941        N 2363 0.918
  2365  H   0.936        N 2363 0.905
  2366  N   3.386        C 2362 1.320    H 2367 0.924    H 2368 0.859    N 2363 0.105    N 2360 0.102
  2367  H   0.946        N 2366 0.924
  2368  H   0.938        N 2366 0.859
  2369  C   3.951        O 2370 1.585    N 2371 1.313    C 2349 0.971
  2370  O   1.925        C 2369 1.585    N 2371 0.195
  2371  N   3.468        C 2369 1.313    C 2373 0.969    H 2372 0.898    O 2370 0.195
  2372  H   0.948        N 2371 0.898
  2373  C   3.944        N 2371 0.969    C 2375 0.963    H 2374 0.955    C 2385 0.912
  2374  H   0.993        C 2373 0.955
  2375  C   3.984        C 2381 1.008    C 2377 1.006    C 2373 0.963    H 2376 0.963
  2376  H   0.996        C 2375 0.963
  2377  C   3.989        C 2375 1.006    H 2380 0.981    H 2379 0.979    H 2378 0.973
  2378  H   0.996        C 2377 0.973
  2379  H   0.997        C 2377 0.979
  2380  H   0.997        C 2377 0.981
  2381  C   3.988        C 2375 1.008    H 2382 0.982    H 2384 0.981    H 2383 0.979
  2382  H   0.997        C 2381 0.982
  2383  H   0.997        C 2381 0.979
  2384  H   0.997        C 2381 0.981
  2385  C   3.949        O 2386 1.620    N 2387 1.340    C 2373 0.912
  2386  O   1.967        C 2385 1.620    N 2387 0.199
  2387  N   3.486        C 2385 1.340    C 2389 0.964    H 2388 0.888    O 2386 0.199
  2388  H   0.949        N 2387 0.888
  2389  C   3.952        C 2391 0.967    N 2387 0.964    H 2390 0.939    C 2404 0.937
  2390  H   0.991        C 2389 0.939
  2391  C   3.982        C 2393 1.020    C 2397 0.975    C 2389 0.967    H 2392 0.962
  2392  H   0.997        C 2391 0.962
  2393  C   3.989        C 2391 1.020    H 2394 0.981    H 2396 0.980    H 2395 0.977
  2394  H   0.996        C 2393 0.981
  2395  H   0.996        C 2393 0.977
  2396  H   0.999        C 2393 0.980
  2397  C   3.991        C 2400 1.024    H 2398 0.976    C 2391 0.975    H 2399 0.972
  2398  H   0.996        C 2397 0.976
  2399  H   0.997        C 2397 0.972
  2400  C   3.991        C 2397 1.024    H 2403 0.983    H 2401 0.982    H 2402 0.979
  2401  H   0.997        C 2400 0.982
  2402  H   0.997        C 2400 0.979
  2403  H   0.998        C 2400 0.983
  2404  C   3.947        O 2405 1.573    N 2406 1.355    C 2389 0.937
  2405  O   1.912        C 2404 1.573    N 2406 0.194
  2406  N   3.476        C 2404 1.355    C 2408 0.945    H 2407 0.878    O 2405 0.194
  2407  H   0.947        N 2406 0.878
  2408  C   3.954        H 2409 0.957    C 2418 0.948    N 2406 0.945    C 2410 0.938
  2409  H   0.991        C 2408 0.957
  2410  C   3.962        O 2416 1.030    C 2412 0.997    H 2411 0.953    C 2408 0.938
  2411  H   0.999        C 2410 0.953
  2412  C   3.989        C 2410 0.997    H 2415 0.985    H 2414 0.984    H 2413 0.978
  2413  H   0.995        C 2412 0.978
  2414  H   0.996        C 2412 0.984
  2415  H   0.999        C 2412 0.985
  2416  O   1.972        C 2410 1.030    H 2417 0.836
  2417  H   0.878        O 2416 0.836
  2418  C   3.950        O 2419 1.607    N 2420 1.316    C 2408 0.948
  2419  O   1.953        C 2418 1.607    N 2420 0.200
  2420  N   3.483        C 2418 1.316    C 2422 0.982    H 2421 0.896    O 2419 0.200
  2421  H   0.948        N 2420 0.896
  2422  C   3.956        N 2420 0.982    H 2423 0.954    C 2424 0.943    C 2432 0.914
  2423  H   0.994        C 2422 0.954
  2424  C   3.957        O 2430 1.013    C 2426 0.996    H 2425 0.961    C 2422 0.943
  2425  H   0.999        C 2424 0.961
  2426  C   3.987        C 2424 0.996    H 2429 0.984    H 2428 0.979    H 2427 0.977
  2427  H   0.994        C 2426 0.977
  2428  H   0.996        C 2426 0.979
  2429  H   0.998        C 2426 0.984
  2430  O   1.978        C 2424 1.013    H 2431 0.865
  2431  H   0.896        O 2430 0.865
  2432  C   3.952        O 2433 1.619    N 2434 1.326    C 2422 0.914
  2433  O   1.954        C 2432 1.619    N 2434 0.197
  2434  N   3.488        C 2432 1.326    C 2436 0.983    H 2435 0.898    O 2433 0.197
  2435  H   0.949        N 2434 0.898
  2436  C   3.952        N 2434 0.983    C 2438 0.952    C 2452 0.951    H 2437 0.940
  2437  H   0.991        C 2436 0.940
  2438  C   3.975        C 2441 1.013    H 2440 0.960    H 2439 0.955    C 2436 0.952
  2439  H   0.992        C 2438 0.955
  2440  H   0.995        C 2438 0.960
  2441  C   3.984        C 2442 1.469    C 2450 1.345    C 2438 1.013    C 2446 0.114
  2442  C   3.988        C 2441 1.469    C 2444 1.378    H 2443 0.967    C 2448 0.113
  2443  H   0.999        C 2442 0.967
  2444  C   3.988        C 2446 1.514    C 2442 1.378    H 2445 0.966    C 2450 0.101
  2445  H   0.997        C 2444 0.966
  2446  C   3.981        C 2444 1.514    C 2448 1.348    H 2447 0.963    C 2441 0.114
  2447  H   0.997        C 2446 0.963
  2448  C   3.988        C 2450 1.526    C 2446 1.348    H 2449 0.968    C 2442 0.113
  2449  H   0.997        C 2448 0.968
  2450  C   3.987        C 2448 1.526    C 2441 1.345    H 2451 0.965    C 2444 0.101
  2451  H   0.997        C 2450 0.965
  2452  C   3.948        O 2453 1.624    N 2454 1.274    C 2436 0.951
  2453  O   1.987        C 2452 1.624    N 2454 0.191
  2454  N   3.455        C 2452 1.274    C 2456 0.986    H 2455 0.899    O 2453 0.191
  2455  H   0.951        N 2454 0.899
  2456  C   3.964        N 2454 0.986    C 2458 0.981    H 2457 0.944    C 2476 0.926
  2457  H   0.990        C 2456 0.944
  2458  C   3.984        C 2461 1.006    C 2456 0.981    H 2459 0.971    H 2460 0.958
  2459  H   0.997        C 2458 0.971
  2460  H   0.993        C 2458 0.958
  2461  C   3.987        C 2458 1.006    C 2464 0.995    H 2463 0.972    H 2462 0.968
  2462  H   0.992        C 2461 0.968
  2463  H   0.996        C 2461 0.972
  2464  C   3.949        C 2461 0.995    N 2467 0.992    H 2466 0.962    H 2465 0.961
  2465  H   0.994        C 2464 0.961
  2466  H   0.991        C 2464 0.962
  2467  N   3.456        C 2469 1.299    C 2464 0.992    H 2468 0.911    N 2473 0.103    N 2470 0.102
  2468  H   0.946        N 2467 0.911
  2469  C   3.975        N 2470 1.325    N 2473 1.314    N 2467 1.299
  2470  N   3.407        C 2469 1.325    H 2472 0.921    H 2471 0.897    N 2473 0.103    N 2467 0.102
  2471  H   0.946        N 2470 0.897
  2472  H   0.942        N 2470 0.921
  2473  N   3.369        C 2469 1.314    H 2475 0.919    H 2474 0.856    N 2470 0.103    N 2467 0.103
  2474  H   0.930        N 2473 0.856
  2475  H   0.943        N 2473 0.919
  2476  C   3.945        O 2477 1.630    N 2478 1.313    C 2456 0.926
  2477  O   1.943        C 2476 1.630    N 2478 0.197
  2478  N   3.466        C 2476 1.313    C 2480 0.967    H 2479 0.898    O 2477 0.197
  2479  H   0.948        N 2478 0.898
  2480  C   3.968        C 2482 0.969    N 2478 0.967    H 2481 0.953    C 2490 0.931
  2481  H   0.992        C 2480 0.953
  2482  C   3.953        O 2488 0.990    C 2484 0.987    C 2480 0.969    H 2483 0.956
  2483  H   0.997        C 2482 0.956
  2484  C   3.987        C 2482 0.987    H 2486 0.985    H 2485 0.983    H 2487 0.982
  2485  H   0.996        C 2484 0.983
  2486  H   0.996        C 2484 0.985
  2487  H   0.997        C 2484 0.982
  2488  O   1.961        C 2482 0.990    H 2489 0.878
  2489  H   0.899        O 2488 0.878
  2490  C   3.955        O 2491 1.627    N 2492 1.323    C 2480 0.931
  2491  O   1.941        C 2490 1.627    N 2492 0.193
  2492  N   3.466        C 2490 1.323    C 2494 0.968    H 2493 0.914    O 2491 0.193
  2493  H   0.954        N 2492 0.914
  2494  C   3.949        N 2492 0.968    H 2495 0.954    H 2496 0.947    C 2497 0.946
  2495  H   0.989        C 2494 0.954
  2496  H   0.987        C 2494 0.947
  2497  C   3.952        O 2498 1.598    N 2499 1.352    C 2494 0.946
  2498  O   1.920        C 2497 1.598    N 2499 0.196
  2499  N   3.497        C 2497 1.352    C 2501 0.957    H 2500 0.911    O 2498 0.196
  2500  H   0.953        N 2499 0.911
  2501  C   3.966        C 2503 0.959    N 2499 0.957    H 2502 0.953    C 2511 0.944
  2502  H   0.992        C 2501 0.953
  2503  C   3.962        C 2505 0.999    O 2509 0.998    C 2501 0.959    H 2504 0.955
  2504  H   0.999        C 2503 0.955
  2505  C   3.986        C 2503 0.999    H 2508 0.982    H 2506 0.980    H 2507 0.977
  2506  H   0.996        C 2505 0.980
  2507  H   0.996        C 2505 0.977
  2508  H   0.997        C 2505 0.982
  2509  O   1.933        C 2503 0.998    H 2510 0.863
  2510  H   0.883        O 2509 0.863
  2511  C   3.954        O 2512 1.660    N 2513 1.281    C 2501 0.944
  2512  O   1.974        C 2511 1.660    N 2513 0.196
  2513  N   3.453        C 2511 1.281    C 2515 0.983    H 2514 0.923    O 2512 0.196
  2514  H   0.956        N 2513 0.923
  2515  C   3.952        N 2513 0.983    C 2517 0.956    H 2516 0.938    C 2535 0.928
  2516  H   0.990        C 2515 0.938
  2517  C   3.982        C 2520 1.033    H 2519 0.965    H 2518 0.959    C 2515 0.956
  2518  H   0.996        C 2517 0.959
  2519  H   0.997        C 2517 0.965
  2520  C   3.966        C 2521 1.564    C 2534 1.189    C 2517 1.033
  2521  C   3.959        C 2520 1.564    N 2523 1.227    H 2522 0.966
  2522  H   0.995        C 2521 0.966
  2523  N   3.554        C 2521 1.227    C 2525 1.173    H 2524 0.931
  2524  H   0.960        N 2523 0.931
  2525  C   3.957        C 2526 1.342    C 2534 1.247    N 2523 1.173
  2526  C   3.982        C 2528 1.468    C 2525 1.342    H 2527 0.967    C 2532 0.122
  2527  H   0.996        C 2526 0.967
  2528  C   3.987        C 2526 1.468    C 2530 1.388    H 2529 0.965
  2529  H   0.996        C 2528 0.965
  2530  C   3.989        C 2532 1.493    C 2528 1.388    H 2531 0.963
  2531  H   0.999        C 2530 0.963
  2532  C   3.990        C 2530 1.493    C 2534 1.321    H 2533 0.971    C 2526 0.122
  2533  H   0.999        C 2532 0.971
  2534  C   3.979        C 2532 1.321    C 2525 1.247    C 2520 1.189
  2535  C   3.930        O 2536 1.637    N 2537 1.270    C 2515 0.928
  2536  O   1.971        C 2535 1.637    N 2537 0.181
  2537  N   3.442        C 2535 1.270    C 2539 0.982    H 2538 0.923    O 2536 0.181
  2538  H   0.962        N 2537 0.923
  2539  C   3.966        N 2537 0.982    C 2541 0.970    H 2540 0.947    C 2547 0.940
  2540  H   0.996        C 2539 0.947
  2541  C   3.983        H 2542 0.980    C 2539 0.970    H 2543 0.969    C 2544 0.923
  2542  H   0.998        C 2541 0.980
  2543  H   0.997        C 2541 0.969
  2544  C   3.938        O 2546 1.506    O 2545 1.483    C 2541 0.923
  2545  O   1.848        C 2544 1.483    O 2546 0.223
  2546  O   1.808        C 2544 1.506    O 2545 0.223
  2547  C   3.950        O 2548 1.651    N 2549 1.288    C 2539 0.940
  2548  O   1.961        C 2547 1.651    N 2549 0.196
  2549  N   3.438        C 2547 1.288    C 2551 0.950    H 2550 0.925    O 2548 0.196
  2550  H   0.960        N 2549 0.925
  2551  C   3.952        C 2553 0.995    H 2552 0.954    N 2549 0.950    C 2557 0.935
  2552  H   0.992        C 2551 0.954
  2553  C   3.978        C 2551 0.995    H 2554 0.983    H 2556 0.976    H 2555 0.969
  2554  H   0.996        C 2553 0.983
  2555  H   0.992        C 2553 0.969
  2556  H   0.993        C 2553 0.976
  2557  C   3.948        O 2558 1.628    N 2559 1.315    C 2551 0.935
  2558  O   1.948        C 2557 1.628    N 2559 0.200
  2559  N   3.474        C 2557 1.315    C 2561 0.969    H 2560 0.900    O 2558 0.200
  2560  H   0.955        N 2559 0.900
  2561  C   3.957        N 2559 0.969    C 2563 0.969    H 2562 0.952    C 2578 0.928
  2562  H   0.996        C 2561 0.952
  2563  C   3.982        C 2566 0.998    H 2565 0.973    H 2564 0.969    C 2561 0.969
  2564  H   0.997        C 2563 0.969
  2565  H   0.997        C 2563 0.973
  2566  C   3.976        C 2576 1.431    C 2567 1.359    C 2563 0.998
  2567  C   3.989        C 2569 1.519    C 2566 1.359    H 2568 0.967
  2568  H   0.998        C 2567 0.967
  2569  C   3.983        C 2567 1.519    C 2571 1.290    H 2570 0.955
  2570  H   0.995        C 2569 0.955
  2571  C   3.952        C 2574 1.370    C 2569 1.290    O 2572 1.153
  2572  O   2.161        C 2571 1.153    H 2573 0.780
  2573  H   0.874        O 2572 0.780
  2574  C   3.983        C 2576 1.431    C 2571 1.370    H 2575 0.964
  2575  H   0.998        C 2574 0.964
  2576  C   3.988        C 2566 1.431    C 2574 1.431    H 2577 0.970
  2577  H   1.000        C 2576 0.970
  2578  C   3.941        O 2579 1.665    N 2580 1.267    C 2561 0.928
  2579  O   1.984        C 2578 1.665    N 2580 0.201
  2580  N   3.450        C 2578 1.267    C 2582 0.974    H 2581 0.932    O 2579 0.201
  2581  H   0.965        N 2580 0.932
  2582  C   3.953        C 2584 0.984    N 2580 0.974    H 2583 0.959    C 2600 0.903
  2583  H   0.998        C 2582 0.959
  2584  C   3.995        C 2587 1.001    C 2582 0.984    H 2586 0.977    H 2585 0.973
  2585  H   0.999        C 2584 0.973
  2586  H   0.998        C 2584 0.977
  2587  C   3.993        C 2590 1.005    C 2584 1.001    H 2588 0.980    H 2589 0.973
  2588  H   0.999        C 2587 0.980
  2589  H   0.998        C 2587 0.973
  2590  C   3.987        C 2587 1.005    C 2593 0.997    H 2592 0.977    H 2591 0.973
  2591  H   0.996        C 2590 0.973
  2592  H   0.995        C 2590 0.977
  2593  C   3.921        C 2590 0.997    N 2596 0.969    H 2594 0.969    H 2595 0.965
  2594  H   0.987        C 2593 0.969
  2595  H   0.988        C 2593 0.965
  2596  N   3.653        C 2593 0.969    H 2598 0.900    H 2599 0.897    H 2597 0.837
  2597  H   0.911        N 2596 0.837
  2598  H   0.920        N 2596 0.900
  2599  H   0.916        N 2596 0.897
  2600  C   3.938        O 2601 1.505    O 2602 1.488    C 2582 0.903
  2601  O   1.802        C 2600 1.505    O 2602 0.222
  2602  O   1.784        C 2600 1.488    O 2601 0.222
  2603  F   1.068        C 2604 0.939
  2604  C   3.863        C 2605 1.429    C 2613 1.279    F 2603 0.939
  2605  C   3.986        C 2604 1.429    C 2607 1.413    H 2606 0.967
  2606  H   0.998        C 2605 0.967
  2607  C   3.987        C 2609 1.421    C 2605 1.413    H 2608 0.966
  2608  H   0.999        C 2607 0.966
  2609  C   3.991        C 2611 1.462    C 2607 1.421    H 2610 0.959
  2610  H   0.998        C 2609 0.959
  2611  C   3.984        C 2609 1.462    C 2613 1.353    H 2612 0.954
  2612  H   0.995        C 2611 0.954
  2613  C   3.977        C 2611 1.353    C 2604 1.279    N 2614 1.189
  2614  N   3.300        C 2613 1.189    H 2616 0.951    H 2615 0.921
  2615  H   0.953        N 2614 0.921
  2616  H   0.967        N 2614 0.951

molecular dipole:
                 x           y           z       tot (Debye)
 q only:      593.192     656.665     660.481
   full:      594.918     656.263     668.529    2820.697
molecular quadrupole (traceless):
                xx          xy          yy          xz          yz          zz
 q only:   -10657.783   68950.493    5817.730   69637.346   77820.893    4840.053
  q+dip:   -11115.726   68726.805    4995.888   70554.042   78557.966    6119.838
   full:   -11097.942   68725.138    4973.455   70557.627   78553.975    6124.488


           -------------------------------------------------
          | TOTAL ENERGY            -4108.887867636859 Eh   |
          | GRADIENT NORM               1.345015721634 Eh/α |
          | HOMO-LUMO GAP               1.565949207155 eV   |
           -------------------------------------------------

------------------------------------------------------------------------
 * finished run on 2020/06/09 at 14:23:38.271     
------------------------------------------------------------------------
 total:
 * wall-time:     0 d,  0 h,  7 min, 27.915 sec
 *  cpu-time:     0 d,  5 h, 39 min, 28.057 sec
 * ratio c/w:    45.473 speedup
 SCF:
 * wall-time:     0 d,  0 h,  6 min, 56.663 sec
 *  cpu-time:     0 d,  5 h, 27 min, 49.267 sec
 * ratio c/w:    47.207 speedup

