      -----------------------------------------------------------      
     |                   =====================                   |     
     |                           x T B                           |     
     |                   =====================                   |     
     |                         S. Grimme                         |     
     |          Mulliken Center for Theoretical Chemistry        |     
     |                    University of Bonn                     |     
      -----------------------------------------------------------      

   * xtb version 6.2.3 (d7bf61a) compiled by 'conda@06d140edd85e' on 2020-05-12

   xtb is free software: you can redistribute it and/or modify it under
   the terms of the GNU Lesser General Public License as published by
   the Free Software Foundation, either version 3 of the License, or
   (at your option) any later version.
   
   xtb is distributed in the hope that it will be useful,
   but WITHOUT ANY WARRANTY; without even the implied warranty of
   MERCHANTABILITY or FITNESS FOR A PARTICULAR PURPOSE.  See the
   GNU Lesser General Public License for more details.
   
   Cite this work as:
   * S. Grimme, C. Bannwarth, P. Shushkov, J. Chem. Theory Comput., 2017,
     13, 1989-2009. DOI: 10.1021/acs.jctc.7b00118
   * C. Bannwarth, S. Ehlert and S. Grimme., J. Chem. Theory Comput., 2019,
     15, 1652-1671. DOI: 10.1021/acs.jctc.8b01176
   * P. Pracht, E. Caldeweyher, S. Ehlert, S. Grimme, ChemRxiv, 2019, preprint.
     DOI: 10.26434/chemrxiv.8326202.v1
   
   for DFT-D4:
   * E. Caldeweyher, C. Bannwarth and S. Grimme, J. Chem. Phys., 2017,
     147, 034112. DOI: 10.1063/1.4993215
   * E. Caldeweyher, S. Ehlert, A. Hansen, H. Neugebauer, S. Spicher,
     C. Bannwarth and S. Grimme, J. Chem. Phys., 2019, 150, 154122.
     DOI: 10.1063/1.5090222
   
   for sTDA-xTB:
   * S. Grimme and C. Bannwarth, J. Chem. Phys., 2016, 145, 054103.
     DOI: 10.1063/1.4959605
   
   in the mass-spec context:
   * V. Asgeirsson, C. Bauer and S. Grimme, Chem. Sci., 2017, 8, 4879.
     DOI: 10.1039/c7sc00601b
   
   for metadynamics refer to:
   * S. Grimme, J. Chem. Theory Comput., 2019, 155, 2847-2862
     DOI: 10.1021/acs.jctc.9b00143
   
   with help from (in alphabetical order)
   C. Bannwarth, F. Bohle, G. Brandenburg, E. Caldeweyher, M. Checinski,
   S. Dohm, S. Ehlert, S. Ehrlich, F. März, H. Neugebauer, J. Pisarek,
   P. Pracht, P. Shushkov, and S. Spicher.
   
 * started run on 2020/06/09 at 10:21:29.804     

           -------------------------------------------------
          |                Calculation Setup                |
           -------------------------------------------------

          program call               : xtb host_21381.xyz --chrg +9 --uhf 0 --gbsa water
          hostname                   : gold58.cluster.local
          coordinate file            : host_21381.xyz
          omp threads                :                    64
          number of atoms            :                  2602
          number of electrons        :                  7192
          charge                     :                     9
          spin                       :                   0.0
          first test random number   :      0.66339298850826

########################################################################
[WARNING] Please study the warnings concerning your input carefully
-2- prog_main: XTBPATH is not set, using XTBHOME instead
-1- prog_main: XTBHOME is not set, using HOME instead
########################################################################
           ------------------------------------------------- 
          |                 G F N 2 - x T B                 |
          | Geometry, Frequencies, Noncovalent interactions |
          |            JCTC 2019 parametrisation            |
           ------------------------------------------------- 
             k(s)              :                1.8500
             k(p)              :                2.2300
             k(d)              :                2.2300
             k(f)              :                2.0000
             kEN (H0ij)        :               -2.0000
             D4 a1             :                0.5200
             D4 a2             :                5.0000
             D4 s6             :                1.0000
             D4 s8             :                2.7000
             D4 s9             :                5.0000
             alphaj            :                2.0000

  Z AO/shell   Hii/eV     exponent
  1     Wed Apr 25 08:07:45 CEST 2018   EN: 2.200 GM2: 0.406  GM3: 0.0800  RAES: 1.40
     1s    -10.707211    1.230000
  6     Wed Apr 25 08:07:45 CEST 2018   EN: 2.550 GM2: 0.538  GM3: 0.1500  RAES: 3.00
     2s    -13.970922    2.096432
     2p    -10.063292    1.800000
  7     Wed Apr 25 08:07:45 CEST 2018   EN: 3.040 GM2: 0.461  GM3:-0.0640  RAES: 1.90
     2s    -16.686243    2.339881
     2p    -12.523956    2.014332
  8     Wed Apr 25 08:07:45 CEST 2018   EN: 3.440 GM2: 0.452  GM3:-0.0517  RAES: 1.80
     2s    -20.229985    2.439742
     2p    -15.503117    2.137023
 16     Tue Apr 24 11:44:34 CEST 2018   EN: 2.580 GM2: 0.340  GM3:-0.0502  RAES: 3.10
     3s    -20.029654    1.981333
     3p    -11.377694    2.025643
     3d     -0.420282    1.702555

 Solvent             : water
 Using internal parameter file: .param_gbsa2_water
 Gsolv ref. state (COSMO-RS): gsolv [1 M gas/solution]
 temperature (mdtemp)       :    298.14999999999998     
 dielectric constant        :    80.200000000000003     
 rho                        :    1.0000000000000000     
 mass                       :    18.000000000000000     
 surface tension            :    15.568945408385856     
 probe radius               :   0.97531378999999996     
 Gshift (Eh)                :    1.8574431267947933E-003
 c1                         :    1.5524381700000001     
 soset                      :   0.13032636000000000     
 HB correction              :  T
           ------------------------------------------------- 
          |        Self-Consistent Charge Iterations        |
           ------------------------------------------------- 

          ...................................................
          :                      SETUP                      :
          :.................................................:
          :  # basis functions                6511          :
          :  # atomic orbitals                6505          :
          :  # shells                         3899          :
          :  # electrons                      7192          :
          :  max. iterations                   250          :
          :  Hamiltonian                  GFN2-xTB          :
          :  restarted?                      false          :
          :  GBSA solvation                   true          :
          :  PC potential                    false          :
          :  electronic temp.          300.0000000     K    :
          :  accuracy                    1.0000000          :
          :  -> integral cutoff          0.2500000E+02      :
          :  -> integral neglect         0.1000000E-07      :
          :  -> SCF convergence          0.1000000E-05 Eh   :
          :  -> wf. convergence          0.1000000E-03 e    :
          :  Broyden damping             0.4000000          :
          ...................................................

 iter      E             dE          RMSdq      gap      omega  full diag
   1  -4120.2901882 -0.412029E+04  0.427E+00    2.07       0.0  T
   2  -4132.5112541 -0.122211E+02  0.225E+00    2.30       1.0  T
   3  -4132.9815150 -0.470261E+00  0.119E+00    1.90       1.0  T
   4  -4133.0423375 -0.608225E-01  0.289E-01    1.70       1.0  T
   5  -4133.1509804 -0.108643E+00  0.142E-01    1.54       1.0  T
   6  -4133.1662568 -0.152764E-01  0.736E-02    1.65       1.0  T
   7  -4133.1688602 -0.260342E-02  0.390E-02    1.64       1.0  T
   8  -4133.1701018 -0.124150E-02  0.170E-02    1.62       1.0  T
   9  -4133.1703069 -0.205181E-03  0.102E-02    1.62       1.0  T
  10  -4133.1703912 -0.842674E-04  0.506E-03    1.61       1.0  T
  11  -4133.1704077 -0.164518E-04  0.249E-03    1.60       1.0  T
  12  -4133.1704131 -0.539723E-05  0.126E-03    1.60       1.6  T
  13  -4133.1704144 -0.130260E-05  0.670E-04    1.60       2.9  T
  14  -4133.1704147 -0.367620E-06  0.342E-04    1.60       5.7  T
  15  -4133.1704148 -0.102769E-06  0.179E-04    1.60      10.9  T

   *** convergence criteria satisfied after 15 iterations ***

         #    Occupation            Energy/Eh            Energy/eV
      -------------------------------------------------------------
         1        2.0000           -0.7580505             -20.6276
       ...           ...                  ...                  ...
      3590        2.0000           -0.3631990              -9.8831
      3591        2.0000           -0.3631768              -9.8825
      3592        2.0000           -0.3611089              -9.8263
      3593        2.0000           -0.3582236              -9.7478
      3594        2.0000           -0.3557960              -9.6817
      3595        2.0000           -0.3528434              -9.6014
      3596        2.0000           -0.3509762              -9.5505 (HOMO)
      3597                         -0.2921119              -7.9488 (LUMO)
      3598                         -0.2727159              -7.4210
      3599                         -0.2723854              -7.4120
      3600                         -0.2690889              -7.3223
      3601                         -0.2637983              -7.1783
       ...                                ...                  ...
      6505                          0.7753059              21.0971
      -------------------------------------------------------------
                  HL-Gap            0.0588643 Eh            1.6018 eV
             Fermi-level           -0.3215441 Eh           -8.7497 eV

 SCC (total)                   0 d,  0 h,  6 min, 29.628 sec
 SCC setup                      ...        0 min,  3.021 sec (  0.775%)
 Dispersion                     ...        0 min,  1.943 sec (  0.499%)
 integral evaluation            ...        0 min, 10.968 sec (  2.815%)
 zeroth order Hamiltonian       ...        0 min,  0.337 sec (  0.086%)
 iterations                     ...        5 min, 56.686 sec ( 91.545%)
 molecular gradient             ...        0 min, 16.171 sec (  4.150%)
 printout                       ...        0 min,  0.501 sec (  0.129%)

         :::::::::::::::::::::::::::::::::::::::::::::::::::::
         ::                     SUMMARY                     ::
         :::::::::::::::::::::::::::::::::::::::::::::::::::::
         :: total energy           -4085.175858096789 Eh    ::
         :: total w/o Gsasa/hb     -4084.770483073241 Eh    ::
         :: gradient norm              1.326638618302 Eh/a0 ::
         :: HOMO-LUMO gap              1.601779074874 eV    ::
         ::.................................................::
         :: SCC energy             -4133.235185854724 Eh    ::
         :: -> isotropic ES           14.209789374719 Eh    ::
         :: -> anisotropic ES         -0.721858058460 Eh    ::
         :: -> anisotropic XC          1.168638668175 Eh    ::
         :: -> dispersion             -3.884878832660 Eh    ::
         :: -> Gsolv                  -4.116641183762 Eh    ::
         ::    -> Gborn               -3.711266160214 Eh    ::
         ::    -> Gsasa               -0.066628473609 Eh    ::
         ::    -> Ghb                 -0.340603993066 Eh    ::
         ::    -> Gshift               0.001857443127 Eh    ::
         :: repulsion energy          47.531022303613 Eh    ::
         :: add. restraining           0.000000000000 Eh    ::
         :::::::::::::::::::::::::::::::::::::::::::::::::::::

           -------------------------------------------------
          |                Property Printout                |
           -------------------------------------------------

    * Orbital Energies and Occupations

         #    Occupation            Energy/Eh            Energy/eV
      -------------------------------------------------------------
         1        2.0000           -0.7580505             -20.6276
       ...           ...                  ...                  ...
      3584        2.0000           -0.3675638             -10.0019
      3585        2.0000           -0.3674100              -9.9977
      3586        2.0000           -0.3653268              -9.9410
      3587        2.0000           -0.3646382              -9.9223
      3588        2.0000           -0.3641594              -9.9093
      3589        2.0000           -0.3640355              -9.9059
      3590        2.0000           -0.3631990              -9.8831
      3591        2.0000           -0.3631768              -9.8825
      3592        2.0000           -0.3611089              -9.8263
      3593        2.0000           -0.3582236              -9.7478
      3594        2.0000           -0.3557960              -9.6817
      3595        2.0000           -0.3528434              -9.6014
      3596        2.0000           -0.3509762              -9.5505 (HOMO)
      3597                         -0.2921119              -7.9488 (LUMO)
      3598                         -0.2727159              -7.4210
      3599                         -0.2723854              -7.4120
      3600                         -0.2690889              -7.3223
      3601                         -0.2637983              -7.1783
      3602                         -0.2634855              -7.1698
      3603                         -0.2617309              -7.1221
      3604                         -0.2615206              -7.1163
      3605                         -0.2608414              -7.0979
      3606                         -0.2602964              -7.0830
      3607                         -0.2598740              -7.0715
       ...                                ...                  ...
      6505                          0.7753059              21.0971
      -------------------------------------------------------------
                  HL-Gap            0.0588643 Eh            1.6018 eV
             Fermi-level           -0.3215441 Eh           -8.7497 eV

     #   Z        covCN         q      C6AA      α(0)
     1   7 N      3.488    -0.148    24.187     7.304
     2   1 H      0.860     0.311     0.682     1.294
     3   1 H      0.860     0.324     0.646     1.259
     4   1 H      0.860     0.305     0.698     1.308
     5   6 C      3.785    -0.018    20.909     6.513
     6   1 H      0.925     0.115     1.653     2.011
     7   6 C      3.820    -0.102    22.433     6.740
     8   1 H      0.925     0.109     1.708     2.044
     9   1 H      0.924     0.097     1.815     2.107
    10   6 C      3.793    -0.038    21.257     6.566
    11   1 H      0.924     0.086     1.917     2.165
    12   1 H      0.925     0.070     2.080     2.256
    13  16 S      1.952    -0.185   148.888    20.537
    14   6 C      3.741    -0.053    21.607     6.632
    15   1 H      0.924     0.030     2.583     2.513
    16   1 H      0.925     0.034     2.532     2.488
    17   1 H      0.924     0.058     2.227     2.334
    18   6 C      2.749     0.257    22.670     7.796
    19   8 O      0.862    -0.461    22.940     6.422
    20   7 N      2.693    -0.150    24.245     7.313
    21   1 H      0.860     0.206     1.076     1.625
    22   6 C      3.791     0.029    20.099     6.385
    23   1 H      0.924     0.104     1.752     2.070
    24   6 C      3.812    -0.113    22.655     6.775
    25   1 H      0.925     0.110     1.696     2.036
    26   1 H      0.925     0.084     1.937     2.177
    27   6 C      2.742     0.283    22.198     7.714
    28   8 O      0.869    -0.500    23.786     6.539
    29   7 N      2.645    -0.259    26.725     7.678
    30   1 H      0.860     0.228     0.973     1.545
    31   1 H      0.860     0.229     0.968     1.541
    32   6 C      2.750     0.255    22.706     7.803
    33   8 O      0.859    -0.485    23.461     6.494
    34   7 N      2.682    -0.176    24.811     7.398
    35   1 H      0.860     0.207     1.073     1.623
    36   6 C      3.778     0.010    20.432     6.440
    37   1 H      0.925     0.095     1.832     2.117
    38   6 C      3.830    -0.047    21.397     6.582
    39   1 H      0.925     0.080     1.978     2.199
    40   6 C      3.748    -0.132    23.100     6.855
    41   1 H      0.925     0.051     2.307     2.375
    42   1 H      0.924     0.041     2.436     2.441
    43   1 H      0.925     0.070     2.081     2.256
    44   6 C      3.797    -0.071    21.858     6.657
    45   1 H      0.924     0.038     2.475     2.460
    46   1 H      0.925     0.057     2.232     2.336
    47   6 C      3.746    -0.122    22.905     6.827
    48   1 H      0.925     0.048     2.343     2.394
    49   1 H      0.925     0.054     2.274     2.358
    50   1 H      0.925     0.045     2.381     2.413
    51   6 C      2.749     0.278    22.296     7.732
    52   8 O      0.864    -0.494    23.652     6.521
    53   7 N      2.683    -0.177    24.835     7.401
    54   1 H      0.860     0.196     1.126     1.662
    55   6 C      3.761     0.011    20.438     6.445
    56   1 H      0.925     0.084     1.935     2.176
    57   6 C      3.794    -0.085    22.128     6.699
    58   1 H      0.925     0.064     2.158     2.297
    59   1 H      0.924     0.064     2.150     2.293
    60   6 C      2.959     0.003    27.953     8.672
    61   6 C      2.915    -0.048    29.181     8.858
    62   1 H      0.926     0.048     2.344     2.394
    63   6 C      2.901    -0.031    28.769     8.795
    64   1 H      0.926     0.035     2.512     2.479
    65   6 C      2.918    -0.037    28.913     8.818
    66   1 H      0.926     0.034     2.535     2.490
    67   6 C      2.913    -0.038    28.948     8.823
    68   1 H      0.926     0.038     2.469     2.457
    69   6 C      2.919    -0.038    28.946     8.823
    70   1 H      0.926     0.042     2.424     2.435
    71   6 C      2.733     0.272    22.401     7.749
    72   8 O      0.863    -0.473    23.183     6.456
    73   7 N      2.704    -0.183    24.964     7.421
    74   1 H      0.860     0.237     0.937     1.517
    75   6 C      3.796     0.013    20.360     6.425
    76   1 H      0.924     0.087     1.910     2.162
    77   6 C      3.824    -0.077    21.945     6.666
    78   1 H      0.925     0.056     2.251     2.346
    79   1 H      0.924     0.065     2.144     2.290
    80   6 C      3.807    -0.086    22.133     6.697
    81   1 H      0.924     0.036     2.499     2.472
    82   1 H      0.925     0.050     2.323     2.383
    83   6 C      2.690     0.358    20.925     7.486
    84   8 O      0.856    -0.630    26.876     6.951
    85   8 O      0.858    -0.625    26.749     6.934
    86   6 C      2.751     0.283    22.207     7.716
    87   8 O      0.859    -0.513    24.071     6.578
    88   7 N      2.687    -0.178    24.857     7.405
    89   1 H      0.860     0.238     0.931     1.511
    90   6 C      3.784     0.023    20.200     6.402
    91   1 H      0.925     0.083     1.946     2.181
    92   6 C      3.813    -0.085    22.108     6.692
    93   1 H      0.925     0.072     2.060     2.244
    94   1 H      0.925     0.078     1.998     2.210
    95   6 C      3.794    -0.015    20.847     6.502
    96   1 H      0.925     0.051     2.313     2.378
    97   1 H      0.927     0.030     2.584     2.514
    98  16 S      1.965    -0.200   149.563    20.583
    99   6 C      3.747    -0.069    21.884     6.673
   100   1 H      0.925     0.061     2.183     2.311
   101   1 H      0.926     0.069     2.094     2.263
   102   1 H      0.925     0.064     2.158     2.297
   103   6 C      2.749     0.270    22.435     7.756
   104   8 O      0.858    -0.519    24.220     6.598
   105   7 N      2.685    -0.169    24.662     7.376
   106   1 H      0.860     0.230     0.967     1.540
   107   6 C      3.789     0.032    20.049     6.377
   108   1 H      0.924     0.078     1.996     2.210
   109   6 C      3.795    -0.079    22.023     6.683
   110   1 H      0.925     0.052     2.292     2.368
   111   1 H      0.924     0.086     1.920     2.167
   112   6 C      3.837    -0.026    21.004     6.520
   113   1 H      0.924     0.049     2.329     2.387
   114   6 C      3.749    -0.111    22.693     6.794
   115   1 H      0.924     0.034     2.537     2.491
   116   1 H      0.925     0.032     2.564     2.504
   117   1 H      0.925     0.041     2.439     2.442
   118   6 C      3.753    -0.124    22.942     6.830
   119   1 H      0.925     0.045     2.388     2.416
   120   1 H      0.925     0.066     2.128     2.281
   121   1 H      0.925     0.033     2.539     2.492
   122   6 C      2.751     0.275    22.356     7.742
   123   8 O      0.866    -0.523    24.294     6.609
   124   7 N      2.684    -0.207    25.499     7.500
   125   1 H      0.860     0.231     0.962     1.536
   126   6 C      3.774     0.019    20.282     6.417
   127   1 H      0.925     0.080     1.980     2.201
   128   6 C      3.784    -0.080    22.054     6.689
   129   1 H      0.924     0.089     1.890     2.150
   130   1 H      0.925     0.065     2.144     2.290
   131   6 C      3.786    -0.093    22.293     6.725
   132   1 H      0.925     0.061     2.185     2.312
   133   1 H      0.924     0.075     2.031     2.229
   134   6 C      3.741    -0.033    21.244     6.576
   135   1 H      0.924     0.083     1.947     2.182
   136   1 H      0.924     0.094     1.844     2.124
   137   7 N      2.703    -0.159    24.445     7.343
   138   1 H      0.860     0.236     0.941     1.519
   139   6 C      2.742     0.231    23.143     7.877
   140   7 N      2.681    -0.279    27.207     7.747
   141   1 H      0.861     0.259     0.850     1.444
   142   1 H      0.860     0.219     1.015     1.578
   143   7 N      2.691    -0.282    27.286     7.758
   144   1 H      0.860     0.228     0.976     1.548
   145   1 H      0.861     0.265     0.828     1.426
   146   6 C      2.742     0.277    22.314     7.734
   147   8 O      0.860    -0.482    23.398     6.485
   148   7 N      2.682    -0.196    25.247     7.463
   149   1 H      0.860     0.187     1.175     1.698
   150   6 C      3.793     0.020    20.242     6.407
   151   1 H      0.925     0.086     1.913     2.163
   152   6 C      3.851    -0.013    20.778     6.483
   153   1 H      0.925     0.049     2.336     2.390
   154   6 C      3.751    -0.120    22.859     6.818
   155   1 H      0.925     0.044     2.393     2.419
   156   1 H      0.924     0.044     2.402     2.424
   157   1 H      0.925     0.053     2.280     2.361
   158   6 C      3.796    -0.063    21.721     6.636
   159   1 H      0.925     0.046     2.369     2.407
   160   1 H      0.924     0.040     2.454     2.450
   161   6 C      3.743    -0.095    22.388     6.750
   162   1 H      0.925     0.040     2.452     2.449
   163   1 H      0.924     0.023     2.682     2.561
   164   1 H      0.925     0.037     2.492     2.469
   165   6 C      2.768     0.283    22.209     7.718
   166   8 O      0.863    -0.510    24.000     6.568
   167   7 N      2.689    -0.173    24.754     7.389
   168   1 H      0.860     0.222     0.999     1.566
   169   6 C      3.796     0.027    20.126     6.388
   170   1 H      0.925     0.084     1.934     2.175
   171   6 C      3.794    -0.101    22.434     6.745
   172   1 H      0.925     0.048     2.340     2.392
   173   1 H      0.924     0.044     2.395     2.420
   174   6 C      2.682     0.363    20.847     7.472
   175   8 O      0.856    -0.550    24.932     6.694
   176   8 O      0.856    -0.590    25.870     6.819
   177   6 C      2.752     0.273    22.392     7.749
   178   8 O      0.857    -0.497    23.709     6.528
   179   7 N      2.683    -0.193    25.199     7.456
   180   1 H      0.860     0.212     1.049     1.604
   181   6 C      3.785     0.021    20.245     6.409
   182   1 H      0.924     0.086     1.917     2.165
   183   6 C      3.801    -0.044    21.366     6.581
   184   1 H      0.924     0.032     2.555     2.500
   185   1 H      0.925     0.031     2.579     2.511
   186   6 C      3.796    -0.092    22.269     6.720
   187   1 H      0.925     0.038     2.471     2.458
   188   1 H      0.924     0.031     2.568     2.506
   189   6 C      2.683     0.361    20.867     7.476
   190   8 O      0.856    -0.662    27.694     7.056
   191   8 O      0.857    -0.628    26.824     6.944
   192   6 C      2.747     0.267    22.487     7.765
   193   8 O      0.858    -0.488    23.511     6.501
   194   7 N      2.683    -0.156    24.370     7.332
   195   1 H      0.860     0.205     1.079     1.627
   196   6 C      3.751    -0.034    21.236     6.572
   197   1 H      0.925     0.101     1.779     2.086
   198   1 H      0.925     0.109     1.705     2.042
   199   6 C      2.746     0.270    22.440     7.756
   200   8 O      0.858    -0.491    23.583     6.511
   201   7 N      2.696    -0.184    24.995     7.425
   202   1 H      0.860     0.207     1.071     1.621
   203   6 C      3.785     0.014    20.348     6.425
   204   1 H      0.925     0.064     2.152     2.294
   205   6 C      3.806    -0.088    22.174     6.703
   206   1 H      0.925     0.069     2.099     2.266
   207   1 H      0.925     0.052     2.292     2.367
   208   6 C      3.847    -0.017    20.843     6.494
   209   1 H      0.925     0.055     2.263     2.353
   210   6 C      3.772    -0.130    23.031     6.839
   211   1 H      0.924     0.022     2.704     2.572
   212   1 H      0.924     0.053     2.287     2.365
   213   1 H      0.924     0.045     2.384     2.414
   214   6 C      3.770    -0.135    23.126     6.853
   215   1 H      0.925     0.055     2.254     2.348
   216   1 H      0.924     0.054     2.270     2.356
   217   1 H      0.925     0.053     2.288     2.365
   218   6 C      2.748     0.278    22.304     7.733
   219   8 O      0.859    -0.441    22.515     6.362
   220   7 N      2.691    -0.172    24.717     7.384
   221   1 H      0.860     0.199     1.111     1.651
   222   6 C      3.788     0.016    20.326     6.421
   223   1 H      0.924     0.084     1.939     2.177
   224   6 C      3.814    -0.088    22.174     6.702
   225   1 H      0.925     0.079     1.990     2.206
   226   1 H      0.925     0.063     2.164     2.301
   227   6 C      3.796    -0.089    22.199     6.709
   228   1 H      0.924     0.059     2.206     2.323
   229   1 H      0.925     0.096     1.824     2.112
   230   6 C      3.738    -0.033    21.242     6.577
   231   1 H      0.925     0.104     1.747     2.067
   232   1 H      0.925     0.077     2.015     2.220
   233   7 N      2.702    -0.138    23.990     7.274
   234   1 H      0.860     0.217     1.023     1.584
   235   6 C      2.734     0.229    23.190     7.884
   236   7 N      2.655    -0.255    26.621     7.663
   237   1 H      0.860     0.259     0.851     1.445
   238   1 H      0.860     0.265     0.829     1.426
   239   7 N      2.645    -0.267    26.919     7.706
   240   1 H      0.860     0.256     0.859     1.452
   241   1 H      0.860     0.227     0.978     1.549
   242   6 C      2.748     0.255    22.705     7.802
   243   8 O      0.858    -0.483    23.403     6.486
   244   7 N      2.680    -0.173    24.753     7.389
   245   1 H      0.860     0.224     0.989     1.558
   246   6 C      3.785     0.003    20.548     6.457
   247   1 H      0.925     0.097     1.813     2.106
   248   6 C      3.811    -0.077    21.958     6.670
   249   1 H      0.924     0.075     2.035     2.231
   250   1 H      0.925     0.069     2.101     2.267
   251   6 C      3.851    -0.022    20.934     6.508
   252   1 H      0.924     0.041     2.437     2.441
   253   6 C      3.757    -0.125    22.961     6.832
   254   1 H      0.925     0.032     2.561     2.503
   255   1 H      0.924     0.050     2.324     2.384
   256   1 H      0.925     0.051     2.305     2.374
   257   6 C      3.754    -0.131    23.067     6.849
   258   1 H      0.924     0.043     2.404     2.425
   259   1 H      0.925     0.032     2.564     2.504
   260   1 H      0.925     0.050     2.315     2.379
   261   6 C      2.739     0.258    22.657     7.793
   262   8 O      0.859    -0.484    23.432     6.490
   263   7 N      2.684    -0.155    24.348     7.329
   264   1 H      0.860     0.205     1.080     1.628
   265   6 C      3.781    -0.001    20.627     6.470
   266   1 H      0.925     0.081     1.973     2.197
   267   6 C      3.793    -0.087    22.162     6.704
   268   1 H      0.925     0.065     2.137     2.286
   269   1 H      0.925     0.072     2.067     2.248
   270   6 C      3.792    -0.090    22.234     6.715
   271   1 H      0.925     0.056     2.244     2.343
   272   1 H      0.925     0.058     2.227     2.334
   273   6 C      3.796    -0.097    22.359     6.733
   274   1 H      0.924     0.085     1.931     2.173
   275   1 H      0.925     0.092     1.860     2.133
   276   6 C      3.732    -0.057    21.685     6.647
   277   1 H      0.925     0.117     1.635     2.000
   278   1 H      0.925     0.123     1.588     1.971
   279   7 N      3.489    -0.138    23.988     7.274
   280   1 H      0.860     0.288     0.750     1.357
   281   1 H      0.860     0.297     0.723     1.332
   282   1 H      0.860     0.304     0.703     1.313
   283   6 C      2.746     0.273    22.392     7.748
   284   8 O      0.861    -0.469    23.102     6.444
   285   7 N      2.684    -0.171    24.697     7.381
   286   1 H      0.860     0.216     1.029     1.589
   287   6 C      3.794    -0.000    20.595     6.462
   288   1 H      0.925     0.078     1.999     2.211
   289   6 C      3.864    -0.022    20.929     6.506
   290   1 H      0.925     0.075     2.035     2.231
   291   6 C      3.756    -0.120    22.852     6.816
   292   1 H      0.925     0.048     2.340     2.392
   293   1 H      0.925     0.064     2.150     2.293
   294   1 H      0.924     0.030     2.591     2.517
   295   6 C      3.814    -0.075    21.929     6.665
   296   1 H      0.925     0.055     2.258     2.350
   297   1 H      0.924     0.037     2.486     2.465
   298   6 C      3.757    -0.131    23.072     6.848
   299   1 H      0.924     0.063     2.159     2.298
   300   1 H      0.924     0.034     2.532     2.488
   301   1 H      0.924     0.049     2.334     2.389
   302   6 C      2.746     0.268    22.467     7.761
   303   8 O      0.857    -0.481    23.371     6.482
   304   7 N      2.682    -0.169    24.665     7.376
   305   1 H      0.860     0.220     1.011     1.575
   306   6 C      3.771     0.004    20.538     6.458
   307   1 H      0.925     0.105     1.741     2.063
   308   6 C      3.801    -0.095    22.308     6.725
   309   1 H      0.924     0.100     1.782     2.087
   310   1 H      0.924     0.069     2.098     2.265
   311   6 C      2.959    -0.007    28.202     8.711
   312   6 C      2.907    -0.049    29.211     8.862
   313   1 H      0.925     0.033     2.550     2.497
   314   6 C      2.904    -0.091    30.289     9.024
   315   1 H      0.926     0.002     3.029     2.722
   316   6 C      2.834     0.143    24.878     8.174
   317   8 O      1.663    -0.393    20.715     6.144
   318   1 H      0.806     0.321     0.661     1.277
   319   6 C      2.912    -0.074    29.840     8.957
   320   1 H      0.926     0.049     2.328     2.386
   321   6 C      2.914    -0.045    29.116     8.848
   322   1 H      0.926     0.102     1.766     2.078
   323   6 C      2.745     0.258    22.650     7.793
   324   8 O      0.863    -0.494    23.639     6.519
   325   7 N      2.704    -0.143    24.092     7.290
   326   1 H      0.860     0.224     0.993     1.561
   327   6 C      3.803     0.023    20.194     6.398
   328   1 H      0.925     0.085     1.930     2.172
   329   6 C      3.798    -0.087    22.170     6.704
   330   1 H      0.924     0.046     2.368     2.406
   331   1 H      0.925     0.079     1.987     2.204
   332   6 C      3.786    -0.082    22.072     6.692
   333   1 H      0.925     0.078     2.004     2.214
   334   1 H      0.925     0.065     2.141     2.288
   335   6 C      3.800    -0.095    22.320     6.726
   336   1 H      0.925     0.090     1.883     2.146
   337   1 H      0.925     0.071     2.070     2.250
   338   6 C      3.723    -0.063    21.829     6.672
   339   1 H      0.925     0.114     1.665     2.018
   340   1 H      0.924     0.143     1.443     1.878
   341   7 N      3.480    -0.155    24.336     7.327
   342   1 H      0.860     0.296     0.726     1.335
   343   1 H      0.860     0.287     0.754     1.361
   344   1 H      0.860     0.309     0.687     1.298
   345   6 C      2.749     0.264    22.544     7.775
   346   8 O      0.858    -0.519    24.219     6.598
   347   7 N      2.686    -0.180    24.892     7.410
   348   1 H      0.860     0.230     0.966     1.539
   349   6 C      3.773     0.040    19.927     6.361
   350   1 H      0.924     0.049     2.336     2.390
   351   6 C      3.799    -0.090    22.226     6.712
   352   1 H      0.925     0.029     2.599     2.521
   353   1 H      0.924     0.068     2.106     2.269
   354   6 C      2.689     0.366    20.792     7.462
   355   8 O      0.857    -0.655    27.501     7.031
   356   8 O      0.858    -0.639    27.099     6.979
   357   6 C      2.741     0.266    22.507     7.768
   358   8 O      0.856    -0.452    22.745     6.394
   359   7 N      2.679    -0.193    25.194     7.455
   360   1 H      0.860     0.187     1.177     1.699
   361   6 C      3.788     0.030    20.090     6.384
   362   1 H      0.925     0.113     1.675     2.024
   363   6 C      3.736     0.128    18.578     6.151
   364   1 H      0.924    -0.002     3.088     2.748
   365   6 C      3.747    -0.132    23.097     6.855
   366   1 H      0.924     0.084     1.935     2.175
   367   1 H      0.925     0.037     2.493     2.469
   368   1 H      0.924     0.072     2.064     2.247
   369   8 O      1.663    -0.472    22.302     6.375
   370   1 H      0.805     0.345     0.601     1.217
   371   6 C      2.761     0.268    22.470     7.763
   372   8 O      0.858    -0.499    23.766     6.536
   373   7 N      2.683    -0.191    25.149     7.448
   374   1 H      0.860     0.199     1.112     1.652
   375   6 C      3.781     0.024    20.191     6.401
   376   1 H      0.925     0.081     1.971     2.196
   377   6 C      3.793    -0.051    21.494     6.602
   378   1 H      0.925     0.057     2.240     2.340
   379   1 H      0.925     0.034     2.526     2.485
   380   6 C      3.794    -0.086    22.141     6.701
   381   1 H      0.924     0.011     2.870     2.649
   382   1 H      0.925     0.022     2.697     2.568
   383   6 C      2.684     0.369    20.747     7.454
   384   8 O      0.860    -0.639    27.105     6.980
   385   8 O      0.856    -0.653    27.464     7.026
   386   6 C      2.741     0.246    22.876     7.831
   387   8 O      0.858    -0.516    24.134     6.587
   388   7 N      2.685    -0.161    24.493     7.350
   389   1 H      0.860     0.208     1.067     1.618
   390   6 C      3.733    -0.043    21.440     6.609
   391   1 H      0.925     0.118     1.629     1.996
   392   1 H      0.925     0.114     1.664     2.017
   393   6 C      2.740     0.282    22.217     7.717
   394   8 O      0.865    -0.423    22.138     6.309
   395   7 N      2.687    -0.178    24.862     7.406
   396   1 H      0.860     0.168     1.288     1.778
   397   6 C      3.766     0.016    20.339     6.428
   398   1 H      0.925     0.076     2.020     2.222
   399   6 C      3.802    -0.075    21.926     6.667
   400   1 H      0.925     0.073     2.049     2.239
   401   1 H      0.924     0.036     2.496     2.471
   402   6 C      2.958    -0.017    28.432     8.746
   403   6 C      2.907    -0.042    29.050     8.838
   404   1 H      0.926     0.022     2.705     2.572
   405   6 C      2.910    -0.058    29.443     8.897
   406   1 H      0.926     0.051     2.308     2.376
   407   6 C      2.863     0.148    24.792     8.161
   408   8 O      1.661    -0.443    21.709     6.290
   409   1 H      0.806     0.352     0.582     1.199
   410   6 C      2.911    -0.062    29.554     8.914
   411   1 H      0.926     0.061     2.183     2.310
   412   6 C      2.927    -0.035    28.876     8.813
   413   1 H      0.926     0.055     2.256     2.349
   414   6 C      2.734     0.264    22.552     7.775
   415   8 O      0.858    -0.493    23.636     6.518
   416   7 N      2.692    -0.145    24.142     7.297
   417   1 H      0.860     0.225     0.986     1.555
   418   6 C      3.788     0.016    20.320     6.420
   419   1 H      0.924     0.092     1.856     2.131
   420   6 C      3.812    -0.080    22.018     6.679
   421   1 H      0.925     0.069     2.099     2.266
   422   1 H      0.925     0.066     2.130     2.282
   423   6 C      2.952    -0.007    28.196     8.709
   424   6 C      2.930    -0.043    29.068     8.842
   425   1 H      0.926     0.033     2.538     2.491
   426   6 C      2.910    -0.067    29.671     8.932
   427   1 H      0.926     0.024     2.666     2.553
   428   6 C      2.834     0.143    24.886     8.175
   429   8 O      1.659    -0.429    21.413     6.247
   430   1 H      0.805     0.336     0.623     1.240
   431   6 C      2.913    -0.065    29.606     8.922
   432   1 H      0.926     0.075     2.028     2.227
   433   6 C      2.918    -0.049    29.212     8.863
   434   1 H      0.926     0.067     2.119     2.276
   435   6 C      2.751     0.275    22.346     7.741
   436   8 O      0.857    -0.476    23.267     6.467
   437   7 N      2.684    -0.175    24.783     7.394
   438   1 H      0.860     0.249     0.886     1.474
   439   6 C      3.787     0.002    20.560     6.458
   440   1 H      0.925     0.075     2.032     2.229
   441   6 C      3.727     0.120    18.723     6.178
   442   1 H      0.925     0.018     2.763     2.600
   443   6 C      3.752    -0.124    22.944     6.831
   444   1 H      0.925     0.054     2.266     2.354
   445   1 H      0.924     0.065     2.143     2.289
   446   1 H      0.924     0.039     2.468     2.457
   447   8 O      1.655    -0.494    22.760     6.440
   448   1 H      0.809     0.326     0.646     1.262
   449   6 C      2.741     0.251    22.775     7.814
   450   8 O      0.861    -0.467    23.065     6.439
   451   7 N      2.693    -0.152    24.290     7.320
   452   1 H      0.860     0.211     1.050     1.605
   453   6 C      3.796     0.008    20.449     6.439
   454   1 H      0.924     0.109     1.704     2.041
   455   6 C      3.857    -0.039    21.228     6.553
   456   1 H      0.925     0.069     2.102     2.267
   457   6 C      3.750    -0.128    23.021     6.843
   458   1 H      0.924     0.037     2.494     2.470
   459   1 H      0.924     0.048     2.347     2.396
   460   1 H      0.925     0.059     2.205     2.322
   461   6 C      3.802    -0.085    22.129     6.697
   462   1 H      0.925     0.040     2.443     2.444
   463   1 H      0.924     0.060     2.199     2.319
   464   6 C      3.753    -0.116    22.785     6.807
   465   1 H      0.925     0.053     2.284     2.364
   466   1 H      0.924     0.046     2.370     2.407
   467   1 H      0.924     0.054     2.271     2.357
   468   6 C      2.763     0.278    22.294     7.732
   469   8 O      0.858    -0.491    23.590     6.512
   470   7 N      2.689    -0.149    24.232     7.311
   471   1 H      0.860     0.247     0.895     1.482
   472   6 C      3.752    -0.034    21.234     6.571
   473   1 H      0.924     0.069     2.101     2.267
   474   1 H      0.924     0.116     1.647     2.007
   475   6 C      2.744     0.260    22.618     7.787
   476   8 O      0.857    -0.484    23.428     6.489
   477   7 N      2.689    -0.170    24.687     7.379
   478   1 H      0.860     0.191     1.155     1.683
   479   6 C      3.781     0.004    20.535     6.456
   480   1 H      0.925     0.083     1.950     2.184
   481   6 C      3.822    -0.028    21.058     6.530
   482   1 H      0.925     0.047     2.357     2.401
   483   6 C      3.742    -0.112    22.715     6.800
   484   1 H      0.924     0.051     2.304     2.373
   485   1 H      0.925     0.017     2.784     2.609
   486   1 H      0.925     0.050     2.318     2.381
   487   6 C      3.787    -0.076    21.959     6.674
   488   1 H      0.925     0.064     2.149     2.292
   489   1 H      0.925     0.055     2.263     2.353
   490   6 C      3.749    -0.118    22.833     6.815
   491   1 H      0.925     0.042     2.420     2.433
   492   1 H      0.924     0.054     2.268     2.355
   493   1 H      0.925     0.043     2.403     2.424
   494   6 C      2.751     0.267    22.486     7.765
   495   8 O      0.859    -0.481    23.368     6.481
   496   7 N      2.686    -0.171    24.693     7.380
   497   1 H      0.860     0.230     0.965     1.539
   498   6 C      3.743    -0.027    21.122     6.557
   499   1 H      0.925     0.090     1.877     2.143
   500   1 H      0.925     0.099     1.792     2.093
   501   6 C      2.750     0.265    22.535     7.773
   502   8 O      0.860    -0.539    24.664     6.659
   503   7 N      2.688    -0.155    24.364     7.331
   504   1 H      0.860     0.237     0.935     1.515
   505   6 C      3.792     0.021    20.225     6.404
   506   1 H      0.924     0.058     2.218     2.329
   507   6 C      3.798    -0.093    22.272     6.720
   508   1 H      0.925     0.119     1.624     1.993
   509   1 H      0.925     0.086     1.914     2.164
   510   6 C      3.217     0.044    26.345     8.349
   511   7 N      2.752    -0.007    21.398     6.870
   512   1 H      0.860     0.258     0.853     1.447
   513   6 C      3.071     0.067    26.433     8.430
   514   1 H      0.925     0.140     1.461     1.890
   515   7 N      2.842    -0.034    21.893     6.949
   516   1 H      0.860     0.272     0.802     1.403
   517   6 C      2.960     0.000    28.025     8.683
   518   1 H      0.926     0.139     1.467     1.894
   519   6 C      2.758     0.280    22.256     7.725
   520   8 O      0.868    -0.465    23.022     6.433
   521   7 N      2.696    -0.166    24.581     7.364
   522   1 H      0.860     0.195     1.130     1.665
   523   6 C      3.791     0.010    20.424     6.436
   524   1 H      0.924     0.075     2.031     2.229
   525   6 C      3.807    -0.072    21.868     6.657
   526   1 H      0.925     0.052     2.295     2.369
   527   1 H      0.924     0.040     2.451     2.448
   528   6 C      3.853    -0.017    20.848     6.494
   529   1 H      0.925     0.046     2.376     2.410
   530   6 C      3.766    -0.125    22.940     6.827
   531   1 H      0.925     0.035     2.523     2.484
   532   1 H      0.924     0.047     2.359     2.402
   533   1 H      0.925     0.050     2.320     2.382
   534   6 C      3.759    -0.118    22.812     6.809
   535   1 H      0.925     0.055     2.262     2.352
   536   1 H      0.924     0.052     2.289     2.366
   537   1 H      0.925     0.028     2.618     2.530
   538   6 C      2.749     0.289    22.096     7.697
   539   8 O      0.862    -0.480    23.334     6.477
   540   7 N      2.700    -0.196    25.248     7.463
   541   1 H      0.860     0.236     0.939     1.518
   542   6 C      3.794     0.025    20.160     6.394
   543   1 H      0.925     0.088     1.894     2.152
   544   6 C      3.817    -0.081    22.036     6.681
   545   1 H      0.924     0.045     2.388     2.417
   546   1 H      0.924     0.053     2.284     2.364
   547   6 C      3.849    -0.014    20.790     6.485
   548   1 H      0.925     0.049     2.334     2.389
   549   6 C      3.750    -0.121    22.877     6.821
   550   1 H      0.925     0.045     2.381     2.413
   551   1 H      0.925     0.064     2.148     2.292
   552   1 H      0.924     0.056     2.244     2.343
   553   6 C      3.762    -0.117    22.794     6.806
   554   1 H      0.925     0.057     2.240     2.340
   555   1 H      0.925     0.017     2.772     2.604
   556   1 H      0.925     0.031     2.577     2.510
   557   6 C      2.757     0.265    22.525     7.772
   558   8 O      0.858    -0.519    24.216     6.598
   559   7 N      2.681    -0.154    24.343     7.328
   560   1 H      0.860     0.219     1.015     1.578
   561   6 C      3.787    -0.005    20.690     6.479
   562   1 H      0.925     0.065     2.138     2.287
   563   6 C      3.720     0.118    18.756     6.185
   564   1 H      0.925     0.031     2.578     2.511
   565   6 C      3.762    -0.129    23.027     6.840
   566   1 H      0.924     0.079     1.991     2.207
   567   1 H      0.925     0.057     2.232     2.336
   568   1 H      0.925     0.050     2.319     2.381
   569   8 O      1.657    -0.477    22.409     6.390
   570   1 H      0.805     0.348     0.593     1.210
   571   6 C      2.739     0.263    22.559     7.777
   572   8 O      0.858    -0.460    22.922     6.419
   573   7 N      2.683    -0.164    24.547     7.358
   574   1 H      0.860     0.216     1.029     1.589
   575   6 C      3.787     0.012    20.395     6.432
   576   1 H      0.925     0.099     1.795     2.095
   577   6 C      3.803    -0.088    22.184     6.705
   578   1 H      0.925     0.081     1.970     2.195
   579   1 H      0.925     0.073     2.049     2.238
   580   6 C      3.792    -0.084    22.111     6.696
   581   1 H      0.925     0.053     2.286     2.364
   582   1 H      0.924     0.044     2.394     2.419
   583   6 C      3.797    -0.108    22.575     6.765
   584   1 H      0.925     0.092     1.864     2.135
   585   1 H      0.924     0.089     1.886     2.148
   586   6 C      3.732    -0.049    21.555     6.627
   587   1 H      0.925     0.122     1.598     1.977
   588   1 H      0.925     0.090     1.875     2.141
   589   7 N      3.493    -0.129    23.790     7.244
   590   1 H      0.860     0.289     0.747     1.354
   591   1 H      0.860     0.293     0.734     1.342
   592   1 H      0.860     0.310     0.683     1.295
   593   6 C      2.749     0.272    22.404     7.750
   594   8 O      0.858    -0.493    23.638     6.519
   595   7 N      2.684    -0.180    24.892     7.410
   596   1 H      0.860     0.222     1.001     1.567
   597   6 C      3.784     0.018    20.285     6.415
   598   1 H      0.924     0.077     2.011     2.218
   599   6 C      3.670     0.057    19.858     6.388
   600   1 H      0.925     0.057     2.229     2.335
   601   1 H      0.924     0.060     2.203     2.321
   602   8 O      1.653    -0.484    22.551     6.411
   603   1 H      0.805     0.350     0.588     1.204
   604   6 C      2.767     0.270    22.448     7.759
   605   8 O      0.860    -0.484    23.430     6.490
   606   7 N      2.756    -0.098    23.160     7.148
   607   6 C      3.759    -0.015    20.889     6.516
   608   1 H      0.925     0.083     1.946     2.182
   609   1 H      0.925     0.061     2.192     2.315
   610   6 C      3.822    -0.078    21.974     6.671
   611   1 H      0.924     0.076     2.017     2.221
   612   1 H      0.925     0.070     2.081     2.256
   613   6 C      3.835    -0.070    21.811     6.644
   614   1 H      0.925     0.060     2.202     2.321
   615   1 H      0.925     0.072     2.068     2.249
   616   6 C      3.822     0.021    20.201     6.396
   617   1 H      0.924     0.086     1.921     2.167
   618   6 C      2.749     0.277    22.305     7.733
   619   8 O      0.864    -0.474    23.220     6.461
   620   7 N      2.685    -0.176    24.814     7.398
   621   1 H      0.860     0.202     1.098     1.642
   622   6 C      3.785     0.008    20.459     6.443
   623   1 H      0.925     0.095     1.831     2.116
   624   6 C      3.674     0.059    19.809     6.378
   625   1 H      0.925     0.053     2.288     2.365
   626   1 H      0.925     0.064     2.149     2.292
   627   8 O      1.654    -0.479    22.453     6.397
   628   1 H      0.805     0.344     0.603     1.219
   629   6 C      2.745     0.284    22.189     7.713
   630   8 O      0.863    -0.448    22.661     6.382
   631   7 N      2.688    -0.193    25.195     7.455
   632   1 H      0.860     0.212     1.048     1.604
   633   6 C      3.771     0.009    20.464     6.446
   634   1 H      0.925     0.106     1.734     2.059
   635   6 C      3.794    -0.095    22.313     6.727
   636   1 H      0.925     0.070     2.080     2.255
   637   1 H      0.924     0.081     1.974     2.197
   638   6 C      3.841    -0.026    21.001     6.519
   639   1 H      0.925     0.050     2.314     2.379
   640   6 C      3.753    -0.137    23.192     6.867
   641   1 H      0.925     0.063     2.169     2.303
   642   1 H      0.925     0.052     2.299     2.371
   643   1 H      0.925     0.047     2.364     2.404
   644   6 C      3.748    -0.134    23.139     6.861
   645   1 H      0.925     0.062     2.171     2.304
   646   1 H      0.924     0.042     2.418     2.432
   647   1 H      0.925     0.046     2.369     2.407
   648   6 C      2.746     0.245    22.900     7.836
   649   8 O      0.858    -0.466    23.050     6.437
   650   7 N      2.689    -0.178    24.847     7.403
   651   1 H      0.860     0.218     1.016     1.579
   652   6 C      3.787     0.023    20.202     6.402
   653   1 H      0.924     0.118     1.630     1.996
   654   6 C      3.811    -0.121    22.806     6.798
   655   1 H      0.924     0.084     1.937     2.176
   656   1 H      0.925     0.107     1.727     2.055
   657   6 C      2.742     0.294    22.012     7.682
   658   8 O      0.861    -0.489    23.537     6.505
   659   7 N      2.635    -0.289    27.458     7.782
   660   1 H      0.860     0.231     0.959     1.534
   661   1 H      0.860     0.242     0.914     1.498
   662   6 C      2.754     0.263    22.563     7.778
   663   8 O      0.861    -0.500    23.772     6.537
   664   7 N      2.689    -0.159    24.447     7.343
   665   1 H      0.860     0.218     1.017     1.580
   666   6 C      3.798     0.015    20.324     6.419
   667   1 H      0.925     0.093     1.846     2.125
   668   6 C      3.755    -0.136    23.169     6.863
   669   1 H      0.925     0.077     2.007     2.215
   670   1 H      0.925     0.080     1.975     2.198
   671   1 H      0.925     0.061     2.184     2.311
   672   6 C      2.752     0.269    22.458     7.760
   673   8 O      0.865    -0.497    23.724     6.531
   674   7 N      2.696    -0.185    25.016     7.428
   675   1 H      0.860     0.230     0.964     1.538
   676   6 C      3.785     0.024    20.189     6.400
   677   1 H      0.925     0.060     2.194     2.316
   678   6 C      3.750    -0.140    23.271     6.880
   679   1 H      0.925     0.071     2.080     2.255
   680   1 H      0.924     0.069     2.093     2.262
   681   1 H      0.924     0.086     1.920     2.167
   682   6 C      2.747     0.269    22.457     7.759
   683   8 O      0.859    -0.501    23.799     6.541
   684   7 N      2.682    -0.167    24.616     7.369
   685   1 H      0.860     0.229     0.970     1.543
   686   6 C      3.784     0.007    20.478     6.446
   687   1 H      0.924     0.096     1.824     2.112
   688   6 C      3.798    -0.084    22.109     6.695
   689   1 H      0.925     0.063     2.170     2.303
   690   1 H      0.925     0.083     1.947     2.182
   691   6 C      3.806    -0.096    22.326     6.726
   692   1 H      0.925     0.086     1.919     2.166
   693   1 H      0.924     0.061     2.182     2.310
   694   6 C      3.807    -0.105    22.503     6.753
   695   1 H      0.925     0.087     1.906     2.159
   696   1 H      0.925     0.074     2.046     2.237
   697   6 C      3.740    -0.059    21.725     6.650
   698   1 H      0.925     0.110     1.696     2.036
   699   1 H      0.925     0.131     1.529     1.934
   700   7 N      3.489    -0.142    24.064     7.286
   701   1 H      0.860     0.295     0.729     1.337
   702   1 H      0.860     0.303     0.705     1.315
   703   1 H      0.860     0.304     0.702     1.312
   704   6 C      2.754     0.265    22.531     7.773
   705   8 O      0.858    -0.505    23.902     6.555
   706   7 N      2.682    -0.219    25.789     7.542
   707   1 H      0.860     0.255     0.864     1.456
   708   6 C      3.791     0.012    20.385     6.430
   709   1 H      0.925     0.059     2.211     2.325
   710   6 C      3.670     0.069    19.660     6.356
   711   1 H      0.925     0.052     2.300     2.372
   712   1 H      0.925     0.043     2.412     2.429
   713   8 O      1.656    -0.464    22.134     6.351
   714   1 H      0.806     0.342     0.608     1.225
   715   6 C      2.757     0.279    22.281     7.730
   716   8 O      0.860    -0.507    23.948     6.561
   717   7 N      2.691    -0.187    25.048     7.433
   718   1 H      0.860     0.229     0.971     1.544
   719   6 C      3.791     0.036    19.986     6.367
   720   1 H      0.924     0.061     2.189     2.314
   721   6 C      3.800    -0.050    21.473     6.598
   722   1 H      0.924     0.050     2.322     2.383
   723   1 H      0.925     0.048     2.349     2.397
   724   6 C      3.802    -0.095    22.310     6.725
   725   1 H      0.925     0.032     2.565     2.504
   726   1 H      0.925     0.043     2.407     2.426
   727   6 C      2.692     0.373    20.680     7.443
   728   8 O      0.859    -0.625    26.735     6.932
   729   8 O      0.856    -0.647    27.314     7.007
   730   6 C      2.749     0.268    22.474     7.763
   731   8 O      0.863    -0.526    24.373     6.619
   732   7 N      2.692    -0.163    24.525     7.355
   733   1 H      0.860     0.221     1.005     1.570
   734   6 C      3.777     0.012    20.406     6.436
   735   1 H      0.925     0.083     1.951     2.184
   736   6 C      3.801    -0.088    22.183     6.706
   737   1 H      0.925     0.053     2.280     2.361
   738   1 H      0.924     0.080     1.979     2.200
   739   6 C      3.849    -0.017    20.850     6.495
   740   1 H      0.925     0.032     2.560     2.502
   741   6 C      3.768    -0.131    23.058     6.843
   742   1 H      0.925     0.059     2.208     2.324
   743   1 H      0.925     0.065     2.147     2.291
   744   1 H      0.924     0.026     2.644     2.543
   745   6 C      3.772    -0.130    23.034     6.839
   746   1 H      0.924     0.042     2.418     2.432
   747   1 H      0.925     0.073     2.052     2.240
   748   1 H      0.925     0.066     2.129     2.282
   749   6 C      2.744     0.277    22.308     7.733
   750   8 O      0.858    -0.462    22.966     6.425
   751   7 N      2.714    -0.211    25.592     7.513
   752   1 H      0.860     0.215     1.035     1.593
   753   6 C      3.809     0.060    19.561     6.296
   754   1 H      0.925     0.063     2.159     2.298
   755   6 C      3.837    -0.087    22.129     6.693
   756   1 H      0.925     0.037     2.489     2.467
   757   1 H      0.924     0.046     2.373     2.409
   758   6 C      2.696     0.380    20.564     7.422
   759   8 O      0.861    -0.662    27.678     7.054
   760   8 O      0.863    -0.642    27.165     6.988
   761   6 C      2.751     0.269    22.454     7.759
   762   8 O      0.858    -0.521    24.245     6.602
   763   7 N      2.686    -0.174    24.763     7.391
   764   1 H      0.860     0.213     1.043     1.600
   765   6 C      3.794     0.026    20.142     6.391
   766   1 H      0.925     0.069     2.102     2.267
   767   6 C      3.806    -0.067    21.776     6.643
   768   1 H      0.925     0.061     2.191     2.315
   769   1 H      0.925     0.057     2.231     2.336
   770   6 C      3.801    -0.068    21.805     6.648
   771   1 H      0.925     0.054     2.272     2.357
   772   1 H      0.924     0.037     2.496     2.470
   773   6 C      3.801    -0.086    22.144     6.700
   774   1 H      0.925     0.076     2.026     2.226
   775   1 H      0.925     0.069     2.100     2.266
   776   6 C      3.730    -0.038    21.343     6.595
   777   1 H      0.925     0.097     1.816     2.107
   778   1 H      0.925     0.119     1.620     1.991
   779   7 N      3.485    -0.167    24.591     7.365
   780   1 H      0.860     0.299     0.717     1.327
   781   1 H      0.860     0.293     0.733     1.342
   782   1 H      0.860     0.303     0.705     1.316
   783   6 C      2.756     0.269    22.462     7.761
   784   8 O      0.858    -0.495    23.677     6.524
   785   7 N      2.699    -0.185    25.010     7.427
   786   1 H      0.860     0.216     1.026     1.587
   787   6 C      3.793     0.023    20.204     6.401
   788   1 H      0.924     0.080     1.982     2.201
   789   6 C      3.763    -0.131    23.063     6.845
   790   1 H      0.924     0.075     2.031     2.229
   791   1 H      0.925     0.065     2.136     2.286
   792   1 H      0.925     0.076     2.026     2.226
   793   6 C      2.750     0.273    22.386     7.747
   794   8 O      0.859    -0.514    24.087     6.580
   795   7 N      2.684    -0.176    24.816     7.399
   796   1 H      0.860     0.212     1.047     1.603
   797   6 C      3.782     0.011    20.414     6.436
   798   1 H      0.925     0.092     1.859     2.132
   799   6 C      3.839    -0.019    20.883     6.501
   800   1 H      0.925     0.043     2.405     2.425
   801   6 C      3.756    -0.113    22.707     6.794
   802   1 H      0.925     0.045     2.384     2.415
   803   1 H      0.925     0.022     2.696     2.568
   804   1 H      0.924     0.069     2.095     2.263
   805   6 C      3.797    -0.072    21.885     6.661
   806   1 H      0.925     0.073     2.052     2.240
   807   1 H      0.924     0.042     2.417     2.431
   808   6 C      3.739    -0.113    22.739     6.804
   809   1 H      0.924     0.058     2.228     2.334
   810   1 H      0.925     0.028     2.616     2.529
   811   1 H      0.925     0.040     2.453     2.449
   812   6 C      2.748     0.278    22.296     7.732
   813   8 O      0.859    -0.480    23.342     6.478
   814   7 N      2.682    -0.181    24.923     7.415
   815   1 H      0.860     0.201     1.101     1.644
   816   6 C      3.734    -0.028    21.165     6.566
   817   1 H      0.924     0.083     1.951     2.184
   818   1 H      0.924     0.071     2.078     2.254
   819   6 C      2.736     0.286    22.156     7.707
   820   8 O      0.863    -0.466    23.045     6.436
   821   7 N      2.683    -0.161    24.483     7.349
   822   1 H      0.860     0.183     1.199     1.715
   823   6 C      3.769     0.015    20.363     6.431
   824   1 H      0.925     0.060     2.196     2.317
   825   6 C      3.798    -0.077    21.980     6.675
   826   1 H      0.925     0.071     2.075     2.253
   827   1 H      0.924     0.057     2.229     2.335
   828   6 C      3.811    -0.070    21.832     6.651
   829   1 H      0.924     0.061     2.191     2.315
   830   1 H      0.924     0.048     2.349     2.397
   831   6 C      3.748    -0.015    20.916     6.523
   832   1 H      0.925     0.078     1.996     2.210
   833   1 H      0.925     0.082     1.956     2.187
   834   7 N      2.727    -0.139    24.010     7.278
   835   1 H      0.860     0.233     0.951     1.528
   836   6 C      2.739     0.253    22.748     7.809
   837   7 N      2.689    -0.251    26.526     7.649
   838   1 H      0.860     0.254     0.869     1.460
   839   1 H      0.860     0.226     0.984     1.554
   840   7 N      2.712    -0.261    26.759     7.683
   841   1 H      0.860     0.237     0.937     1.516
   842   1 H      0.860     0.239     0.925     1.507
   843   6 C      2.745     0.289    22.100     7.697
   844   8 O      0.859    -0.487    23.488     6.498
   845   7 N      2.689    -0.161    24.477     7.348
   846   1 H      0.860     0.214     1.038     1.596
   847   6 C      3.791     0.037    19.955     6.362
   848   1 H      0.924     0.066     2.129     2.282
   849   6 C      3.803    -0.112    22.644     6.775
   850   1 H      0.925     0.093     1.852     2.128
   851   1 H      0.925     0.076     2.017     2.221
   852   6 C      2.742     0.304    21.836     7.651
   853   8 O      0.873    -0.460    22.919     6.419
   854   7 N      2.647    -0.301    27.746     7.823
   855   1 H      0.860     0.258     0.853     1.447
   856   1 H      0.860     0.214     1.039     1.597
   857   6 C      2.750     0.260    22.617     7.787
   858   8 O      0.859    -0.490    23.572     6.509
   859   7 N      2.685    -0.168    24.641     7.372
   860   1 H      0.860     0.209     1.059     1.612
   861   6 C      3.828     0.020    20.221     6.398
   862   1 H      0.924     0.097     1.809     2.104
   863   6 C      3.793    -0.025    21.035     6.531
   864   1 H      0.925     0.125     1.571     1.960
   865   1 H      0.925     0.083     1.952     2.185
   866  16 S      1.940    -0.307   154.398    20.914
   867   1 H      0.923     0.174     1.241     1.742
   868   6 C      2.744     0.265    22.529     7.772
   869   8 O      0.859    -0.421    22.097     6.302
   870   7 N      2.678    -0.209    25.541     7.506
   871   1 H      0.860     0.196     1.125     1.662
   872   6 C      3.772     0.019    20.285     6.418
   873   1 H      0.925     0.102     1.765     2.078
   874   6 C      3.800    -0.093    22.277     6.720
   875   1 H      0.925     0.091     1.870     2.139
   876   1 H      0.925     0.083     1.953     2.185
   877   6 C      2.743     0.287    22.134     7.703
   878   8 O      0.865    -0.527    24.394     6.622
   879   7 N      2.643    -0.269    26.975     7.714
   880   1 H      0.860     0.243     0.911     1.495
   881   1 H      0.860     0.226     0.981     1.551
   882   6 C      2.733     0.268    22.471     7.761
   883   8 O      0.862    -0.464    23.000     6.430
   884   7 N      2.685    -0.158    24.422     7.340
   885   1 H      0.860     0.192     1.149     1.679
   886   6 C      3.738    -0.045    21.457     6.610
   887   1 H      0.924     0.131     1.525     1.931
   888   1 H      0.925     0.105     1.744     2.065
   889   6 C      2.744     0.261    22.606     7.785
   890   8 O      0.858    -0.489    23.544     6.506
   891   7 N      2.676    -0.152    24.287     7.319
   892   1 H      0.860     0.196     1.129     1.664
   893   6 C      3.782     0.012    20.392     6.433
   894   1 H      0.925     0.093     1.851     2.127
   895   6 C      3.856    -0.011    20.736     6.476
   896   1 H      0.925     0.058     2.227     2.334
   897   6 C      3.759    -0.123    22.915     6.825
   898   1 H      0.925     0.063     2.163     2.300
   899   1 H      0.924     0.047     2.359     2.402
   900   1 H      0.925     0.058     2.223     2.332
   901   6 C      3.759    -0.121    22.866     6.817
   902   1 H      0.925     0.022     2.698     2.569
   903   1 H      0.924     0.048     2.343     2.394
   904   1 H      0.924     0.057     2.239     2.340
   905   6 C      2.747     0.263    22.570     7.779
   906   8 O      0.859    -0.486    23.473     6.496
   907   7 N      2.682    -0.171    24.706     7.382
   908   1 H      0.860     0.219     1.016     1.579
   909   6 C      3.787     0.023    20.195     6.401
   910   1 H      0.925     0.071     2.074     2.252
   911   6 C      3.842    -0.025    20.986     6.517
   912   1 H      0.925     0.029     2.599     2.521
   913   6 C      3.745    -0.117    22.818     6.814
   914   1 H      0.925     0.045     2.386     2.416
   915   1 H      0.925     0.059     2.215     2.328
   916   1 H      0.924     0.042     2.423     2.434
   917   6 C      3.796    -0.067    21.782     6.646
   918   1 H      0.925     0.040     2.447     2.446
   919   1 H      0.924     0.054     2.268     2.355
   920   6 C      3.747    -0.126    22.989     6.839
   921   1 H      0.925     0.063     2.161     2.299
   922   1 H      0.924     0.033     2.538     2.491
   923   1 H      0.925     0.053     2.286     2.364
   924   6 C      2.750     0.264    22.550     7.776
   925   8 O      0.859    -0.488    23.514     6.501
   926   7 N      2.682    -0.162    24.509     7.353
   927   1 H      0.860     0.202     1.097     1.641
   928   6 C      3.785     0.016    20.315     6.420
   929   1 H      0.925     0.105     1.739     2.062
   930   6 C      3.727     0.112    18.846     6.198
   931   1 H      0.925     0.051     2.309     2.376
   932   6 C      3.749    -0.134    23.142     6.861
   933   1 H      0.925     0.062     2.173     2.305
   934   1 H      0.924     0.057     2.230     2.335
   935   1 H      0.925     0.060     2.196     2.318
   936   8 O      1.653    -0.513    23.172     6.498
   937   1 H      0.805     0.316     0.675     1.290
   938   6 C      2.749     0.257    22.666     7.796
   939   8 O      0.857    -0.497    23.727     6.531
   940   7 N      2.675    -0.188    25.076     7.437
   941   1 H      0.860     0.208     1.068     1.619
   942   6 C      3.775     0.008    20.475     6.447
   943   1 H      0.925     0.111     1.692     2.034
   944   6 C      3.799    -0.084    22.109     6.695
   945   1 H      0.925     0.050     2.319     2.382
   946   1 H      0.925     0.088     1.899     2.155
   947   6 C      3.790    -0.089    22.210     6.712
   948   1 H      0.925     0.082     1.954     2.186
   949   1 H      0.925     0.055     2.259     2.350
   950   6 C      3.793    -0.105    22.507     6.756
   951   1 H      0.925     0.079     1.985     2.203
   952   1 H      0.925     0.097     1.812     2.105
   953   6 C      3.736    -0.052    21.589     6.631
   954   1 H      0.925     0.133     1.509     1.921
   955   1 H      0.925     0.109     1.703     2.041
   956   7 N      3.490    -0.139    24.009     7.277
   957   1 H      0.860     0.294     0.732     1.340
   958   1 H      0.860     0.305     0.699     1.310
   959   1 H      0.860     0.288     0.750     1.356
   960   6 C      2.741     0.271    22.425     7.753
   961   8 O      0.859    -0.501    23.813     6.543
   962   7 N      2.689    -0.184    24.986     7.424
   963   1 H      0.860     0.210     1.054     1.608
   964   6 C      3.789     0.041    19.905     6.354
   965   1 H      0.925     0.079     1.994     2.208
   966   6 C      3.813    -0.100    22.396     6.736
   967   1 H      0.925     0.037     2.494     2.469
   968   1 H      0.925     0.053     2.284     2.364
   969   6 C      2.686     0.365    20.813     7.466
   970   8 O      0.856    -0.643    27.193     6.991
   971   8 O      0.858    -0.603    26.181     6.860
   972   6 C      2.755     0.278    22.298     7.733
   973   8 O      0.864    -0.507    23.932     6.559
   974   7 N      2.686    -0.177    24.843     7.403
   975   1 H      0.860     0.205     1.079     1.627
   976   6 C      3.790     0.028    20.108     6.386
   977   1 H      0.925     0.077     2.011     2.218
   978   6 C      3.808    -0.055    21.548     6.608
   979   1 H      0.924     0.060     2.194     2.316
   980   1 H      0.925     0.056     2.241     2.341
   981   6 C      3.805    -0.090    22.208     6.709
   982   1 H      0.925     0.035     2.512     2.479
   983   1 H      0.925     0.038     2.477     2.461
   984   6 C      2.687     0.347    21.100     7.517
   985   8 O      0.855    -0.619    26.583     6.913
   986   8 O      0.857    -0.585    25.746     6.803
   987   6 C      2.751     0.272    22.408     7.751
   988   8 O      0.868    -0.504    23.860     6.549
   989   7 N      2.699    -0.171    24.699     7.381
   990   1 H      0.860     0.219     1.014     1.577
   991   6 C      3.785     0.013    20.379     6.430
   992   1 H      0.924     0.091     1.871     2.139
   993   6 C      3.758    -0.150    23.459     6.905
   994   1 H      0.924     0.095     1.832     2.117
   995   1 H      0.925     0.077     2.010     2.217
   996   1 H      0.925     0.084     1.938     2.177
   997   6 C      2.746     0.276    22.325     7.737
   998   8 O      0.862    -0.475    23.231     6.462
   999   7 N      2.683    -0.181    24.917     7.414
  1000   1 H      0.860     0.209     1.061     1.614
  1001   6 C      3.781     0.016    20.329     6.423
  1002   1 H      0.924     0.090     1.874     2.141
  1003   6 C      3.809    -0.053    21.514     6.602
  1004   1 H      0.925     0.032     2.558     2.501
  1005   1 H      0.924     0.068     2.103     2.268
  1006   6 C      3.799    -0.099    22.392     6.738
  1007   1 H      0.924     0.048     2.339     2.392
  1008   1 H      0.924     0.030     2.591     2.517
  1009   6 C      2.685     0.359    20.912     7.484
  1010   8 O      0.858    -0.604    26.221     6.865
  1011   8 O      0.858    -0.628    26.823     6.944
  1012   6 C      2.744     0.269    22.448     7.758
  1013   8 O      0.860    -0.494    23.656     6.521
  1014   7 N      2.687    -0.182    24.948     7.418
  1015   1 H      0.860     0.212     1.045     1.601
  1016   6 C      3.783     0.017    20.314     6.420
  1017   1 H      0.925     0.093     1.849     2.127
  1018   6 C      3.815    -0.077    21.960     6.670
  1019   1 H      0.925     0.057     2.230     2.335
  1020   1 H      0.924     0.069     2.095     2.264
  1021   6 C      3.805    -0.077    21.965     6.672
  1022   1 H      0.924     0.062     2.174     2.306
  1023   1 H      0.925     0.064     2.150     2.293
  1024   6 C      3.810    -0.086    22.135     6.697
  1025   1 H      0.925     0.081     1.968     2.194
  1026   1 H      0.924     0.057     2.229     2.335
  1027   6 C      3.731    -0.043    21.433     6.608
  1028   1 H      0.925     0.117     1.641     2.003
  1029   1 H      0.925     0.109     1.708     2.044
  1030   7 N      3.488    -0.154    24.318     7.324
  1031   1 H      0.860     0.285     0.758     1.364
  1032   1 H      0.860     0.278     0.782     1.386
  1033   1 H      0.860     0.291     0.740     1.348
  1034   6 C      2.745     0.276    22.338     7.739
  1035   8 O      0.861    -0.480    23.337     6.477
  1036   7 N      2.677    -0.201    25.370     7.481
  1037   1 H      0.860     0.219     1.015     1.578
  1038   6 C      3.772     0.025    20.185     6.402
  1039   1 H      0.925     0.089     1.888     2.149
  1040   6 C      3.794    -0.085    22.124     6.698
  1041   1 H      0.925     0.060     2.200     2.320
  1042   1 H      0.925     0.076     2.024     2.225
  1043   6 C      3.845    -0.011    20.734     6.477
  1044   1 H      0.925     0.023     2.685     2.562
  1045   6 C      3.762    -0.115    22.749     6.799
  1046   1 H      0.925     0.038     2.475     2.460
  1047   1 H      0.925     0.045     2.378     2.411
  1048   1 H      0.925     0.027     2.636     2.539
  1049   6 C      3.758    -0.133    23.118     6.855
  1050   1 H      0.924     0.073     2.054     2.241
  1051   1 H      0.925     0.059     2.207     2.323
  1052   1 H      0.925     0.048     2.341     2.393
  1053   6 C      2.744     0.274    22.361     7.743
  1054   8 O      0.858    -0.507    23.949     6.561
  1055   7 N      2.682    -0.189    25.105     7.442
  1056   1 H      0.860     0.201     1.100     1.643
  1057   6 C      3.794     0.022    20.216     6.403
  1058   1 H      0.924     0.070     2.082     2.256
  1059   6 C      3.808    -0.080    22.017     6.679
  1060   1 H      0.925     0.064     2.156     2.296
  1061   1 H      0.925     0.082     1.964     2.191
  1062   6 C      2.960     0.011    27.760     8.642
  1063   6 C      2.920    -0.029    28.734     8.790
  1064   1 H      0.926     0.013     2.849     2.639
  1065   6 C      2.907    -0.038    28.939     8.821
  1066   1 H      0.926     0.030     2.583     2.513
  1067   6 C      2.909    -0.041    29.024     8.834
  1068   1 H      0.926     0.050     2.325     2.384
  1069   6 C      2.907    -0.037    28.912     8.817
  1070   1 H      0.926     0.058     2.217     2.328
  1071   6 C      2.929    -0.042    29.048     8.839
  1072   1 H      0.926     0.051     2.312     2.378
  1073   6 C      2.760     0.288    22.117     7.701
  1074   8 O      0.867    -0.500    23.779     6.538
  1075   7 N      2.702    -0.180    24.889     7.409
  1076   1 H      0.860     0.232     0.958     1.533
  1077   6 C      3.799     0.039    19.926     6.356
  1078   1 H      0.924     0.095     1.831     2.116
  1079   6 C      3.811    -0.106    22.507     6.753
  1080   1 H      0.925     0.076     2.017     2.221
  1081   1 H      0.925     0.105     1.736     2.060
  1082   6 C      2.746     0.282    22.221     7.718
  1083   8 O      0.867    -0.512    24.050     6.575
  1084   7 N      2.651    -0.282    27.292     7.759
  1085   1 H      0.860     0.260     0.844     1.439
  1086   1 H      0.860     0.233     0.951     1.528
  1087   6 C      2.750     0.268    22.473     7.762
  1088   8 O      0.859    -0.488    23.511     6.501
  1089   7 N      2.688    -0.184    24.985     7.424
  1090   1 H      0.860     0.199     1.113     1.653
  1091   6 C      3.800     0.030    20.079     6.380
  1092   1 H      0.925     0.088     1.901     2.156
  1093   6 C      3.814    -0.060    21.646     6.622
  1094   1 H      0.924     0.069     2.100     2.266
  1095   1 H      0.925     0.054     2.270     2.356
  1096   6 C      3.803    -0.101    22.428     6.742
  1097   1 H      0.924     0.067     2.114     2.274
  1098   1 H      0.925     0.059     2.211     2.325
  1099   6 C      2.741     0.292    22.055     7.689
  1100   8 O      0.861    -0.505    23.893     6.554
  1101   7 N      2.642    -0.268    26.942     7.709
  1102   1 H      0.860     0.236     0.939     1.518
  1103   1 H      0.860     0.240     0.924     1.506
  1104   6 C      2.753     0.276    22.336     7.739
  1105   8 O      0.861    -0.500    23.777     6.538
  1106   7 N      2.691    -0.188    25.066     7.436
  1107   1 H      0.860     0.195     1.129     1.665
  1108   6 C      3.785     0.045    19.840     6.344
  1109   1 H      0.925     0.081     1.973     2.197
  1110   6 C      3.793    -0.087    22.170     6.705
  1111   1 H      0.924     0.041     2.433     2.439
  1112   1 H      0.925     0.041     2.438     2.442
  1113   6 C      2.675     0.349    21.072     7.512
  1114   8 O      0.855    -0.622    26.657     6.922
  1115   8 O      0.856    -0.600    26.131     6.854
  1116   6 C      2.746     0.251    22.776     7.814
  1117   8 O      0.856    -0.514    24.107     6.583
  1118   7 N      2.678    -0.206    25.490     7.498
  1119   1 H      0.860     0.223     0.997     1.564
  1120   6 C      3.786     0.023    20.204     6.402
  1121   1 H      0.925     0.095     1.832     2.117
  1122   6 C      3.850    -0.022    20.928     6.507
  1123   1 H      0.925     0.036     2.509     2.477
  1124   6 C      3.755    -0.126    22.971     6.834
  1125   1 H      0.925     0.039     2.462     2.454
  1126   1 H      0.925     0.072     2.058     2.244
  1127   1 H      0.924     0.073     2.054     2.241
  1128   6 C      3.758    -0.126    22.968     6.833
  1129   1 H      0.925     0.042     2.424     2.435
  1130   1 H      0.925     0.066     2.131     2.283
  1131   1 H      0.925     0.062     2.181     2.309
  1132   6 C      2.746     0.268    22.468     7.761
  1133   8 O      0.856    -0.474    23.211     6.459
  1134   7 N      2.684    -0.178    24.863     7.406
  1135   1 H      0.860     0.195     1.134     1.668
  1136   6 C      3.784     0.033    20.043     6.377
  1137   1 H      0.924     0.080     1.984     2.203
  1138   6 C      3.808    -0.090    22.204     6.708
  1139   1 H      0.925     0.018     2.771     2.603
  1140   1 H      0.925     0.046     2.372     2.408
  1141   6 C      2.689     0.370    20.720     7.450
  1142   8 O      0.857    -0.625    26.734     6.932
  1143   8 O      0.857    -0.623    26.686     6.926
  1144   6 C      2.756     0.268    22.473     7.763
  1145   8 O      0.857    -0.479    23.328     6.476
  1146   7 N      2.686    -0.170    24.682     7.379
  1147   1 H      0.860     0.191     1.153     1.682
  1148   6 C      3.803     0.023    20.193     6.398
  1149   1 H      0.925     0.087     1.907     2.159
  1150   6 C      3.761    -0.133    23.111     6.853
  1151   1 H      0.924     0.052     2.292     2.368
  1152   1 H      0.925     0.069     2.092     2.262
  1153   1 H      0.924     0.087     1.908     2.160
  1154   6 C      2.753     0.269    22.452     7.759
  1155   8 O      0.863    -0.464    22.998     6.430
  1156   7 N      2.695    -0.186    25.024     7.430
  1157   1 H      0.860     0.190     1.157     1.685
  1158   6 C      3.787     0.025    20.170     6.397
  1159   1 H      0.924     0.090     1.875     2.141
  1160   6 C      3.755    -0.129    23.038     6.844
  1161   1 H      0.924     0.065     2.136     2.286
  1162   1 H      0.925     0.068     2.108     2.270
  1163   1 H      0.924     0.068     2.106     2.270
  1164   6 C      2.745     0.272    22.397     7.749
  1165   8 O      0.859    -0.476    23.259     6.466
  1166   7 N      2.677    -0.173    24.743     7.388
  1167   1 H      0.860     0.207     1.070     1.621
  1168   6 C      3.787     0.011    20.408     6.434
  1169   1 H      0.925     0.103     1.760     2.074
  1170   6 C      3.853    -0.016    20.818     6.489
  1171   1 H      0.925     0.030     2.581     2.512
  1172   6 C      3.756    -0.119    22.838     6.814
  1173   1 H      0.925     0.039     2.460     2.453
  1174   1 H      0.924     0.058     2.220     2.330
  1175   1 H      0.924     0.069     2.092     2.262
  1176   6 C      3.761    -0.132    23.084     6.849
  1177   1 H      0.925     0.070     2.090     2.261
  1178   1 H      0.925     0.038     2.477     2.461
  1179   1 H      0.925     0.054     2.271     2.356
  1180   6 C      2.745     0.269    22.460     7.760
  1181   8 O      0.860    -0.477    23.271     6.468
  1182   7 N      2.677    -0.194    25.214     7.458
  1183   1 H      0.860     0.198     1.114     1.653
  1184   6 C      3.774     0.010    20.429     6.440
  1185   1 H      0.924     0.092     1.857     2.131
  1186   6 C      3.801    -0.090    22.216     6.711
  1187   1 H      0.925     0.098     1.800     2.098
  1188   1 H      0.924     0.066     2.125     2.280
  1189   6 C      3.803    -0.084    22.092     6.692
  1190   1 H      0.924     0.050     2.319     2.382
  1191   1 H      0.925     0.069     2.100     2.266
  1192   6 C      3.733    -0.018    20.979     6.538
  1193   1 H      0.925     0.078     2.002     2.213
  1194   1 H      0.924     0.089     1.892     2.151
  1195   7 N      2.724    -0.156    24.373     7.332
  1196   1 H      0.860     0.211     1.050     1.605
  1197   6 C      2.733     0.236    23.063     7.862
  1198   7 N      2.676    -0.247    26.441     7.637
  1199   1 H      0.860     0.268     0.818     1.417
  1200   1 H      0.860     0.266     0.824     1.422
  1201   7 N      2.711    -0.288    27.427     7.778
  1202   1 H      0.860     0.240     0.922     1.504
  1203   1 H      0.860     0.234     0.949     1.526
  1204   6 C      2.737     0.275    22.354     7.741
  1205   8 O      0.859    -0.451    22.734     6.393
  1206   7 N      2.683    -0.163    24.529     7.356
  1207   1 H      0.860     0.200     1.105     1.647
  1208   6 C      3.739    -0.039    21.361     6.595
  1209   1 H      0.924     0.099     1.798     2.097
  1210   1 H      0.925     0.097     1.816     2.107
  1211   6 C      2.756     0.263    22.557     7.777
  1212   8 O      0.858    -0.495    23.669     6.523
  1213   7 N      2.688    -0.191    25.133     7.446
  1214   1 H      0.860     0.238     0.932     1.512
  1215   6 C      3.799     0.018    20.268     6.410
[...]
  2284  C   3.949        O 2285 1.649    N 2286 1.296    C 2281 0.982
  2285  O   1.953        C 2284 1.649    N 2286 0.203
  2286  N   3.390        C 2284 1.296    H 2288 0.928    H 2287 0.924    O 2285 0.203
  2287  H   0.945        N 2286 0.924
  2288  H   0.947        N 2286 0.928
  2289  C   3.941        O 2290 1.622    N 2291 1.355    C 2279 0.881
  2290  O   1.961        C 2289 1.622    N 2291 0.199
  2291  N   3.488        C 2289 1.355    C 2293 0.935    H 2292 0.924    O 2290 0.199
  2292  H   0.956        N 2291 0.924
  2293  C   3.950        C 2295 1.000    H 2294 0.952    N 2291 0.935    C 2313 0.928
  2294  H   0.989        C 2293 0.952
  2295  C   3.986        C 2293 1.000    C 2298 0.990    H 2296 0.972    H 2297 0.967
  2296  H   0.994        C 2295 0.972
  2297  H   0.993        C 2295 0.967
  2298  C   3.979        C 2301 1.011    C 2295 0.990    H 2300 0.972    H 2299 0.969
  2299  H   0.995        C 2298 0.969
  2300  H   0.994        C 2298 0.972
  2301  C   3.951        C 2298 1.011    N 2304 0.966    H 2302 0.964    H 2303 0.963
  2302  H   0.994        C 2301 0.964
  2303  H   0.997        C 2301 0.963
  2304  N   3.409        C 2306 1.275    C 2301 0.966    H 2305 0.892    N 2310 0.105
  2305  H   0.942        N 2304 0.892
  2306  C   3.977        N 2310 1.368    N 2307 1.308    N 2304 1.275
  2307  N   3.400        C 2306 1.308    H 2308 0.921    H 2309 0.920    N 2310 0.108
  2308  H   0.952        N 2307 0.921
  2309  H   0.948        N 2307 0.920
  2310  N   3.430        C 2306 1.368    H 2311 0.917    H 2312 0.880    N 2307 0.108    N 2304 0.105
  2311  H   0.945        N 2310 0.917
  2312  H   0.931        N 2310 0.880
  2313  C   3.958        O 2314 1.576    N 2315 1.378    C 2293 0.928
  2314  O   1.927        C 2313 1.576    N 2315 0.201
  2315  N   3.517        C 2313 1.378    C 2317 0.961    H 2316 0.895    O 2314 0.201
  2316  H   0.945        N 2315 0.895
  2317  C   3.954        C 2319 0.998    N 2315 0.961    H 2318 0.943    C 2323 0.934
  2318  H   0.992        C 2317 0.943
  2319  C   3.979        C 2317 0.998    H 2321 0.977    H 2322 0.976    H 2320 0.974
  2320  H   0.993        C 2319 0.974
  2321  H   0.995        C 2319 0.977
  2322  H   0.994        C 2319 0.976
  2323  C   3.944        O 2324 1.612    N 2325 1.299    C 2317 0.934
  2324  O   1.978        C 2323 1.612    N 2325 0.194
  2325  N   3.471        C 2323 1.299    C 2327 1.000    H 2326 0.876    O 2324 0.194
  2326  H   0.941        N 2325 0.876
  2327  C   3.966        N 2325 1.000    C 2329 0.977    H 2328 0.941    C 2345 0.932
  2328  H   0.992        C 2327 0.941
  2329  C   3.982        C 2332 0.999    C 2327 0.977    H 2330 0.971    H 2331 0.965
  2330  H   0.996        C 2329 0.971
  2331  H   0.996        C 2329 0.965
  2332  C   3.984        C 2329 0.999    C 2335 0.997    H 2334 0.975    H 2333 0.971
  2333  H   0.995        C 2332 0.971
  2334  H   0.996        C 2332 0.975
  2335  C   3.979        C 2338 1.011    C 2332 0.997    H 2336 0.971    H 2337 0.965
  2336  H   0.994        C 2335 0.971
  2337  H   0.988        C 2335 0.965
  2338  C   3.900        C 2335 1.011    H 2339 0.965    H 2340 0.960    N 2341 0.944
  2339  H   0.986        C 2338 0.965
  2340  H   0.985        C 2338 0.960
  2341  N   3.647        C 2338 0.944    H 2342 0.897    H 2344 0.897    H 2343 0.888
  2342  H   0.918        N 2341 0.897
  2343  H   0.910        N 2341 0.888
  2344  H   0.914        N 2341 0.897
  2345  C   3.936        O 2346 1.652    N 2347 1.260    C 2327 0.932
  2346  O   1.976        C 2345 1.652    N 2347 0.193
  2347  N   3.442        C 2345 1.260    C 2349 0.987    H 2348 0.907    O 2346 0.193
  2348  H   0.952        N 2347 0.907
  2349  C   3.965        N 2347 0.987    C 2351 0.973    H 2350 0.954    C 2369 0.926
  2350  H   0.994        C 2349 0.954
  2351  C   3.984        C 2354 1.005    C 2349 0.973    H 2353 0.971    H 2352 0.970
  2352  H   0.997        C 2351 0.970
  2353  H   0.994        C 2351 0.971
  2354  C   3.985        C 2357 1.005    C 2351 1.005    H 2355 0.964    H 2356 0.963
  2355  H   0.991        C 2354 0.964
  2356  H   0.994        C 2354 0.963
  2357  C   3.953        C 2354 1.005    N 2360 0.975    H 2359 0.965    H 2358 0.952
  2358  H   0.993        C 2357 0.952
  2359  H   0.994        C 2357 0.965
  2360  N   3.452        C 2362 1.304    C 2357 0.975    H 2361 0.893
  2361  H   0.948        N 2360 0.893
  2362  C   3.980        N 2363 1.340    N 2360 1.304    N 2366 1.304
  2363  N   3.399        C 2362 1.340    H 2365 0.907    H 2364 0.903    N 2366 0.100
  2364  H   0.937        N 2363 0.903
  2365  H   0.943        N 2363 0.907
  2366  N   3.368        C 2362 1.304    H 2367 0.911    H 2368 0.879    N 2363 0.100
  2367  H   0.937        N 2366 0.911
  2368  H   0.945        N 2366 0.879
  2369  C   3.946        O 2370 1.561    N 2371 1.373    C 2349 0.926
  2370  O   1.928        C 2369 1.561    N 2371 0.192
  2371  N   3.509        C 2369 1.373    C 2373 0.961    H 2372 0.894    O 2370 0.192
  2372  H   0.946        N 2371 0.894
  2373  C   3.953        N 2371 0.961    C 2375 0.957    H 2374 0.947    C 2385 0.937
  2374  H   0.994        C 2373 0.947
  2375  C   3.984        C 2381 1.016    C 2377 1.001    H 2376 0.960    C 2373 0.957
  2376  H   0.995        C 2375 0.960
  2377  C   3.989        C 2375 1.001    H 2380 0.981    H 2378 0.981    H 2379 0.979
  2378  H   0.996        C 2377 0.981
  2379  H   0.998        C 2377 0.979
  2380  H   0.998        C 2377 0.981
  2381  C   3.990        C 2375 1.016    H 2382 0.981    H 2384 0.980    H 2383 0.977
  2382  H   0.999        C 2381 0.981
  2383  H   0.996        C 2381 0.977
  2384  H   0.996        C 2381 0.980
  2385  C   3.950        O 2386 1.589    N 2387 1.341    C 2373 0.937
  2386  O   1.963        C 2385 1.589    N 2387 0.200
  2387  N   3.469        C 2385 1.341    C 2389 0.949    H 2388 0.873    O 2386 0.200
  2388  H   0.941        N 2387 0.873
  2389  C   3.951        C 2391 0.973    H 2390 0.953    N 2387 0.949    C 2404 0.941
  2390  H   0.991        C 2389 0.953
  2391  C   3.980        C 2393 1.000    C 2397 0.983    C 2389 0.973    H 2392 0.965
  2392  H   0.997        C 2391 0.965
  2393  C   3.985        C 2391 1.000    H 2395 0.986    H 2396 0.984    H 2394 0.980
  2394  H   0.995        C 2393 0.980
  2395  H   0.997        C 2393 0.986
  2396  H   0.999        C 2393 0.984
  2397  C   3.990        C 2400 1.018    C 2391 0.983    H 2399 0.976    H 2398 0.972
  2398  H   0.997        C 2397 0.972
  2399  H   0.998        C 2397 0.976
  2400  C   3.993        C 2397 1.018    H 2402 0.987    H 2401 0.985    H 2403 0.985
  2401  H   0.998        C 2400 0.985
  2402  H   0.997        C 2400 0.987
  2403  H   0.998        C 2400 0.985
  2404  C   3.939        O 2405 1.636    N 2406 1.280    C 2389 0.941
  2405  O   1.996        C 2404 1.636    N 2406 0.191
  2406  N   3.449        C 2404 1.280    C 2408 0.979    H 2407 0.913    O 2405 0.191
  2407  H   0.954        N 2406 0.913
  2408  C   3.964        N 2406 0.979    C 2410 0.957    H 2409 0.942    C 2418 0.934
  2409  H   0.989        C 2408 0.942
  2410  C   3.962        C 2412 1.008    O 2416 0.985    H 2411 0.965    C 2408 0.957
  2411  H   0.998        C 2410 0.965
  2412  C   3.986        C 2410 1.008    H 2413 0.983    H 2414 0.979    H 2415 0.979
  2413  H   0.996        C 2412 0.983
  2414  H   0.999        C 2412 0.979
  2415  H   0.996        C 2412 0.979
  2416  O   1.931        C 2410 0.985    H 2417 0.863
  2417  H   0.882        O 2416 0.863
  2418  C   3.945        O 2419 1.607    N 2420 1.319    C 2408 0.934
  2419  O   1.972        C 2418 1.607    N 2420 0.194
  2420  N   3.454        C 2418 1.319    C 2422 0.946    H 2421 0.897    O 2419 0.194
  2421  H   0.952        N 2420 0.897
  2422  C   3.949        C 2424 0.956    C 2432 0.952    H 2423 0.951    N 2420 0.946
  2423  H   0.990        C 2422 0.951
  2424  C   3.952        C 2426 0.995    O 2430 0.992    H 2425 0.962    C 2422 0.956
  2425  H   0.998        C 2424 0.962
  2426  C   3.980        C 2424 0.995    H 2427 0.981    H 2429 0.979    H 2428 0.979
  2427  H   0.994        C 2426 0.981
  2428  H   0.995        C 2426 0.979
  2429  H   0.998        C 2426 0.979
  2430  O   1.941        C 2424 0.992    H 2431 0.852
  2431  H   0.899        O 2430 0.852
  2432  C   3.959        O 2433 1.537    N 2434 1.391    C 2422 0.952
  2433  O   1.895        C 2432 1.537    N 2434 0.201
  2434  N   3.512        C 2432 1.391    C 2436 0.950    H 2435 0.867    O 2433 0.201
  2435  H   0.941        N 2434 0.867
  2436  C   3.949        C 2438 0.990    N 2434 0.950    H 2437 0.945    C 2452 0.907
  2437  H   0.992        C 2436 0.945
  2438  C   3.979        C 2436 0.990    C 2441 0.987    H 2440 0.964    H 2439 0.954
  2439  H   0.993        C 2438 0.954
  2440  H   0.995        C 2438 0.964
  2441  C   3.983        C 2442 1.430    C 2450 1.413    C 2438 0.987    C 2446 0.102
  2442  C   3.985        C 2441 1.430    C 2444 1.411    H 2443 0.967    C 2448 0.118
  2443  H   0.998        C 2442 0.967
  2444  C   3.988        C 2446 1.458    C 2442 1.411    H 2445 0.971    C 2450 0.114
  2445  H   0.998        C 2444 0.971
  2446  C   3.990        C 2444 1.458    C 2448 1.427    H 2447 0.961    C 2441 0.102
  2447  H   0.997        C 2446 0.961
  2448  C   3.991        C 2450 1.443    C 2446 1.427    H 2449 0.962    C 2442 0.118
  2449  H   0.997        C 2448 0.962
  2450  C   3.988        C 2448 1.443    C 2441 1.413    H 2451 0.958    C 2444 0.114
  2451  H   0.997        C 2450 0.958
  2452  C   3.950        O 2453 1.642    N 2454 1.320    C 2436 0.907
  2453  O   1.997        C 2452 1.642    N 2454 0.197
  2454  N   3.458        C 2452 1.320    C 2456 0.954    H 2455 0.879    O 2453 0.197
  2455  H   0.947        N 2454 0.879
  2456  C   3.955        C 2476 0.970    C 2458 0.967    N 2454 0.954    H 2457 0.941
  2457  H   0.988        C 2456 0.941
  2458  C   3.980        C 2461 1.001    H 2459 0.971    C 2456 0.967    H 2460 0.965
  2459  H   0.995        C 2458 0.971
  2460  H   0.995        C 2458 0.965
  2461  C   3.984        C 2458 1.001    C 2464 0.994    H 2463 0.974    H 2462 0.973
  2462  H   0.993        C 2461 0.973
  2463  H   0.995        C 2461 0.974
  2464  C   3.947        C 2461 0.994    N 2467 0.980    H 2465 0.966    H 2466 0.964
  2465  H   0.993        C 2464 0.966
  2466  H   0.991        C 2464 0.964
  2467  N   3.437        C 2469 1.285    C 2464 0.980    H 2468 0.916    N 2473 0.110
  2468  H   0.947        N 2467 0.916
  2469  C   3.977        N 2473 1.376    N 2470 1.286    N 2467 1.285
  2470  N   3.377        C 2469 1.286    H 2472 0.921    H 2471 0.920    N 2473 0.106
  2471  H   0.952        N 2470 0.920
  2472  H   0.944        N 2470 0.921
  2473  N   3.424        C 2469 1.376    H 2475 0.909    H 2474 0.855    N 2467 0.110    N 2470 0.106
  2474  H   0.930        N 2473 0.855
  2475  H   0.936        N 2473 0.909
  2476  C   3.953        O 2477 1.637    N 2478 1.271    C 2456 0.970
  2477  O   1.958        C 2476 1.637    N 2478 0.195
  2478  N   3.454        C 2476 1.271    C 2480 0.991    H 2479 0.902    O 2477 0.195
  2479  H   0.952        N 2478 0.902
  2480  C   3.973        N 2478 0.991    C 2482 0.956    H 2481 0.944    C 2490 0.936
  2481  H   0.992        C 2480 0.944
  2482  C   3.955        O 2488 0.999    C 2484 0.987    C 2480 0.956    H 2483 0.952
  2483  H   0.996        C 2482 0.952
  2484  C   3.988        C 2482 0.987    H 2487 0.986    H 2486 0.983    H 2485 0.978
  2485  H   0.995        C 2484 0.978
  2486  H   0.995        C 2484 0.983
  2487  H   0.997        C 2484 0.986
  2488  O   1.981        C 2482 0.999    H 2489 0.834
  2489  H   0.885        O 2488 0.834
  2490  C   3.953        O 2491 1.635    N 2492 1.294    C 2480 0.936
  2491  O   1.948        C 2490 1.635    N 2492 0.195
  2492  N   3.460        C 2490 1.294    C 2494 0.999    H 2493 0.884    O 2491 0.195
  2493  H   0.947        N 2492 0.884
  2494  C   3.962        N 2492 0.999    H 2495 0.956    H 2496 0.945    C 2497 0.937
  2495  H   0.991        C 2494 0.956
  2496  H   0.989        C 2494 0.945
  2497  C   3.948        O 2498 1.627    N 2499 1.319    C 2494 0.937
  2498  O   1.939        C 2497 1.627    N 2499 0.194
  2499  N   3.479        C 2497 1.319    C 2501 0.980    H 2500 0.904    O 2498 0.194
  2500  H   0.955        N 2499 0.904
  2501  C   3.962        N 2499 0.980    H 2502 0.956    C 2503 0.949    C 2511 0.901
  2502  H   0.992        C 2501 0.956
  2503  C   3.947        C 2505 0.993    O 2509 0.986    H 2504 0.960    C 2501 0.949
  2504  H   0.995        C 2503 0.960
  2505  C   3.987        C 2503 0.993    H 2506 0.984    H 2507 0.981    H 2508 0.981
  2506  H   0.997        C 2505 0.984
  2507  H   0.996        C 2505 0.981
  2508  H   0.998        C 2505 0.981
  2509  O   1.951        C 2503 0.986    H 2510 0.862
  2510  H   0.900        O 2509 0.862
  2511  C   3.952        O 2512 1.629    N 2513 1.347    C 2501 0.901
  2512  O   1.956        C 2511 1.629    N 2513 0.198
  2513  N   3.493        C 2511 1.347    C 2515 0.961    H 2514 0.911    O 2512 0.198
  2514  H   0.951        N 2513 0.911
  2515  C   3.945        C 2517 0.978    N 2513 0.961    H 2516 0.942    C 2535 0.915
  2516  H   0.988        C 2515 0.942
  2517  C   3.978        C 2520 0.999    C 2515 0.978    H 2519 0.966    H 2518 0.952
  2518  H   0.992        C 2517 0.952
  2519  H   0.994        C 2517 0.966
  2520  C   3.963        C 2521 1.589    C 2534 1.195    C 2517 0.999
  2521  C   3.946        C 2520 1.589    N 2523 1.194    H 2522 0.966
  2522  H   0.994        C 2521 0.966
  2523  N   3.533        C 2521 1.194    C 2525 1.184    H 2524 0.929
  2524  H   0.956        N 2523 0.929
  2525  C   3.964        C 2526 1.360    C 2534 1.228    N 2523 1.184
  2526  C   3.987        C 2528 1.445    C 2525 1.360    H 2527 0.959    C 2532 0.121
  2527  H   0.998        C 2526 0.959
  2528  C   3.992        C 2526 1.445    C 2530 1.425    H 2529 0.955
  2529  H   0.997        C 2528 0.955
  2530  C   3.993        C 2532 1.455    C 2528 1.425    H 2531 0.965
  2531  H   0.998        C 2530 0.965
  2532  C   3.990        C 2530 1.455    C 2534 1.351    H 2533 0.969    C 2526 0.121
  2533  H   0.999        C 2532 0.969
  2534  C   3.981        C 2532 1.351    C 2525 1.228    C 2520 1.195
  2535  C   3.926        O 2536 1.614    N 2537 1.300    C 2515 0.915
  2536  O   1.975        C 2535 1.614    N 2537 0.195
  2537  N   3.464        C 2535 1.300    C 2539 0.966    H 2538 0.916    O 2536 0.195
  2538  H   0.956        N 2537 0.916
  2539  C   3.961        C 2541 0.968    N 2537 0.966    C 2547 0.951    H 2540 0.948
  2540  H   0.993        C 2539 0.948
  2541  C   3.985        H 2542 0.978    C 2539 0.968    H 2543 0.953    C 2544 0.937
  2542  H   0.999        C 2541 0.978
  2543  H   0.995        C 2541 0.953
  2544  C   3.938        O 2546 1.503    O 2545 1.477    C 2541 0.937
  2545  O   1.763        C 2544 1.477    O 2546 0.219
  2546  O   1.793        C 2544 1.503    O 2545 0.219
  2547  C   3.943        O 2548 1.638    N 2549 1.284    C 2539 0.951
  2548  O   1.942        C 2547 1.638    N 2549 0.192
  2549  N   3.445        C 2547 1.284    C 2551 0.965    H 2550 0.927    O 2548 0.192
  2550  H   0.959        N 2549 0.927
  2551  C   3.953        C 2553 0.989    N 2549 0.965    C 2557 0.946    H 2552 0.945
  2552  H   0.993        C 2551 0.945
  2553  C   3.980        C 2551 0.989    H 2555 0.983    H 2556 0.979    H 2554 0.974
  2554  H   0.993        C 2553 0.974
  2555  H   0.996        C 2553 0.983
  2556  H   0.995        C 2553 0.979
  2557  C   3.946        O 2558 1.674    N 2559 1.254    C 2551 0.946
  2558  O   1.986        C 2557 1.674    N 2559 0.199
  2559  N   3.423        C 2557 1.254    C 2561 0.963    H 2560 0.905    O 2558 0.199
  2560  H   0.957        N 2559 0.905
  2561  C   3.958        C 2563 0.970    N 2559 0.963    C 2578 0.950    H 2562 0.948
  2562  H   0.994        C 2561 0.948
  2563  C   3.972        C 2566 0.978    C 2561 0.970    H 2565 0.967    H 2564 0.959
  2564  H   0.996        C 2563 0.959
  2565  H   0.997        C 2563 0.967
  2566  C   3.980        C 2567 1.445    C 2576 1.397    C 2563 0.978
  2567  C   3.987        C 2566 1.445    C 2569 1.399    H 2568 0.970    C 2574 0.118
  2568  H   0.998        C 2567 0.970
  2569  C   3.983        C 2571 1.399    C 2567 1.399    H 2570 0.964    C 2576 0.103
  2570  H   0.996        C 2569 0.964
  2571  C   3.946        C 2569 1.399    C 2574 1.322    O 2572 1.104
  2572  O   2.117        C 2571 1.104    H 2573 0.803
  2573  H   0.884        O 2572 0.803
  2574  C   3.987        C 2576 1.469    C 2571 1.322    H 2575 0.966    C 2567 0.118
  2575  H   0.998        C 2574 0.966
  2576  C   3.989        C 2574 1.469    C 2566 1.397    H 2577 0.960    C 2569 0.103
  2577  H   0.998        C 2576 0.960
  2578  C   3.945        O 2579 1.623    N 2580 1.288    C 2561 0.950
  2579  O   1.947        C 2578 1.623    N 2580 0.204
  2580  N   3.455        C 2578 1.288    C 2582 0.968    H 2581 0.909    O 2579 0.204
  2581  H   0.958        N 2580 0.909
  2582  C   3.952        C 2584 0.977    N 2580 0.968    H 2583 0.961    C 2600 0.916
  2583  H   0.998        C 2582 0.961
  2584  C   3.987        C 2587 1.011    C 2582 0.977    H 2585 0.975    H 2586 0.971
  2585  H   0.999        C 2584 0.975
  2586  H   0.997        C 2584 0.971
  2587  C   3.989        C 2584 1.011    C 2590 0.995    H 2588 0.975    H 2589 0.973
  2588  H   0.996        C 2587 0.975
  2589  H   0.999        C 2587 0.973
  2590  C   3.984        C 2593 1.019    C 2587 0.995    H 2591 0.973    H 2592 0.963
  2591  H   0.995        C 2590 0.973
  2592  H   0.988        C 2590 0.963
  2593  C   3.894        C 2590 1.019    H 2595 0.963    H 2594 0.959    N 2596 0.935
  2594  H   0.980        C 2593 0.959
  2595  H   0.983        C 2593 0.963
  2596  N   3.646        C 2593 0.935    H 2599 0.897    H 2598 0.897    H 2597 0.893
  2597  H   0.905        N 2596 0.893
  2598  H   0.923        N 2596 0.897
  2599  H   0.921        N 2596 0.897
  2600  C   3.932        O 2601 1.490    O 2602 1.488    C 2582 0.916
  2601  O   1.780        C 2600 1.490    O 2602 0.220
  2602  O   1.780        C 2600 1.488    O 2601 0.220

molecular dipole:
                 x           y           z       tot (Debye)
 q only:      616.619     677.759     685.363
   full:      615.485     680.227     693.308    2922.686
molecular quadrupole (traceless):
                xx          xy          yy          xz          yz          zz
 q only:   -10047.200   73405.327    2940.756   75875.199   84089.860    7106.445
  q+dip:   -11204.446   73121.522    2748.752   76285.910   85099.272    8455.694
   full:   -11193.817   73117.707    2726.089   76279.825   85096.123    8467.727


           -------------------------------------------------
          | TOTAL ENERGY            -4085.175858096789 Eh   |
          | GRADIENT NORM               1.326638618302 Eh/α |
          | HOMO-LUMO GAP               1.601779074874 eV   |
           -------------------------------------------------
########################################################################
[WARNING] Runtime exception occurred
-2- restart_readRestart: Dimension missmatch in restart file.
-1- restart_readRestart: Number of electron missmatch in restart file.
########################################################################

------------------------------------------------------------------------
 * finished run on 2020/06/09 at 10:28:29.889     
------------------------------------------------------------------------
 total:
 * wall-time:     0 d,  0 h,  7 min,  0.085 sec
 *  cpu-time:     0 d,  5 h, 13 min, 53.677 sec
 * ratio c/w:    44.833 speedup
 SCF:
 * wall-time:     0 d,  0 h,  6 min, 29.689 sec
 *  cpu-time:     0 d,  5 h,  2 min, 41.035 sec
 * ratio c/w:    46.604 speedup

