      -----------------------------------------------------------      
     |                   =====================                   |     
     |                           x T B                           |     
     |                   =====================                   |     
     |                         S. Grimme                         |     
     |          Mulliken Center for Theoretical Chemistry        |     
     |                    University of Bonn                     |     
      -----------------------------------------------------------      

   * xtb version 6.2.3 (d7bf61a) compiled by 'conda@06d140edd85e' on 2020-05-12

   xtb is free software: you can redistribute it and/or modify it under
   the terms of the GNU Lesser General Public License as published by
   the Free Software Foundation, either version 3 of the License, or
   (at your option) any later version.
   
   xtb is distributed in the hope that it will be useful,
   but WITHOUT ANY WARRANTY; without even the implied warranty of
   MERCHANTABILITY or FITNESS FOR A PARTICULAR PURPOSE.  See the
   GNU Lesser General Public License for more details.
   
   Cite this work as:
   * S. Grimme, C. Bannwarth, P. Shushkov, J. Chem. Theory Comput., 2017,
     13, 1989-2009. DOI: 10.1021/acs.jctc.7b00118
   * C. Bannwarth, S. Ehlert and S. Grimme., J. Chem. Theory Comput., 2019,
     15, 1652-1671. DOI: 10.1021/acs.jctc.8b01176
   * P. Pracht, E. Caldeweyher, S. Ehlert, S. Grimme, ChemRxiv, 2019, preprint.
     DOI: 10.26434/chemrxiv.8326202.v1
   
   for DFT-D4:
   * E. Caldeweyher, C. Bannwarth and S. Grimme, J. Chem. Phys., 2017,
     147, 034112. DOI: 10.1063/1.4993215
   * E. Caldeweyher, S. Ehlert, A. Hansen, H. Neugebauer, S. Spicher,
     C. Bannwarth and S. Grimme, J. Chem. Phys., 2019, 150, 154122.
     DOI: 10.1063/1.5090222
   
   for sTDA-xTB:
   * S. Grimme and C. Bannwarth, J. Chem. Phys., 2016, 145, 054103.
     DOI: 10.1063/1.4959605
   
   in the mass-spec context:
   * V. Asgeirsson, C. Bauer and S. Grimme, Chem. Sci., 2017, 8, 4879.
     DOI: 10.1039/c7sc00601b
   
   for metadynamics refer to:
   * S. Grimme, J. Chem. Theory Comput., 2019, 155, 2847-2862
     DOI: 10.1021/acs.jctc.9b00143
   
   with help from (in alphabetical order)
   C. Bannwarth, F. Bohle, G. Brandenburg, E. Caldeweyher, M. Checinski,
   S. Dohm, S. Ehlert, S. Ehrlich, F. März, H. Neugebauer, J. Pisarek,
   P. Pracht, P. Shushkov, and S. Spicher.
   
 * started run on 2020/06/09 at 15:09:00.013     

           -------------------------------------------------
          |                Calculation Setup                |
           -------------------------------------------------

          program call               : xtb host_35821.xyz --chrg +9 --uhf 0 --gbsa water
          hostname                   : gold58.cluster.local
          coordinate file            : host_35821.xyz
          omp threads                :                    64
          number of atoms            :                  2602
          number of electrons        :                  7192
          charge                     :                     9
          spin                       :                   0.0
          first test random number   :      0.66740950844893

########################################################################
[WARNING] Please study the warnings concerning your input carefully
-2- prog_main: XTBPATH is not set, using XTBHOME instead
-1- prog_main: XTBHOME is not set, using HOME instead
########################################################################
           ------------------------------------------------- 
          |                 G F N 2 - x T B                 |
          | Geometry, Frequencies, Noncovalent interactions |
          |            JCTC 2019 parametrisation            |
           ------------------------------------------------- 
             k(s)              :                1.8500
             k(p)              :                2.2300
             k(d)              :                2.2300
             k(f)              :                2.0000
             kEN (H0ij)        :               -2.0000
             D4 a1             :                0.5200
             D4 a2             :                5.0000
             D4 s6             :                1.0000
             D4 s8             :                2.7000
             D4 s9             :                5.0000
             alphaj            :                2.0000

  Z AO/shell   Hii/eV     exponent
  1     Wed Apr 25 08:07:45 CEST 2018   EN: 2.200 GM2: 0.406  GM3: 0.0800  RAES: 1.40
     1s    -10.707211    1.230000
  6     Wed Apr 25 08:07:45 CEST 2018   EN: 2.550 GM2: 0.538  GM3: 0.1500  RAES: 3.00
     2s    -13.970922    2.096432
     2p    -10.063292    1.800000
  7     Wed Apr 25 08:07:45 CEST 2018   EN: 3.040 GM2: 0.461  GM3:-0.0640  RAES: 1.90
     2s    -16.686243    2.339881
     2p    -12.523956    2.014332
  8     Wed Apr 25 08:07:45 CEST 2018   EN: 3.440 GM2: 0.452  GM3:-0.0517  RAES: 1.80
     2s    -20.229985    2.439742
     2p    -15.503117    2.137023
 16     Tue Apr 24 11:44:34 CEST 2018   EN: 2.580 GM2: 0.340  GM3:-0.0502  RAES: 3.10
     3s    -20.029654    1.981333
     3p    -11.377694    2.025643
     3d     -0.420282    1.702555

 Solvent             : water
 Using internal parameter file: .param_gbsa2_water
 Gsolv ref. state (COSMO-RS): gsolv [1 M gas/solution]
 temperature (mdtemp)       :    298.14999999999998     
 dielectric constant        :    80.200000000000003     
 rho                        :    1.0000000000000000     
 mass                       :    18.000000000000000     
 surface tension            :    15.568945408385856     
 probe radius               :   0.97531378999999996     
 Gshift (Eh)                :    1.8574431267947933E-003
 c1                         :    1.5524381700000001     
 soset                      :   0.13032636000000000     
 HB correction              :  T
           ------------------------------------------------- 
          |        Self-Consistent Charge Iterations        |
           ------------------------------------------------- 

          ...................................................
          :                      SETUP                      :
          :.................................................:
          :  # basis functions                6511          :
          :  # atomic orbitals                6505          :
          :  # shells                         3899          :
          :  # electrons                      7192          :
          :  max. iterations                   250          :
          :  Hamiltonian                  GFN2-xTB          :
          :  restarted?                      false          :
          :  GBSA solvation                   true          :
          :  PC potential                    false          :
          :  electronic temp.          300.0000000     K    :
          :  accuracy                    1.0000000          :
          :  -> integral cutoff          0.2500000E+02      :
          :  -> integral neglect         0.1000000E-07      :
          :  -> SCF convergence          0.1000000E-05 Eh   :
          :  -> wf. convergence          0.1000000E-03 e    :
          :  Broyden damping             0.4000000          :
          ...................................................

 iter      E             dE          RMSdq      gap      omega  full diag
   1  -4120.6826257 -0.412068E+04  0.427E+00    2.35       0.0  T
   2  -4132.8527562 -0.121701E+02  0.226E+00    2.17       1.0  T
   3  -4133.3262654 -0.473509E+00  0.119E+00    2.44       1.0  T
   4  -4133.3928349 -0.665696E-01  0.288E-01    2.01       1.0  T
   5  -4133.4933310 -0.100496E+00  0.145E-01    2.17       1.0  T
   6  -4133.5092456 -0.159146E-01  0.761E-02    2.09       1.0  T
   7  -4133.5121749 -0.292935E-02  0.397E-02    2.07       1.0  T
   8  -4133.5134194 -0.124449E-02  0.174E-02    2.04       1.0  T
   9  -4133.5136249 -0.205538E-03  0.106E-02    2.04       1.0  T
  10  -4133.5137250 -0.100023E-03  0.561E-03    2.03       1.0  T
  11  -4133.5137533 -0.283538E-04  0.286E-03    2.03       1.0  T
  12  -4133.5137613 -0.802185E-05  0.161E-03    2.03       1.2  T
  13  -4133.5137639 -0.257369E-05  0.900E-04    2.03       2.2  T
  14  -4133.5137647 -0.780997E-06  0.460E-04    2.03       4.3  T
  15  -4133.5137649 -0.213944E-06  0.233E-04    2.03       8.4  T

   *** convergence criteria satisfied after 15 iterations ***

         #    Occupation            Energy/Eh            Energy/eV
      -------------------------------------------------------------
         1        2.0000           -0.7534556             -20.5026
       ...           ...                  ...                  ...
      3590        2.0000           -0.3632076              -9.8834
      3591        2.0000           -0.3611557              -9.8275
      3592        2.0000           -0.3598387              -9.7917
      3593        2.0000           -0.3574067              -9.7255
      3594        2.0000           -0.3556089              -9.6766
      3595        2.0000           -0.3534940              -9.6191
      3596        2.0000           -0.3519450              -9.5769 (HOMO)
      3597                         -0.2773140              -7.5461 (LUMO)
      3598                         -0.2773037              -7.5458
      3599                         -0.2760220              -7.5109
      3600                         -0.2721137              -7.4046
      3601                         -0.2718376              -7.3971
       ...                                ...                  ...
      6505                          0.7863113              21.3966
      -------------------------------------------------------------
                  HL-Gap            0.0746310 Eh            2.0308 eV
             Fermi-level           -0.3146295 Eh           -8.5615 eV

 SCC (total)                   0 d,  0 h,  6 min, 39.595 sec
 SCC setup                      ...        0 min,  3.109 sec (  0.778%)
 Dispersion                     ...        0 min,  1.990 sec (  0.498%)
 integral evaluation            ...        0 min, 11.896 sec (  2.977%)
 zeroth order Hamiltonian       ...        0 min,  0.341 sec (  0.085%)
 iterations                     ...        6 min,  4.542 sec ( 91.228%)
 molecular gradient             ...        0 min, 17.136 sec (  4.288%)
 printout                       ...        0 min,  0.580 sec (  0.145%)

         :::::::::::::::::::::::::::::::::::::::::::::::::::::
         ::                     SUMMARY                     ::
         :::::::::::::::::::::::::::::::::::::::::::::::::::::
         :: total energy           -4085.442870759718 Eh    ::
         :: total w/o Gsasa/hb     -4085.040146346621 Eh    ::
         :: gradient norm              1.253865759439 Eh/a0 ::
         :: HOMO-LUMO gap              2.030812084319 eV    ::
         ::.................................................::
         :: SCC energy             -4133.579061516853 Eh    ::
         :: -> isotropic ES           14.030433697642 Eh    ::
         :: -> anisotropic ES         -0.750258648088 Eh    ::
         :: -> anisotropic XC          1.158614764976 Eh    ::
         :: -> dispersion             -3.891595391932 Eh    ::
         :: -> Gsolv                  -3.994866287573 Eh    ::
         ::    -> Gborn               -3.592141874476 Eh    ::
         ::    -> Gsasa               -0.067154061113 Eh    ::
         ::    -> Ghb                 -0.337427795112 Eh    ::
         ::    -> Gshift               0.001857443127 Eh    ::
         :: repulsion energy          47.603339199718 Eh    ::
         :: add. restraining           0.000000000000 Eh    ::
         :::::::::::::::::::::::::::::::::::::::::::::::::::::

           -------------------------------------------------
          |                Property Printout                |
           -------------------------------------------------

    * Orbital Energies and Occupations

         #    Occupation            Energy/Eh            Energy/eV
      -------------------------------------------------------------
         1        2.0000           -0.7534556             -20.5026
       ...           ...                  ...                  ...
      3584        2.0000           -0.3691531             -10.0452
      3585        2.0000           -0.3675576             -10.0018
      3586        2.0000           -0.3673529              -9.9962
      3587        2.0000           -0.3660394              -9.9604
      3588        2.0000           -0.3643257              -9.9138
      3589        2.0000           -0.3636423              -9.8952
      3590        2.0000           -0.3632076              -9.8834
      3591        2.0000           -0.3611557              -9.8275
      3592        2.0000           -0.3598387              -9.7917
      3593        2.0000           -0.3574067              -9.7255
      3594        2.0000           -0.3556089              -9.6766
      3595        2.0000           -0.3534940              -9.6191
      3596        2.0000           -0.3519450              -9.5769 (HOMO)
      3597                         -0.2773140              -7.5461 (LUMO)
      3598                         -0.2773037              -7.5458
      3599                         -0.2760220              -7.5109
      3600                         -0.2721137              -7.4046
      3601                         -0.2718376              -7.3971
      3602                         -0.2695288              -7.3343
      3603                         -0.2649444              -7.2095
      3604                         -0.2647173              -7.2033
      3605                         -0.2641410              -7.1876
      3606                         -0.2627357              -7.1494
      3607                         -0.2625430              -7.1442
       ...                                ...                  ...
      6505                          0.7863113              21.3966
      -------------------------------------------------------------
                  HL-Gap            0.0746310 Eh            2.0308 eV
             Fermi-level           -0.3146295 Eh           -8.5615 eV

     #   Z        covCN         q      C6AA      α(0)
     1   7 N      3.487    -0.144    24.110     7.293
     2   1 H      0.860     0.317     0.666     1.278
     3   1 H      0.860     0.293     0.734     1.342
     4   1 H      0.860     0.309     0.687     1.299
     5   6 C      3.782    -0.018    20.911     6.514
     6   1 H      0.925     0.107     1.727     2.055
     7   6 C      3.796    -0.095    22.316     6.727
     8   1 H      0.924     0.094     1.838     2.120
     9   1 H      0.925     0.091     1.873     2.140
    10   6 C      3.782    -0.031    21.143     6.550
    11   1 H      0.925     0.076     2.017     2.221
    12   1 H      0.925     0.064     2.156     2.296
    13  16 S      1.945    -0.191   149.151    20.555
    14   6 C      3.743    -0.066    21.835     6.666
    15   1 H      0.925     0.049     2.337     2.391
    16   1 H      0.925     0.066     2.134     2.285
    17   1 H      0.925     0.060     2.196     2.317
    18   6 C      2.746     0.278    22.304     7.733
    19   8 O      0.866    -0.453    22.763     6.397
    20   7 N      2.698    -0.166    24.595     7.366
    21   1 H      0.861     0.204     1.085     1.632
    22   6 C      3.795     0.016    20.319     6.419
    23   1 H      0.925     0.106     1.731     2.058
    24   6 C      3.829    -0.109    22.550     6.757
    25   1 H      0.925     0.060     2.195     2.317
    26   1 H      0.925     0.099     1.794     2.095
    27   6 C      2.742     0.286    22.153     7.706
    28   8 O      0.866    -0.475    23.232     6.463
    29   7 N      2.647    -0.283    27.305     7.761
    30   1 H      0.860     0.248     0.891     1.479
    31   1 H      0.860     0.216     1.026     1.586
    32   6 C      2.767     0.281    22.247     7.724
    33   8 O      0.866    -0.475    23.232     6.462
    34   7 N      2.683    -0.179    24.888     7.409
    35   1 H      0.860     0.223     0.995     1.563
    36   6 C      3.781    -0.003    20.658     6.475
    37   1 H      0.925     0.101     1.779     2.086
    38   6 C      3.852    -0.032    21.113     6.535
    39   1 H      0.925     0.072     2.065     2.247
    40   6 C      3.757    -0.127    22.996     6.837
    41   1 H      0.925     0.057     2.230     2.335
    42   1 H      0.924     0.026     2.638     2.540
    43   1 H      0.925     0.056     2.242     2.341
    44   6 C      3.795    -0.074    21.920     6.667
    45   1 H      0.924     0.042     2.426     2.436
    46   1 H      0.925     0.061     2.187     2.313
    47   6 C      3.744    -0.116    22.799     6.812
    48   1 H      0.925     0.056     2.248     2.345
    49   1 H      0.925     0.041     2.440     2.443
    50   1 H      0.925     0.043     2.412     2.429
    51   6 C      2.741     0.276    22.335     7.738
    52   8 O      0.859    -0.470    23.126     6.448
    53   7 N      2.680    -0.194    25.216     7.458
    54   1 H      0.860     0.202     1.097     1.641
    55   6 C      3.777     0.021    20.242     6.410
    56   1 H      0.924     0.085     1.928     2.172
    57   6 C      3.802    -0.078    21.995     6.677
    58   1 H      0.925     0.049     2.334     2.389
    59   1 H      0.925     0.066     2.132     2.283
    60   6 C      2.952     0.005    27.918     8.666
    61   6 C      2.898    -0.038    28.939     8.820
    62   1 H      0.926     0.037     2.491     2.468
    63   6 C      2.907    -0.028    28.697     8.784
    64   1 H      0.926     0.049     2.330     2.387
    65   6 C      2.901    -0.031    28.780     8.796
    66   1 H      0.926     0.051     2.305     2.374
    67   6 C      2.910    -0.033    28.820     8.803
    68   1 H      0.926     0.029     2.602     2.522
    69   6 C      2.907    -0.041    29.027     8.834
    70   1 H      0.926     0.035     2.519     2.482
    71   6 C      2.744     0.262    22.585     7.781
    72   8 O      0.865    -0.502    23.818     6.543
    73   7 N      2.698    -0.152    24.283     7.319
    74   1 H      0.860     0.202     1.097     1.641
    75   6 C      3.779     0.011    20.412     6.437
    76   1 H      0.925     0.105     1.740     2.063
    77   6 C      3.799    -0.063    21.710     6.634
    78   1 H      0.925     0.064     2.158     2.297
    79   1 H      0.925     0.053     2.278     2.360
    80   6 C      3.802    -0.094    22.284     6.721
    81   1 H      0.925     0.012     2.861     2.645
    82   1 H      0.925     0.038     2.482     2.463
    83   6 C      2.687     0.370    20.726     7.451
    84   8 O      0.859    -0.638    27.063     6.975
    85   8 O      0.857    -0.664    27.757     7.064
    86   6 C      2.742     0.259    22.634     7.790
    87   8 O      0.859    -0.509    23.978     6.565
    88   7 N      2.681    -0.180    24.909     7.412
    89   1 H      0.860     0.240     0.924     1.506
    90   6 C      3.779     0.014    20.363     6.429
    91   1 H      0.925     0.093     1.848     2.126
    92   6 C      3.900    -0.087    22.099     6.682
    93   1 H      0.925     0.067     2.116     2.275
    94   1 H      0.925     0.087     1.909     2.161
    95   6 C      3.790    -0.013    20.822     6.499
    96   1 H      0.925     0.052     2.290     2.366
    97   1 H      0.926     0.037     2.492     2.468
    98  16 S      2.047    -0.173   148.361    20.500
    99   6 C      3.740    -0.080    22.108     6.709
   100   1 H      0.925     0.061     2.187     2.313
   101   1 H      0.925     0.061     2.193     2.316
   102   1 H      0.925     0.075     2.031     2.229
   103   6 C      2.769     0.264    22.547     7.777
   104   8 O      0.859    -0.492    23.618     6.516
   105   7 N      2.685    -0.162    24.502     7.352
   106   1 H      0.860     0.225     0.986     1.555
   107   6 C      3.796     0.013    20.366     6.426
   108   1 H      0.925     0.089     1.891     2.150
   109   6 C      3.811    -0.075    21.927     6.665
   110   1 H      0.925     0.066     2.136     2.285
   111   1 H      0.925     0.067     2.123     2.278
   112   6 C      3.852    -0.013    20.775     6.483
   113   1 H      0.925     0.062     2.174     2.306
   114   6 C      3.775    -0.114    22.707     6.789
   115   1 H      0.925     0.035     2.512     2.478
   116   1 H      0.925     0.043     2.415     2.430
   117   1 H      0.925     0.040     2.450     2.448
   118   6 C      3.761    -0.113    22.713     6.794
   119   1 H      0.925     0.030     2.593     2.518
   120   1 H      0.925     0.039     2.462     2.454
   121   1 H      0.925     0.045     2.382     2.414
   122   6 C      2.748     0.254    22.735     7.807
   123   8 O      0.857    -0.492    23.611     6.515
   124   7 N      2.687    -0.169    24.664     7.376
   125   1 H      0.860     0.194     1.135     1.669
   126   6 C      3.801     0.022    20.202     6.399
   127   1 H      0.924     0.089     1.890     2.150
   128   6 C      3.804    -0.087    22.150     6.700
   129   1 H      0.925     0.066     2.126     2.280
   130   1 H      0.924     0.081     1.969     2.194
   131   6 C      3.800    -0.087    22.160     6.702
   132   1 H      0.924     0.086     1.916     2.165
   133   1 H      0.925     0.086     1.921     2.168
   134   6 C      3.735    -0.034    21.277     6.583
   135   1 H      0.924     0.088     1.903     2.157
   136   1 H      0.924     0.110     1.700     2.039
   137   7 N      2.708    -0.132    23.866     7.256
   138   1 H      0.860     0.211     1.053     1.608
   139   6 C      2.733     0.234    23.101     7.869
   140   7 N      2.672    -0.247    26.429     7.635
   141   1 H      0.860     0.253     0.870     1.461
   142   1 H      0.860     0.264     0.832     1.429
   143   7 N      2.657    -0.274    27.083     7.729
   144   1 H      0.860     0.249     0.888     1.477
   145   1 H      0.860     0.223     0.998     1.565
   146   6 C      2.754     0.283    22.204     7.716
   147   8 O      0.867    -0.482    23.387     6.484
   148   7 N      2.691    -0.187    25.064     7.436
   149   1 H      0.860     0.207     1.069     1.620
   150   6 C      3.794     0.010    20.421     6.435
   151   1 H      0.924     0.094     1.842     2.123
   152   6 C      3.852    -0.024    20.960     6.512
   153   1 H      0.925     0.052     2.296     2.370
   154   6 C      3.753    -0.126    22.969     6.834
   155   1 H      0.924     0.058     2.219     2.329
   156   1 H      0.925     0.055     2.263     2.353
   157   1 H      0.925     0.057     2.239     2.340
   158   6 C      3.790    -0.064    21.735     6.640
   159   1 H      0.925     0.032     2.562     2.503
   160   1 H      0.924     0.052     2.292     2.368
   161   6 C      3.746    -0.105    22.580     6.778
   162   1 H      0.925     0.046     2.368     2.406
   163   1 H      0.925     0.035     2.516     2.480
   164   1 H      0.924     0.025     2.664     2.552
   165   6 C      2.759     0.267    22.490     7.766
   166   8 O      0.861    -0.513    24.069     6.578
   167   7 N      2.698    -0.197    25.274     7.467
   168   1 H      0.860     0.224     0.992     1.560
   169   6 C      3.807     0.035    19.980     6.363
   170   1 H      0.924     0.088     1.902     2.157
   171   6 C      3.819    -0.098    22.344     6.727
   172   1 H      0.924     0.028     2.613     2.528
   173   1 H      0.924     0.069     2.091     2.262
   174   6 C      2.687     0.355    20.975     7.495
   175   8 O      0.856    -0.553    25.003     6.704
   176   8 O      0.856    -0.613    26.429     6.893
   177   6 C      2.760     0.272    22.397     7.750
   178   8 O      0.859    -0.484    23.422     6.489
   179   7 N      2.686    -0.192    25.167     7.451
   180   1 H      0.860     0.208     1.068     1.619
   181   6 C      3.784     0.022    20.215     6.404
   182   1 H      0.925     0.082     1.955     2.186
   183   6 C      3.802    -0.056    21.585     6.615
   184   1 H      0.925     0.052     2.295     2.369
   185   1 H      0.925     0.028     2.612     2.527
   186   6 C      3.800    -0.089    22.198     6.708
   187   1 H      0.925     0.022     2.701     2.570
   188   1 H      0.925     0.028     2.621     2.532
   189   6 C      2.686     0.362    20.863     7.475
   190   8 O      0.856    -0.648    27.334     7.010
   191   8 O      0.856    -0.629    26.845     6.947
   192   6 C      2.735     0.271    22.428     7.754
   193   8 O      0.857    -0.460    22.909     6.417
   194   7 N      2.677    -0.197    25.285     7.468
   195   1 H      0.860     0.213     1.041     1.599
   196   6 C      3.742    -0.045    21.454     6.608
   197   1 H      0.925     0.115     1.658     2.014
   198   1 H      0.924     0.099     1.798     2.097
   199   6 C      2.755     0.267    22.491     7.766
   200   8 O      0.859    -0.491    23.575     6.510
   201   7 N      2.706    -0.159    24.445     7.343
   202   1 H      0.860     0.217     1.024     1.585
   203   6 C      3.793     0.018    20.281     6.413
   204   1 H      0.925     0.080     1.983     2.202
   205   6 C      3.815    -0.091    22.221     6.709
   206   1 H      0.925     0.074     2.041     2.234
   207   1 H      0.924     0.065     2.140     2.288
   208   6 C      3.850    -0.026    20.998     6.518
   209   1 H      0.924     0.049     2.332     2.388
   210   6 C      3.750    -0.132    23.103     6.855
   211   1 H      0.924     0.039     2.468     2.457
   212   1 H      0.924     0.030     2.591     2.517
   213   1 H      0.924     0.052     2.297     2.370
   214   6 C      3.761    -0.131    23.068     6.847
   215   1 H      0.924     0.049     2.332     2.388
   216   1 H      0.925     0.068     2.109     2.271
   217   1 H      0.924     0.046     2.375     2.410
   218   6 C      2.745     0.261    22.593     7.783
   219   8 O      0.860    -0.471    23.141     6.450
   220   7 N      2.684    -0.171    24.695     7.381
   221   1 H      0.860     0.192     1.147     1.678
   222   6 C      3.786     0.020    20.258     6.411
   223   1 H      0.924     0.086     1.916     2.165
   224   6 C      3.801    -0.079    22.017     6.681
   225   1 H      0.925     0.079     1.986     2.204
   226   1 H      0.925     0.057     2.239     2.340
   227   6 C      3.806    -0.091    22.231     6.712
   228   1 H      0.925     0.072     2.068     2.249
   229   1 H      0.925     0.089     1.886     2.148
   230   6 C      3.749    -0.031    21.193     6.566
   231   1 H      0.925     0.102     1.769     2.080
   232   1 H      0.925     0.092     1.859     2.132
   233   7 N      2.724    -0.118    23.567     7.210
   234   1 H      0.860     0.217     1.024     1.585
   235   6 C      2.746     0.234    23.098     7.869
   236   7 N      2.675    -0.255    26.619     7.663
   237   1 H      0.860     0.255     0.863     1.455
   238   1 H      0.860     0.261     0.843     1.438
   239   7 N      2.691    -0.255    26.625     7.664
   240   1 H      0.860     0.230     0.967     1.540
   241   1 H      0.860     0.205     1.082     1.629
   242   6 C      2.749     0.256    22.693     7.800
   243   8 O      0.858    -0.481    23.375     6.482
   244   7 N      2.687    -0.164    24.545     7.358
   245   1 H      0.860     0.216     1.028     1.588
   246   6 C      3.781     0.008    20.470     6.445
   247   1 H      0.924     0.089     1.884     2.147
   248   6 C      3.804    -0.089    22.193     6.707
   249   1 H      0.925     0.076     2.023     2.224
   250   1 H      0.925     0.062     2.176     2.307
   251   6 C      3.849    -0.022    20.932     6.508
   252   1 H      0.925     0.037     2.492     2.469
   253   6 C      3.770    -0.124    22.910     6.821
   254   1 H      0.925     0.036     2.502     2.474
   255   1 H      0.925     0.058     2.219     2.329
   256   1 H      0.925     0.054     2.272     2.357
   257   6 C      3.753    -0.122    22.905     6.825
   258   1 H      0.925     0.035     2.519     2.482
   259   1 H      0.925     0.036     2.508     2.476
   260   1 H      0.924     0.048     2.342     2.393
   261   6 C      2.737     0.272    22.393     7.748
   262   8 O      0.859    -0.471    23.160     6.452
   263   7 N      2.680    -0.177    24.834     7.401
   264   1 H      0.860     0.203     1.093     1.637
   265   6 C      3.782     0.004    20.530     6.454
   266   1 H      0.924     0.089     1.891     2.151
   267   6 C      3.803    -0.078    21.990     6.676
   268   1 H      0.925     0.061     2.189     2.314
   269   1 H      0.924     0.067     2.114     2.273
   270   6 C      3.805    -0.087    22.158     6.701
   271   1 H      0.925     0.069     2.102     2.267
   272   1 H      0.924     0.058     2.222     2.331
   273   6 C      3.804    -0.106    22.528     6.757
   274   1 H      0.925     0.079     1.993     2.208
   275   1 H      0.924     0.077     2.009     2.217
   276   6 C      3.732    -0.072    21.967     6.690
   277   1 H      0.924     0.133     1.510     1.922
   278   1 H      0.925     0.139     1.466     1.894
   279   7 N      3.489    -0.142    24.056     7.285
   280   1 H      0.860     0.312     0.679     1.291
   281   1 H      0.860     0.293     0.734     1.342
   282   1 H      0.860     0.299     0.715     1.325
   283   6 C      2.753     0.273    22.392     7.749
   284   8 O      0.859    -0.507    23.929     6.558
   285   7 N      2.681    -0.184    24.982     7.423
   286   1 H      0.860     0.240     0.921     1.503
   287   6 C      3.783     0.005    20.515     6.452
   288   1 H      0.924     0.068     2.106     2.269
   289   6 C      3.855    -0.035    21.169     6.544
   290   1 H      0.925     0.080     1.975     2.198
   291   6 C      3.755    -0.131    23.070     6.849
   292   1 H      0.925     0.036     2.507     2.476
   293   1 H      0.925     0.042     2.424     2.435
   294   1 H      0.924     0.083     1.950     2.184
   295   6 C      3.808    -0.078    21.986     6.675
   296   1 H      0.925     0.053     2.288     2.365
   297   1 H      0.924     0.029     2.599     2.521
   298   6 C      3.753    -0.134    23.135     6.859
   299   1 H      0.925     0.055     2.262     2.352
   300   1 H      0.925     0.070     2.087     2.259
   301   1 H      0.925     0.041     2.441     2.443
   302   6 C      2.750     0.272    22.395     7.749
   303   8 O      0.860    -0.486    23.483     6.497
   304   7 N      2.694    -0.161    24.478     7.348
   305   1 H      0.860     0.213     1.040     1.597
   306   6 C      3.797     0.006    20.479     6.444
   307   1 H      0.925     0.108     1.710     2.045
   308   6 C      3.802    -0.100    22.398     6.738
   309   1 H      0.924     0.102     1.767     2.078
   310   1 H      0.924     0.082     1.957     2.188
   311   6 C      2.952    -0.003    28.102     8.695
   312   6 C      2.921    -0.050    29.245     8.868
   313   1 H      0.926     0.050     2.320     2.382
   314   6 C      2.907    -0.082    30.043     8.988
   315   1 H      0.926     0.010     2.894     2.660
   316   6 C      2.832     0.136    25.026     8.198
   317   8 O      1.659    -0.430    21.439     6.251
   318   1 H      0.806     0.307     0.700     1.314
   319   6 C      2.908    -0.069    29.717     8.939
   320   1 H      0.926     0.045     2.389     2.417
   321   6 C      2.925    -0.044    29.091     8.845
   322   1 H      0.926     0.082     1.954     2.186
   323   6 C      2.758     0.277    22.321     7.737
   324   8 O      0.865    -0.513    24.061     6.577
   325   7 N      2.698    -0.158    24.420     7.339
   326   1 H      0.860     0.228     0.976     1.547
   327   6 C      3.804     0.017    20.288     6.412
   328   1 H      0.925     0.079     1.986     2.204
   329   6 C      3.811    -0.081    22.041     6.683
   330   1 H      0.924     0.047     2.351     2.398
   331   1 H      0.925     0.079     1.986     2.204
   332   6 C      3.801    -0.087    22.151     6.701
   333   1 H      0.924     0.087     1.908     2.160
   334   1 H      0.925     0.051     2.310     2.377
   335   6 C      3.801    -0.100    22.414     6.740
   336   1 H      0.925     0.076     2.022     2.224
   337   1 H      0.924     0.087     1.908     2.160
   338   6 C      3.734    -0.054    21.632     6.638
   339   1 H      0.925     0.126     1.563     1.955
   340   1 H      0.925     0.111     1.685     2.030
   341   7 N      3.489    -0.140    24.014     7.278
   342   1 H      0.860     0.291     0.742     1.349
   343   1 H      0.860     0.302     0.706     1.316
   344   1 H      0.860     0.302     0.709     1.319
   345   6 C      2.753     0.287    22.138     7.705
   346   8 O      0.862    -0.510    24.003     6.569
   347   7 N      2.686    -0.187    25.051     7.434
   348   1 H      0.860     0.225     0.988     1.557
   349   6 C      3.773     0.040    19.926     6.361
   350   1 H      0.924     0.059     2.213     2.326
   351   6 C      3.798    -0.105    22.504     6.754
   352   1 H      0.924     0.035     2.511     2.478
   353   1 H      0.925     0.030     2.582     2.513
   354   6 C      2.686     0.392    20.371     7.386
   355   8 O      0.859    -0.627    26.798     6.941
   356   8 O      0.859    -0.642    27.168     6.988
   357   6 C      2.737     0.271    22.423     7.753
   358   8 O      0.861    -0.460    22.916     6.418
   359   7 N      2.681    -0.215    25.698     7.529
   360   1 H      0.860     0.179     1.219     1.730
   361   6 C      3.783     0.018    20.284     6.415
   362   1 H      0.925     0.101     1.780     2.086
   363   6 C      3.732     0.131    18.539     6.146
   364   1 H      0.925     0.001     3.049     2.731
   365   6 C      3.758    -0.129    23.037     6.843
   366   1 H      0.925     0.085     1.931     2.173
   367   1 H      0.924     0.035     2.521     2.483
   368   1 H      0.925     0.062     2.181     2.310
   369   8 O      1.665    -0.458    22.007     6.333
   370   1 H      0.806     0.349     0.591     1.207
   371   6 C      2.747     0.277    22.322     7.736
   372   8 O      0.860    -0.480    23.340     6.477
   373   7 N      2.682    -0.196    25.246     7.462
   374   1 H      0.860     0.195     1.134     1.668
   375   6 C      3.783     0.038    19.961     6.364
   376   1 H      0.924     0.077     2.006     2.215
   377   6 C      3.804    -0.044    21.365     6.580
   378   1 H      0.925     0.030     2.580     2.512
   379   1 H      0.925     0.054     2.269     2.356
   380   6 C      3.802    -0.092    22.249     6.716
   381   1 H      0.925     0.050     2.324     2.384
   382   1 H      0.925     0.049     2.331     2.388
   383   6 C      2.687     0.364    20.827     7.469
   384   8 O      0.857    -0.589    25.846     6.816
   385   8 O      0.856    -0.614    26.465     6.897
   386   6 C      2.748     0.263    22.557     7.777
   387   8 O      0.857    -0.492    23.618     6.516
   388   7 N      2.682    -0.168    24.645     7.373
   389   1 H      0.860     0.180     1.211     1.724
   390   6 C      3.738    -0.030    21.183     6.568
   391   1 H      0.925     0.122     1.598     1.977
   392   1 H      0.925     0.102     1.766     2.078
   393   6 C      2.744     0.265    22.531     7.772
   394   8 O      0.863    -0.440    22.487     6.358
   395   7 N      2.692    -0.161    24.492     7.350
   396   1 H      0.860     0.166     1.298     1.785
   397   6 C      3.793     0.029    20.095     6.384
   398   1 H      0.924     0.091     1.873     2.140
   399   6 C      3.814    -0.074    21.895     6.660
   400   1 H      0.924     0.078     2.003     2.213
   401   1 H      0.924     0.046     2.373     2.409
   402   6 C      2.957    -0.006    28.180     8.707
   403   6 C      2.909    -0.048    29.180     8.858
   404   1 H      0.925     0.039     2.461     2.453
   405   6 C      2.906    -0.057    29.426     8.895
   406   1 H      0.926     0.064     2.157     2.297
   407   6 C      2.832     0.136    25.013     8.196
   408   8 O      1.656    -0.444    21.721     6.292
   409   1 H      0.805     0.344     0.602     1.219
   410   6 C      2.905    -0.068    29.684     8.934
   411   1 H      0.926     0.061     2.191     2.315
   412   6 C      2.905    -0.045    29.118     8.848
   413   1 H      0.926     0.058     2.225     2.333
   414   6 C      2.754     0.267    22.486     7.765
   415   8 O      0.858    -0.519    24.219     6.598
   416   7 N      2.681    -0.159    24.439     7.342
   417   1 H      0.860     0.232     0.956     1.531
   418   6 C      3.793     0.012    20.378     6.428
   419   1 H      0.925     0.087     1.913     2.163
   420   6 C      3.821    -0.082    22.047     6.682
   421   1 H      0.925     0.083     1.948     2.183
   422   1 H      0.925     0.062     2.177     2.308
   423   6 C      2.958    -0.008    28.218     8.713
   424   6 C      2.907    -0.049    29.218     8.863
   425   1 H      0.926     0.043     2.405     2.425
   426   6 C      2.903    -0.060    29.479     8.903
   427   1 H      0.926     0.037     2.489     2.467
   428   6 C      2.831     0.135    25.050     8.202
   429   8 O      1.654    -0.437    21.571     6.270
   430   1 H      0.805     0.330     0.638     1.255
   431   6 C      2.904    -0.063    29.569     8.916
   432   1 H      0.926     0.089     1.893     2.152
   433   6 C      2.908    -0.048    29.196     8.860
   434   1 H      0.926     0.057     2.232     2.336
   435   6 C      2.758     0.281    22.238     7.722
   436   8 O      0.859    -0.475    23.238     6.463
   437   7 N      2.695    -0.195    25.236     7.461
   438   1 H      0.860     0.250     0.882     1.471
   439   6 C      3.787     0.008    20.452     6.441
   440   1 H      0.924     0.063     2.160     2.299
   441   6 C      3.727     0.126    18.630     6.162
   442   1 H      0.925     0.015     2.810     2.622
   443   6 C      3.748    -0.118    22.826     6.814
   444   1 H      0.924     0.040     2.453     2.449
   445   1 H      0.925     0.060     2.195     2.317
   446   1 H      0.925     0.040     2.445     2.445
   447   8 O      1.657    -0.490    22.684     6.429
   448   1 H      0.806     0.329     0.639     1.256
   449   6 C      2.747     0.263    22.558     7.777
   450   8 O      0.865    -0.445    22.590     6.373
   451   7 N      2.690    -0.167    24.616     7.369
   452   1 H      0.860     0.194     1.139     1.672
   453   6 C      3.780     0.007    20.487     6.448
   454   1 H      0.925     0.095     1.832     2.117
   455   6 C      3.843    -0.028    21.041     6.525
   456   1 H      0.924     0.070     2.091     2.261
   457   6 C      3.755    -0.128    23.013     6.840
   458   1 H      0.924     0.058     2.224     2.332
   459   1 H      0.924     0.057     2.238     2.340
   460   1 H      0.925     0.031     2.577     2.510
   461   6 C      3.795    -0.079    22.014     6.681
   462   1 H      0.925     0.042     2.424     2.435
   463   1 H      0.925     0.068     2.112     2.273
   464   6 C      3.745    -0.121    22.890     6.825
   465   1 H      0.925     0.047     2.363     2.404
   466   1 H      0.925     0.057     2.236     2.338
   467   1 H      0.925     0.044     2.391     2.418
   468   6 C      2.746     0.277    22.306     7.733
   469   8 O      0.860    -0.507    23.933     6.559
   470   7 N      2.684    -0.168    24.629     7.371
   471   1 H      0.860     0.239     0.926     1.507
   472   6 C      3.741    -0.021    21.027     6.542
   473   1 H      0.925     0.062     2.179     2.309
   474   1 H      0.924     0.110     1.700     2.039
   475   6 C      2.755     0.270    22.434     7.756
   476   8 O      0.860    -0.481    23.375     6.482
   477   7 N      2.690    -0.175    24.787     7.394
   478   1 H      0.860     0.197     1.123     1.660
   479   6 C      3.811     0.021    20.206     6.398
   480   1 H      0.925     0.074     2.045     2.236
   481   6 C      3.855    -0.012    20.747     6.478
   482   1 H      0.925     0.037     2.490     2.468
   483   6 C      3.774    -0.121    22.848     6.811
   484   1 H      0.924     0.068     2.110     2.272
   485   1 H      0.925     0.016     2.797     2.616
   486   1 H      0.925     0.055     2.263     2.353
   487   6 C      3.794    -0.065    21.759     6.642
   488   1 H      0.924     0.032     2.559     2.501
   489   1 H      0.925     0.064     2.150     2.293
   490   6 C      3.742    -0.107    22.631     6.787
   491   1 H      0.925     0.034     2.527     2.486
   492   1 H      0.924     0.053     2.280     2.361
   493   1 H      0.925     0.039     2.462     2.454
   494   6 C      2.751     0.274    22.372     7.745
   495   8 O      0.865    -0.480    23.347     6.478
   496   7 N      2.690    -0.168    24.625     7.370
   497   1 H      0.860     0.191     1.152     1.681
   498   6 C      3.724    -0.027    21.168     6.570
   499   1 H      0.924     0.091     1.865     2.136
   500   1 H      0.925     0.085     1.925     2.170
   501   6 C      2.737     0.264    22.554     7.776
   502   8 O      0.859    -0.498    23.742     6.533
   503   7 N      2.689    -0.150    24.246     7.313
   504   1 H      0.860     0.219     1.014     1.577
   505   6 C      3.791     0.017    20.306     6.417
   506   1 H      0.925     0.072     2.066     2.248
   507   6 C      3.803    -0.089    22.201     6.708
   508   1 H      0.925     0.121     1.607     1.982
   509   1 H      0.924     0.101     1.778     2.086
   510   6 C      3.109     0.040    26.970     8.508
   511   7 N      2.766    -0.026    21.747     6.926
   512   1 H      0.860     0.265     0.828     1.426
   513   6 C      3.112     0.063    26.443     8.424
   514   1 H      0.926     0.136     1.490     1.909
   515   7 N      2.770    -0.016    21.563     6.897
   516   1 H      0.860     0.271     0.806     1.406
   517   6 C      3.054    -0.014    28.300     8.724
   518   1 H      0.926     0.123     1.593     1.974
   519   6 C      2.752     0.265    22.531     7.773
   520   8 O      0.857    -0.447    22.634     6.379
   521   7 N      2.696    -0.163    24.536     7.357
   522   1 H      0.860     0.210     1.059     1.612
   523   6 C      3.790     0.027    20.127     6.389
   524   1 H      0.925     0.047     2.352     2.399
   525   6 C      3.797    -0.084    22.112     6.696
   526   1 H      0.924     0.060     2.193     2.316
   527   1 H      0.925     0.062     2.178     2.308
   528   6 C      3.843    -0.017    20.842     6.494
   529   1 H      0.925     0.037     2.487     2.466
   530   6 C      3.764    -0.122    22.889     6.819
   531   1 H      0.925     0.037     2.487     2.466
   532   1 H      0.924     0.029     2.606     2.525
   533   1 H      0.925     0.063     2.159     2.298
   534   6 C      3.767    -0.130    23.034     6.840
   535   1 H      0.925     0.050     2.315     2.379
   536   1 H      0.925     0.068     2.111     2.272
   537   1 H      0.925     0.042     2.419     2.432
   538   6 C      2.749     0.273    22.381     7.746
   539   8 O      0.859    -0.492    23.610     6.515
   540   7 N      2.687    -0.172    24.729     7.386
   541   1 H      0.860     0.214     1.036     1.595
   542   6 C      3.793     0.021    20.226     6.404
   543   1 H      0.924     0.092     1.855     2.130
   544   6 C      3.816    -0.077    21.964     6.670
   545   1 H      0.925     0.047     2.356     2.400
   546   1 H      0.925     0.050     2.324     2.384
   547   6 C      3.844    -0.012    20.755     6.481
   548   1 H      0.925     0.037     2.487     2.466
   549   6 C      3.772    -0.122    22.878     6.816
   550   1 H      0.925     0.043     2.412     2.429
   551   1 H      0.925     0.055     2.253     2.347
   552   1 H      0.925     0.064     2.150     2.293
   553   6 C      3.766    -0.123    22.896     6.820
   554   1 H      0.924     0.028     2.614     2.528
   555   1 H      0.925     0.036     2.507     2.476
   556   1 H      0.925     0.057     2.230     2.335
   557   6 C      2.764     0.280    22.254     7.726
   558   8 O      0.863    -0.488    23.526     6.503
   559   7 N      2.678    -0.177    24.833     7.401
   560   1 H      0.860     0.211     1.051     1.606
   561   6 C      3.767     0.009    20.456     6.446
   562   1 H      0.925     0.065     2.146     2.291
   563   6 C      3.720     0.112    18.859     6.202
   564   1 H      0.925     0.034     2.525     2.485
   565   6 C      3.748    -0.129    23.035     6.845
   566   1 H      0.924     0.053     2.279     2.361
   567   1 H      0.924     0.084     1.935     2.175
   568   1 H      0.925     0.046     2.370     2.407
   569   8 O      1.654    -0.481    22.492     6.402
   570   1 H      0.805     0.339     0.613     1.230
   571   6 C      2.742     0.260    22.624     7.788
   572   8 O      0.861    -0.469    23.114     6.446
   573   7 N      2.690    -0.162    24.503     7.352
   574   1 H      0.860     0.215     1.033     1.592
   575   6 C      3.783     0.023    20.201     6.402
   576   1 H      0.925     0.093     1.851     2.128
   577   6 C      3.809    -0.084    22.086     6.690
   578   1 H      0.925     0.074     2.043     2.235
   579   1 H      0.924     0.066     2.131     2.283
   580   6 C      3.791    -0.086    22.144     6.701
   581   1 H      0.924     0.063     2.169     2.303
   582   1 H      0.925     0.058     2.219     2.329
   583   6 C      3.796    -0.102    22.453     6.747
   584   1 H      0.925     0.076     2.016     2.220
   585   1 H      0.925     0.087     1.904     2.158
   586   6 C      3.729    -0.054    21.647     6.642
   587   1 H      0.924     0.119     1.618     1.989
   588   1 H      0.925     0.121     1.609     1.984
   589   7 N      3.485    -0.158    24.396     7.336
   590   1 H      0.860     0.303     0.705     1.316
   591   1 H      0.860     0.302     0.707     1.317
   592   1 H      0.860     0.297     0.722     1.331
   593   6 C      2.731     0.262    22.581     7.780
   594   8 O      0.858    -0.485    23.448     6.492
   595   7 N      2.678    -0.167    24.605     7.367
   596   1 H      0.860     0.214     1.039     1.597
   597   6 C      3.774     0.018    20.307     6.421
   598   1 H      0.925     0.084     1.942     2.180
   599   6 C      3.673     0.075    19.546     6.336
   600   1 H      0.924     0.043     2.416     2.431
   601   1 H      0.924     0.039     2.461     2.453
   602   8 O      1.656    -0.483    22.526     6.407
   603   1 H      0.805     0.348     0.594     1.210
   604   6 C      2.744     0.263    22.571     7.779
   605   8 O      0.860    -0.455    22.804     6.403
   606   7 N      2.739    -0.121    23.637     7.221
   607   6 C      3.773    -0.016    20.894     6.513
   608   1 H      0.925     0.056     2.247     2.344
   609   1 H      0.924     0.064     2.150     2.293
   610   6 C      3.816    -0.073    21.882     6.658
   611   1 H      0.925     0.074     2.040     2.234
   612   1 H      0.924     0.061     2.186     2.312
   613   6 C      3.845    -0.072    21.851     6.649
   614   1 H      0.924     0.077     2.008     2.216
   615   1 H      0.925     0.079     1.986     2.204
   616   6 C      3.799     0.020    20.234     6.405
   617   1 H      0.925     0.100     1.781     2.087
   618   6 C      2.763     0.259    22.642     7.792
   619   8 O      0.858    -0.487    23.497     6.499
   620   7 N      2.687    -0.156    24.372     7.332
   621   1 H      0.860     0.202     1.096     1.640
   622   6 C      3.808     0.013    20.353     6.422
   623   1 H      0.925     0.075     2.035     2.231
   624   6 C      3.684     0.056    19.829     6.376
   625   1 H      0.925     0.053     2.279     2.361
   626   1 H      0.925     0.059     2.210     2.325
   627   8 O      1.661    -0.488    22.630     6.422
   628   1 H      0.807     0.352     0.583     1.200
   629   6 C      2.742     0.278    22.301     7.732
   630   8 O      0.859    -0.451    22.723     6.391
   631   7 N      2.692    -0.179    24.879     7.408
   632   1 H      0.860     0.214     1.037     1.595
   633   6 C      3.779     0.009    20.454     6.443
   634   1 H      0.925     0.097     1.810     2.104
   635   6 C      3.817    -0.090    22.205     6.706
   636   1 H      0.925     0.064     2.157     2.297
   637   1 H      0.924     0.083     1.953     2.185
   638   6 C      3.845    -0.028    21.044     6.525
   639   1 H      0.925     0.051     2.307     2.375
   640   6 C      3.750    -0.135    23.163     6.864
   641   1 H      0.925     0.031     2.566     2.505
   642   1 H      0.925     0.068     2.112     2.273
   643   1 H      0.925     0.050     2.316     2.380
   644   6 C      3.759    -0.145    23.349     6.889
   645   1 H      0.924     0.069     2.092     2.262
   646   1 H      0.925     0.051     2.304     2.374
   647   1 H      0.924     0.050     2.323     2.384
   648   6 C      2.734     0.263    22.566     7.777
   649   8 O      0.863    -0.463    22.982     6.428
   650   7 N      2.687    -0.175    24.781     7.393
   651   1 H      0.860     0.218     1.019     1.581
   652   6 C      3.770     0.012    20.403     6.437
   653   1 H      0.925     0.109     1.707     2.043
   654   6 C      3.816    -0.112    22.621     6.769
   655   1 H      0.925     0.093     1.847     2.125
   656   1 H      0.925     0.118     1.626     1.994
   657   6 C      2.751     0.288    22.113     7.700
   658   8 O      0.875    -0.552    24.963     6.699
   659   7 N      2.651    -0.280    27.225     7.749
   660   1 H      0.860     0.237     0.935     1.515
   661   1 H      0.860     0.233     0.952     1.528
   662   6 C      2.736     0.280    22.261     7.725
   663   8 O      0.861    -0.472    23.170     6.454
   664   7 N      2.683    -0.175    24.795     7.395
   665   1 H      0.860     0.227     0.978     1.549
   666   6 C      3.787     0.016    20.328     6.422
   667   1 H      0.925     0.066     2.130     2.282
   668   6 C      3.747    -0.135    23.172     6.866
   669   1 H      0.925     0.060     2.203     2.321
   670   1 H      0.925     0.081     1.964     2.192
   671   1 H      0.925     0.079     1.985     2.203
   672   6 C      2.745     0.278    22.304     7.733
   673   8 O      0.861    -0.527    24.397     6.622
   674   7 N      2.691    -0.166    24.601     7.366
   675   1 H      0.860     0.230     0.964     1.538
   676   6 C      3.785     0.019    20.264     6.412
   677   1 H      0.925     0.061     2.188     2.313
   678   6 C      3.754    -0.146    23.375     6.894
   679   1 H      0.924     0.075     2.030     2.228
   680   1 H      0.924     0.083     1.946     2.182
   681   1 H      0.924     0.105     1.741     2.063
   682   6 C      2.744     0.261    22.609     7.785
   683   8 O      0.861    -0.498    23.745     6.533
   684   7 N      2.690    -0.174    24.770     7.392
   685   1 H      0.860     0.235     0.944     1.522
   686   6 C      3.794     0.014    20.350     6.424
   687   1 H      0.924     0.099     1.793     2.094
   688   6 C      3.828    -0.079    21.990     6.673
   689   1 H      0.924     0.051     2.304     2.374
   690   1 H      0.925     0.066     2.134     2.285
   691   6 C      3.806    -0.091    22.235     6.713
   692   1 H      0.925     0.100     1.784     2.089
   693   1 H      0.925     0.073     2.050     2.239
   694   6 C      3.818    -0.104    22.461     6.745
   695   1 H      0.925     0.072     2.062     2.246
   696   1 H      0.924     0.062     2.174     2.306
   697   6 C      3.732    -0.067    21.880     6.677
   698   1 H      0.924     0.130     1.532     1.936
   699   1 H      0.924     0.130     1.534     1.937
   700   7 N      3.490    -0.134    23.890     7.259
   701   1 H      0.860     0.290     0.744     1.351
   702   1 H      0.860     0.311     0.682     1.293
   703   1 H      0.860     0.293     0.735     1.343
   704   6 C      2.750     0.269    22.450     7.759
   705   8 O      0.861    -0.506    23.922     6.558
   706   7 N      2.685    -0.219    25.786     7.542
   707   1 H      0.860     0.248     0.892     1.480
   708   6 C      3.790     0.038    19.950     6.361
   709   1 H      0.925     0.071     2.076     2.253
   710   6 C      3.677     0.065    19.706     6.360
   711   1 H      0.924     0.043     2.406     2.426
   712   1 H      0.925     0.069     2.093     2.262
   713   8 O      1.645    -0.482    22.519     6.406
   714   1 H      0.805     0.344     0.602     1.219
   715   6 C      2.760     0.270    22.446     7.759
   716   8 O      0.859    -0.537    24.614     6.652
   717   7 N      2.687    -0.176    24.809     7.398
   718   1 H      0.860     0.232     0.956     1.532
   719   6 C      3.812     0.045    19.809     6.335
   720   1 H      0.925     0.060     2.201     2.320
   721   6 C      3.809    -0.056    21.578     6.612
   722   1 H      0.925     0.060     2.204     2.322
   723   1 H      0.924     0.060     2.198     2.319
   724   6 C      3.815    -0.099    22.383     6.734
   725   1 H      0.925     0.033     2.548     2.496
   726   1 H      0.924     0.023     2.693     2.566
   727   6 C      2.685     0.374    20.659     7.438
   728   8 O      0.858    -0.610    26.364     6.884
   729   8 O      0.857    -0.660    27.633     7.048
   730   6 C      2.759     0.267    22.500     7.768
   731   8 O      0.861    -0.510    24.008     6.569
   732   7 N      2.694    -0.186    25.033     7.431
   733   1 H      0.860     0.218     1.017     1.580
   734   6 C      3.794     0.028    20.115     6.387
   735   1 H      0.924     0.085     1.927     2.171
   736   6 C      3.807    -0.090    22.213     6.709
   737   1 H      0.924     0.069     2.100     2.266
   738   1 H      0.925     0.097     1.816     2.107
   739   6 C      3.842    -0.023    20.954     6.512
   740   1 H      0.925     0.033     2.547     2.496
   741   6 C      3.743    -0.123    22.931     6.832
   742   1 H      0.925     0.056     2.245     2.343
   743   1 H      0.924     0.027     2.624     2.533
   744   1 H      0.925     0.046     2.376     2.410
   745   6 C      3.759    -0.126    22.959     6.831
   746   1 H      0.925     0.043     2.406     2.426
   747   1 H      0.924     0.051     2.308     2.376
   748   1 H      0.925     0.067     2.123     2.279
   749   6 C      2.754     0.278    22.300     7.733
   750   8 O      0.861    -0.504    23.881     6.552
   751   7 N      2.698    -0.197    25.281     7.468
   752   1 H      0.860     0.214     1.035     1.594
   753   6 C      3.793     0.053    19.689     6.319
   754   1 H      0.925     0.060     2.193     2.316
   755   6 C      3.814    -0.099    22.370     6.732
   756   1 H      0.924     0.038     2.474     2.460
   757   1 H      0.925     0.042     2.426     2.436
   758   6 C      2.681     0.375    20.654     7.437
   759   8 O      0.859    -0.632    26.928     6.957
   760   8 O      0.859    -0.650    27.379     7.015
   761   6 C      2.745     0.279    22.283     7.729
   762   8 O      0.859    -0.527    24.387     6.621
   763   7 N      2.682    -0.183    24.958     7.420
   764   1 H      0.860     0.204     1.085     1.632
   765   6 C      3.771     0.019    20.289     6.419
   766   1 H      0.924     0.067     2.121     2.278
   767   6 C      3.784    -0.079    22.023     6.685
   768   1 H      0.924     0.081     1.966     2.193
   769   1 H      0.925     0.067     2.123     2.278
   770   6 C      3.794    -0.067    21.795     6.648
   771   1 H      0.924     0.044     2.403     2.424
   772   1 H      0.924     0.051     2.314     2.379
   773   6 C      3.801    -0.083    22.079     6.690
   774   1 H      0.924     0.063     2.169     2.303
   775   1 H      0.925     0.074     2.045     2.236
   776   6 C      3.731    -0.042    21.424     6.607
   777   1 H      0.925     0.124     1.579     1.965
   778   1 H      0.924     0.109     1.707     2.043
   779   7 N      3.488    -0.155    24.340     7.327
   780   1 H      0.860     0.300     0.712     1.322
   781   1 H      0.860     0.298     0.719     1.329
   782   1 H      0.860     0.296     0.726     1.335
   783   6 C      2.746     0.268    22.481     7.764
   784   8 O      0.858    -0.505    23.888     6.553
   785   7 N      2.682    -0.184    24.977     7.423
   786   1 H      0.860     0.217     1.025     1.586
   787   6 C      3.800     0.021    20.218     6.402
   788   1 H      0.925     0.084     1.936     2.176
   789   6 C      3.763    -0.132    23.085     6.849
   790   1 H      0.925     0.067     2.122     2.278
   791   1 H      0.925     0.084     1.939     2.178
   792   1 H      0.925     0.074     2.045     2.236
   793   6 C      2.758     0.294    22.012     7.683
   794   8 O      0.860    -0.485    23.443     6.492
   795   7 N      2.691    -0.205    25.451     7.493
   796   1 H      0.860     0.225     0.986     1.556
   797   6 C      3.787     0.008    20.452     6.441
   798   1 H      0.925     0.088     1.897     2.154
   799   6 C      3.842    -0.022    20.938     6.509
   800   1 H      0.925     0.077     2.013     2.218
   801   6 C      3.756    -0.100    22.462     6.757
   802   1 H      0.924     0.026     2.648     2.545
   803   1 H      0.925     0.061     2.187     2.312
   804   1 H      0.925     0.034     2.536     2.490
   805   6 C      3.792    -0.071    21.867     6.659
   806   1 H      0.925     0.026     2.638     2.540
   807   1 H      0.925     0.053     2.284     2.363
   808   6 C      3.745    -0.118    22.824     6.815
   809   1 H      0.924     0.045     2.388     2.417
   810   1 H      0.925     0.067     2.115     2.274
   811   1 H      0.925     0.040     2.452     2.449
   812   6 C      2.752     0.284    22.189     7.713
   813   8 O      0.862    -0.468    23.094     6.443
   814   7 N      2.688    -0.184    24.980     7.423
   815   1 H      0.860     0.184     1.191     1.710
   816   6 C      3.734    -0.018    20.975     6.536
   817   1 H      0.925     0.092     1.864     2.135
   818   1 H      0.924     0.083     1.950     2.184
   819   6 C      2.738     0.272    22.408     7.750
   820   8 O      0.858    -0.506    23.911     6.556
   821   7 N      2.682    -0.156    24.386     7.334
   822   1 H      0.860     0.192     1.148     1.678
   823   6 C      3.780     0.020    20.251     6.411
   824   1 H      0.924     0.065     2.142     2.289
   825   6 C      3.794    -0.079    22.015     6.681
   826   1 H      0.925     0.080     1.979     2.200
   827   1 H      0.925     0.075     2.032     2.229
   828   6 C      3.801    -0.079    22.016     6.680
   829   1 H      0.924     0.057     2.235     2.338
   830   1 H      0.925     0.087     1.912     2.163
   831   6 C      3.736     0.002    20.625     6.481
   832   1 H      0.925     0.064     2.147     2.291
   833   1 H      0.924     0.055     2.256     2.349
   834   7 N      2.702    -0.184    24.996     7.425
   835   1 H      0.860     0.243     0.913     1.496
   836   6 C      2.734     0.251    22.790     7.816
   837   7 N      2.719    -0.276    27.121     7.735
   838   1 H      0.860     0.251     0.878     1.468
   839   1 H      0.860     0.226     0.984     1.554
   840   7 N      2.712    -0.255    26.622     7.663
   841   1 H      0.860     0.249     0.889     1.477
   842   1 H      0.860     0.246     0.898     1.484
   843   6 C      2.745     0.271    22.424     7.754
   844   8 O      0.857    -0.485    23.464     6.495
   845   7 N      2.691    -0.169    24.651     7.374
   846   1 H      0.860     0.213     1.043     1.599
   847   6 C      3.792     0.040    19.910     6.354
   848   1 H      0.925     0.062     2.178     2.308
   849   6 C      3.808    -0.110    22.594     6.766
   850   1 H      0.924     0.088     1.898     2.155
   851   1 H      0.924     0.080     1.983     2.202
   852   6 C      2.741     0.285    22.168     7.709
   853   8 O      0.862    -0.519    24.212     6.597
   854   7 N      2.642    -0.272    27.041     7.723
   855   1 H      0.860     0.266     0.824     1.422
   856   1 H      0.860     0.240     0.925     1.507
   857   6 C      2.758     0.268    22.468     7.762
   858   8 O      0.861    -0.460    22.907     6.417
   859   7 N      2.699    -0.179    24.869     7.407
   860   1 H      0.860     0.197     1.122     1.659
   861   6 C      3.793     0.019    20.268     6.411
   862   1 H      0.924     0.107     1.720     2.051
   863   6 C      3.800    -0.021    20.956     6.518
   864   1 H      0.925     0.049     2.336     2.390
   865   1 H      0.925     0.100     1.784     2.089
   866  16 S      1.900    -0.259   152.193    20.764
   867   1 H      0.923     0.152     1.378     1.836
   868   6 C      2.745     0.256    22.697     7.801
   869   8 O      0.858    -0.480    23.343     6.478
   870   7 N      2.708    -0.149    24.224     7.310
   871   1 H      0.860     0.196     1.129     1.664
   872   6 C      3.777     0.016    20.325     6.423
   873   1 H      0.925     0.092     1.863     2.134
   874   6 C      3.821    -0.098    22.352     6.728
   875   1 H      0.924     0.092     1.861     2.134
   876   1 H      0.925     0.073     2.049     2.239
   877   6 C      2.742     0.276    22.338     7.739
   878   8 O      0.863    -0.469    23.101     6.444
   879   7 N      2.638    -0.295    27.617     7.805
   880   1 H      0.860     0.252     0.875     1.465
   881   1 H      0.860     0.212     1.049     1.604
   882   6 C      2.737     0.276    22.336     7.738
   883   8 O      0.858    -0.389    21.460     6.211
   884   7 N      2.678    -0.201    25.360     7.479
   885   1 H      0.860     0.184     1.194     1.711
   886   6 C      3.733    -0.052    21.592     6.632
   887   1 H      0.924     0.136     1.494     1.911
   888   1 H      0.924     0.106     1.732     2.058
   889   6 C      2.742     0.271    22.412     7.751
   890   8 O      0.859    -0.475    23.231     6.462
   891   7 N      2.683    -0.140    24.041     7.282
   892   1 H      0.860     0.195     1.134     1.668
   893   6 C      3.785     0.002    20.563     6.459
   894   1 H      0.924     0.084     1.939     2.178
   895   6 C      3.832    -0.022    20.937     6.510
   896   1 H      0.924     0.041     2.438     2.442
   897   6 C      3.749    -0.120    22.863     6.820
   898   1 H      0.924     0.017     2.773     2.604
   899   1 H      0.924     0.056     2.244     2.343
   900   1 H      0.925     0.051     2.312     2.378
   901   6 C      3.746    -0.143    23.334     6.890
   902   1 H      0.925     0.076     2.024     2.225
   903   1 H      0.924     0.072     2.065     2.247
   904   1 H      0.925     0.077     2.012     2.218
   905   6 C      2.752     0.277    22.305     7.734
   906   8 O      0.859    -0.500    23.783     6.539
   907   7 N      2.687    -0.182    24.934     7.416
   908   1 H      0.860     0.240     0.923     1.505
   909   6 C      3.779     0.012    20.397     6.434
   910   1 H      0.925     0.063     2.163     2.300
   911   6 C      3.836    -0.031    21.094     6.534
   912   1 H      0.924     0.030     2.582     2.513
   913   6 C      3.756    -0.124    22.930     6.828
   914   1 H      0.925     0.034     2.528     2.487
   915   1 H      0.924     0.046     2.368     2.406
   916   1 H      0.925     0.060     2.202     2.321
   917   6 C      3.803    -0.068    21.807     6.648
   918   1 H      0.924     0.040     2.444     2.445
   919   1 H      0.925     0.062     2.178     2.308
   920   6 C      3.748    -0.118    22.826     6.814
   921   1 H      0.924     0.028     2.616     2.530
   922   1 H      0.925     0.051     2.305     2.374
   923   1 H      0.925     0.041     2.431     2.438
   924   6 C      2.744     0.273    22.383     7.746
   925   8 O      0.860    -0.467    23.068     6.439
   926   7 N      2.688    -0.167    24.615     7.369
   927   1 H      0.860     0.197     1.120     1.657
   928   6 C      3.792     0.004    20.521     6.451
   929   1 H      0.925     0.099     1.795     2.095
   930   6 C      3.729     0.107    18.915     6.209
   931   1 H      0.924     0.053     2.288     2.366
   932   6 C      3.748    -0.144    23.343     6.891
   933   1 H      0.925     0.059     2.215     2.327
   934   1 H      0.924     0.071     2.074     2.252
   935   1 H      0.925     0.070     2.083     2.257
   936   8 O      1.656    -0.514    23.186     6.500
   937   1 H      0.805     0.325     0.651     1.267
   938   6 C      2.766     0.264    22.541     7.775
   939   8 O      0.858    -0.483    23.407     6.487
   940   7 N      2.700    -0.184    24.978     7.423
   941   1 H      0.860     0.227     0.977     1.549
   942   6 C      3.797     0.015    20.326     6.420
   943   1 H      0.925     0.109     1.703     2.041
   944   6 C      3.823    -0.096    22.307     6.721
   945   1 H      0.925     0.070     2.086     2.258
   946   1 H      0.924     0.092     1.858     2.131
   947   6 C      3.804    -0.074    21.911     6.664
   948   1 H      0.925     0.071     2.073     2.251
   949   1 H      0.925     0.047     2.354     2.399
   950   6 C      3.803    -0.103    22.462     6.747
   951   1 H      0.925     0.104     1.748     2.067
   952   1 H      0.924     0.091     1.865     2.136
   953   6 C      3.726    -0.066    21.872     6.678
   954   1 H      0.925     0.099     1.795     2.095
   955   1 H      0.924     0.117     1.638     2.002
   956   7 N      3.486    -0.147    24.166     7.301
   957   1 H      0.860     0.304     0.702     1.312
   958   1 H      0.860     0.300     0.714     1.324
   959   1 H      0.860     0.301     0.709     1.319
   960   6 C      2.743     0.260    22.624     7.788
   961   8 O      0.859    -0.489    23.550     6.506
   962   7 N      2.689    -0.188    25.066     7.436
   963   1 H      0.860     0.208     1.066     1.618
   964   6 C      3.805     0.043    19.846     6.342
   965   1 H      0.925     0.086     1.920     2.167
   966   6 C      3.807    -0.103    22.461     6.747
   967   1 H      0.924     0.041     2.431     2.438
   968   1 H      0.925     0.067     2.114     2.274
   969   6 C      2.684     0.358    20.921     7.485
   970   8 O      0.856    -0.623    26.697     6.927
   971   8 O      0.856    -0.614    26.464     6.897
   972   6 C      2.783     0.257    22.681     7.801
   973   8 O      0.856    -0.526    24.367     6.618
   974   7 N      2.712    -0.159    24.448     7.344
   975   1 H      0.860     0.219     1.015     1.578
   976   6 C      3.809     0.042    19.865     6.344
   977   1 H      0.925     0.070     2.088     2.260
   978   6 C      3.808    -0.055    21.555     6.609
   979   1 H      0.924     0.051     2.310     2.377
   980   1 H      0.925     0.057     2.236     2.339
   981   6 C      3.796    -0.099    22.399     6.739
   982   1 H      0.924     0.046     2.368     2.407
   983   1 H      0.925     0.033     2.547     2.496
   984   6 C      2.683     0.361    20.871     7.476
   985   8 O      0.856    -0.584    25.739     6.802
   986   8 O      0.856    -0.587    25.806     6.811
   987   6 C      2.759     0.250    22.810     7.821
   988   8 O      0.859    -0.520    24.234     6.600
   989   7 N      2.685    -0.194    25.202     7.456
   990   1 H      0.860     0.227     0.977     1.548
   991   6 C      3.793     0.024    20.178     6.397
   992   1 H      0.925     0.096     1.825     2.113
   993   6 C      3.753    -0.140    23.257     6.877
   994   1 H      0.924     0.075     2.035     2.231
   995   1 H      0.925     0.092     1.863     2.135
   996   1 H      0.925     0.082     1.961     2.190
   997   6 C      2.757     0.274    22.370     7.745
   998   8 O      0.859    -0.522    24.282     6.607
   999   7 N      2.693    -0.161    24.493     7.350
  1000   1 H      0.860     0.216     1.027     1.587
  1001   6 C      3.786     0.016    20.314     6.420
  1002   1 H      0.925     0.079     1.991     2.207
  1003   6 C      3.800    -0.053    21.519     6.605
  1004   1 H      0.924     0.036     2.497     2.471
  1005   1 H      0.925     0.072     2.063     2.246
  1006   6 C      3.797    -0.085    22.133     6.699
  1007   1 H      0.925     0.032     2.556     2.500
  1008   1 H      0.925     0.017     2.780     2.607
  1009   6 C      2.683     0.360    20.892     7.480
  1010   8 O      0.856    -0.630    26.857     6.948
  1011   8 O      0.857    -0.661    27.655     7.051
  1012   6 C      2.743     0.270    22.444     7.757
  1013   8 O      0.858    -0.496    23.697     6.527
  1014   7 N      2.679    -0.193    25.185     7.453
  1015   1 H      0.860     0.215     1.033     1.592
  1016   6 C      3.782     0.020    20.251     6.411
  1017   1 H      0.925     0.093     1.854     2.129
  1018   6 C      3.813    -0.070    21.831     6.650
  1019   1 H      0.924     0.058     2.227     2.333
  1020   1 H      0.925     0.058     2.219     2.330
  1021   6 C      3.806    -0.079    22.010     6.679
  1022   1 H      0.924     0.063     2.165     2.301
  1023   1 H      0.925     0.071     2.069     2.250
  1024   6 C      3.811    -0.072    21.866     6.656
  1025   1 H      0.924     0.071     2.070     2.250
  1026   1 H      0.925     0.054     2.275     2.359
  1027   6 C      3.731    -0.041    21.402     6.604
  1028   1 H      0.925     0.117     1.634     1.999
  1029   1 H      0.924     0.115     1.654     2.011
  1030   7 N      3.485    -0.156    24.363     7.331
  1031   1 H      0.860     0.287     0.752     1.358
  1032   1 H      0.860     0.293     0.736     1.344
  1033   1 H      0.860     0.280     0.777     1.380
  1034   6 C      2.742     0.255    22.716     7.804
  1035   8 O      0.857    -0.505    23.891     6.553
  1036   7 N      2.679    -0.194    25.217     7.458
  1037   1 H      0.860     0.229     0.970     1.543
  1038   6 C      3.785     0.015    20.336     6.423
  1039   1 H      0.924     0.072     2.065     2.247
  1040   6 C      3.805    -0.084    22.099     6.692
  1041   1 H      0.924     0.068     2.112     2.272
  1042   1 H      0.925     0.080     1.981     2.201
  1043   6 C      3.846    -0.016    20.836     6.493
  1044   1 H      0.925     0.032     2.563     2.503
  1045   6 C      3.753    -0.119    22.844     6.816
  1046   1 H      0.925     0.053     2.285     2.364
  1047   1 H      0.925     0.049     2.328     2.386
  1048   1 H      0.925     0.023     2.684     2.562
  1049   6 C      3.756    -0.131    23.077     6.849
  1050   1 H      0.925     0.066     2.130     2.282
  1051   1 H      0.925     0.054     2.266     2.354
  1052   1 H      0.925     0.043     2.408     2.427
  1053   6 C      2.747     0.279    22.279     7.729
  1054   8 O      0.861    -0.515    24.110     6.583
  1055   7 N      2.682    -0.184    24.988     7.424
  1056   1 H      0.860     0.219     1.013     1.577
  1057   6 C      3.785     0.029    20.105     6.387
  1058   1 H      0.924     0.076     2.022     2.224
  1059   6 C      3.810    -0.071    21.854     6.654
  1060   1 H      0.924     0.052     2.291     2.367
  1061   1 H      0.925     0.079     1.986     2.204
  1062   6 C      2.961     0.007    27.870     8.659
  1063   6 C      2.897    -0.036    28.906     8.815
  1064   1 H      0.926     0.039     2.467     2.456
  1065   6 C      2.918    -0.039    28.980     8.828
  1066   1 H      0.926     0.051     2.304     2.374
  1067   6 C      2.900    -0.035    28.880     8.811
  1068   1 H      0.926     0.058     2.226     2.333
  1069   6 C      2.902    -0.033    28.826     8.803
  1070   1 H      0.926     0.045     2.388     2.417
  1071   6 C      2.904    -0.046    29.142     8.852
  1072   1 H      0.926     0.044     2.391     2.418
  1073   6 C      2.744     0.273    22.387     7.747
  1074   8 O      0.857    -0.450    22.706     6.389
  1075   7 N      2.688    -0.204    25.438     7.491
  1076   1 H      0.860     0.204     1.087     1.634
  1077   6 C      3.798     0.034    20.011     6.370
  1078   1 H      0.924     0.087     1.911     2.162
  1079   6 C      3.819    -0.111    22.597     6.765
  1080   1 H      0.925     0.082     1.961     2.190
  1081   1 H      0.925     0.092     1.855     2.130
  1082   6 C      2.746     0.294    22.006     7.681
  1083   8 O      0.864    -0.508    23.965     6.564
  1084   7 N      2.641    -0.283    27.303     7.760
  1085   1 H      0.860     0.254     0.869     1.460
  1086   1 H      0.860     0.235     0.944     1.522
  1087   6 C      2.755     0.265    22.521     7.771
  1088   8 O      0.858    -0.517    24.167     6.591
  1089   7 N      2.690    -0.161    24.489     7.350
  1090   1 H      0.860     0.200     1.104     1.646
  1091   6 C      3.804     0.033    20.017     6.369
  1092   1 H      0.925     0.088     1.894     2.152
  1093   6 C      3.815    -0.068    21.795     6.645
  1094   1 H      0.925     0.086     1.915     2.164
  1095   1 H      0.925     0.056     2.241     2.341
  1096   6 C      3.810    -0.105    22.488     6.750
  1097   1 H      0.925     0.060     2.200     2.320
  1098   1 H      0.924     0.068     2.105     2.269
  1099   6 C      2.746     0.308    21.772     7.640
  1100   8 O      0.874    -0.488    23.513     6.502
  1101   7 N      2.655    -0.298    27.668     7.812
  1102   1 H      0.860     0.210     1.054     1.608
  1103   1 H      0.860     0.211     1.054     1.608
  1104   6 C      2.759     0.275    22.356     7.743
  1105   8 O      0.858    -0.512    24.059     6.576
  1106   7 N      2.684    -0.163    24.523     7.355
  1107   1 H      0.860     0.201     1.099     1.642
  1108   6 C      3.785     0.031    20.076     6.382
  1109   1 H      0.924     0.096     1.821     2.110
  1110   6 C      3.793    -0.096    22.348     6.732
  1111   1 H      0.925     0.054     2.265     2.354
  1112   1 H      0.925     0.042     2.417     2.431
  1113   6 C      2.684     0.359    20.909     7.483
  1114   8 O      0.856    -0.578    25.593     6.783
  1115   8 O      0.856    -0.640    27.114     6.981
  1116   6 C      2.749     0.265    22.524     7.771
  1117   8 O      0.859    -0.483    23.401     6.486
  1118   7 N      2.682    -0.176    24.813     7.398
  1119   1 H      0.860     0.206     1.077     1.626
  1120   6 C      3.792     0.019    20.257     6.409
  1121   1 H      0.924     0.083     1.945     2.181
  1122   6 C      3.852    -0.020    20.893     6.501
  1123   1 H      0.925     0.030     2.580     2.512
  1124   6 C      3.755    -0.128    23.012     6.840
  1125   1 H      0.924     0.072     2.059     2.244
  1126   1 H      0.925     0.062     2.170     2.304
  1127   1 H      0.924     0.049     2.337     2.391
  1128   6 C      3.760    -0.126    22.973     6.833
  1129   1 H      0.925     0.070     2.090     2.261
  1130   1 H      0.924     0.038     2.476     2.461
  1131   1 H      0.925     0.067     2.121     2.277
  1132   6 C      2.744     0.262    22.580     7.780
  1133   8 O      0.858    -0.474    23.220     6.461
  1134   7 N      2.684    -0.181    24.931     7.416
  1135   1 H      0.860     0.196     1.128     1.663
  1136   6 C      3.776     0.037    19.976     6.368
  1137   1 H      0.925     0.074     2.046     2.237
  1138   6 C      3.796    -0.102    22.448     6.747
  1139   1 H      0.924     0.035     2.514     2.480
  1140   1 H      0.925     0.038     2.479     2.462
  1141   6 C      2.686     0.369    20.739     7.453
  1142   8 O      0.856    -0.627    26.799     6.941
  1143   8 O      0.857    -0.593    25.940     6.829
  1144   6 C      2.737     0.264    22.545     7.774
  1145   8 O      0.857    -0.476    23.263     6.467
  1146   7 N      2.689    -0.182    24.946     7.418
  1147   1 H      0.860     0.217     1.024     1.585
  1148   6 C      3.778     0.017    20.314     6.421
  1149   1 H      0.924     0.081     1.968     2.194
  1150   6 C      3.754    -0.138    23.208     6.869
  1151   1 H      0.925     0.085     1.927     2.171
  1152   1 H      0.925     0.055     2.254     2.348
  1153   1 H      0.925     0.083     1.947     2.182
  1154   6 C      2.742     0.260    22.617     7.787
  1155   8 O      0.858    -0.487    23.507     6.500
  1156   7 N      2.684    -0.182    24.937     7.417
  1157   1 H      0.860     0.217     1.023     1.584
  1158   6 C      3.778     0.025    20.184     6.401
  1159   1 H      0.924     0.081     1.973     2.197
  1160   6 C      3.749    -0.127    23.001     6.840
  1161   1 H      0.924     0.070     2.083     2.257
  1162   1 H      0.925     0.064     2.158     2.297
  1163   1 H      0.925     0.078     2.004     2.214
  1164   6 C      2.742     0.257    22.666     7.795
  1165   8 O      0.859    -0.500    23.777     6.538
  1166   7 N      2.686    -0.166    24.594     7.365
  1167   1 H      0.860     0.217     1.024     1.585
  1168   6 C      3.798     0.017    20.297     6.415
  1169   1 H      0.925     0.091     1.870     2.138
  1170   6 C      3.848    -0.017    20.845     6.494
  1171   1 H      0.924     0.028     2.610     2.527
  1172   6 C      3.758    -0.121    22.875     6.819
  1173   1 H      0.924     0.063     2.168     2.302
  1174   1 H      0.925     0.065     2.138     2.287
  1175   1 H      0.924     0.042     2.416     2.431
  1176   6 C      3.753    -0.129    23.028     6.843
  1177   1 H      0.925     0.053     2.282     2.362
  1178   1 H      0.925     0.057     2.238     2.340
  1179   1 H      0.925     0.045     2.380     2.413
  1180   6 C      2.747     0.264    22.545     7.775
  1181   8 O      0.862    -0.505    23.893     6.554
  1182   7 N      2.689    -0.174    24.768     7.391
  1183   1 H      0.860     0.223     0.995     1.563
  1184   6 C      3.787     0.018    20.284     6.415
  1185   1 H      0.924     0.086     1.920     2.167
  1186   6 C      3.794    -0.088    22.181     6.707
  1187   1 H      0.925     0.087     1.913     2.163
  1188   1 H      0.925     0.062     2.180     2.309
  1189   6 C      3.799    -0.080    22.032     6.683
  1190   1 H      0.925     0.049     2.338     2.391
  1191   1 H      0.925     0.080     1.983     2.202
  1192   6 C      3.731    -0.023    21.076     6.553
  1193   1 H      0.925     0.089     1.893     2.151
  1194   1 H      0.925     0.105     1.743     2.065
  1195   7 N      2.693    -0.162    24.497     7.351
  1196   1 H      0.860     0.203     1.090     1.635
  1197   6 C      2.733     0.226    23.250     7.894
  1198   7 N      2.655    -0.253    26.573     7.656
  1199   1 H      0.860     0.269     0.815     1.414
  1200   1 H      0.860     0.256     0.861     1.454
  1201   7 N      2.661    -0.286    27.387     7.772
  1202   1 H      0.860     0.251     0.878     1.468
  1203   1 H      0.860     0.246     0.899     1.486
  1204   6 C      2.746     0.273    22.393     7.748
  1205   8 O      0.858    -0.457    22.860     6.410
  1206   7 N      2.675    -0.177    24.833     7.401
  1207   1 H      0.860     0.207     1.071     1.621
  1208   6 C      3.738    -0.022    21.043     6.546
  1209   1 H      0.925     0.071     2.072     2.251
  1210   1 H      0.924     0.092     1.857     2.131
  1211   6 C      2.759     0.270    22.437     7.757
  1212   8 O      0.863    -0.520    24.227     6.599
  1213   7 N      2.694    -0.166    24.600     7.366
  1214   1 H      0.860     0.222     0.999     1.566
  1215   6 C      3.802     0.015    20.321     6.418
[...]
  2282  H   0.993        C 2281 0.968
  2283  H   0.986        C 2281 0.949
  2284  C   3.951        O 2285 1.615    N 2286 1.333    C 2281 0.978
  2285  O   1.919        C 2284 1.615    N 2286 0.203
  2286  N   3.419        C 2284 1.333    H 2288 0.923    H 2287 0.922    O 2285 0.203
  2287  H   0.944        N 2286 0.922
  2288  H   0.946        N 2286 0.923
  2289  C   3.950        O 2290 1.614    N 2291 1.296    C 2279 0.962
  2290  O   1.960        C 2289 1.614    N 2291 0.199
  2291  N   3.470        C 2289 1.296    C 2293 0.974    H 2292 0.925    O 2290 0.199
  2292  H   0.958        N 2291 0.925
  2293  C   3.959        C 2295 0.976    N 2291 0.974    H 2294 0.949    C 2313 0.945
  2294  H   0.990        C 2293 0.949
  2295  C   3.983        C 2298 0.996    C 2293 0.976    H 2296 0.975    H 2297 0.968
  2296  H   0.995        C 2295 0.975
  2297  H   0.994        C 2295 0.968
  2298  C   3.980        C 2301 1.007    C 2295 0.996    H 2300 0.974    H 2299 0.966
  2299  H   0.993        C 2298 0.966
  2300  H   0.994        C 2298 0.974
  2301  C   3.954        C 2298 1.007    N 2304 0.976    H 2302 0.962    H 2303 0.961
  2302  H   0.994        C 2301 0.962
  2303  H   0.996        C 2301 0.961
  2304  N   3.428        C 2306 1.303    C 2301 0.976    H 2305 0.876
  2305  H   0.939        N 2304 0.876
  2306  C   3.978        N 2310 1.331    N 2307 1.314    N 2304 1.303
  2307  N   3.387        C 2306 1.314    H 2309 0.918    H 2308 0.879    N 2310 0.102
  2308  H   0.948        N 2307 0.879
  2309  H   0.951        N 2307 0.918
  2310  N   3.390        C 2306 1.331    H 2311 0.928    H 2312 0.857    N 2307 0.102
  2311  H   0.952        N 2310 0.928
  2312  H   0.926        N 2310 0.857
  2313  C   3.954        O 2314 1.606    N 2315 1.318    C 2293 0.945
  2314  O   1.936        C 2313 1.606    N 2315 0.197
  2315  N   3.484        C 2313 1.318    C 2317 0.983    H 2316 0.909    O 2314 0.197
  2316  H   0.954        N 2315 0.909
  2317  C   3.950        C 2319 0.996    N 2315 0.983    H 2318 0.949    C 2323 0.897
  2318  H   0.993        C 2317 0.949
  2319  C   3.985        C 2317 0.996    H 2320 0.982    H 2322 0.978    H 2321 0.976
  2320  H   0.996        C 2319 0.982
  2321  H   0.994        C 2319 0.976
  2322  H   0.996        C 2319 0.978
  2323  C   3.946        O 2324 1.673    N 2325 1.290    C 2317 0.897
  2324  O   2.020        C 2323 1.673    N 2325 0.197
  2325  N   3.452        C 2323 1.290    C 2327 0.977    H 2326 0.896    O 2324 0.197
  2326  H   0.949        N 2325 0.896
  2327  C   3.961        C 2329 0.984    N 2325 0.977    H 2328 0.940    C 2345 0.939
  2328  H   0.991        C 2327 0.940
  2329  C   3.975        C 2332 1.001    C 2327 0.984    H 2330 0.962    H 2331 0.962
  2330  H   0.997        C 2329 0.962
  2331  H   0.991        C 2329 0.962
  2332  C   3.988        C 2335 1.008    C 2329 1.001    H 2334 0.976    H 2333 0.970
  2333  H   0.994        C 2332 0.970
  2334  H   0.997        C 2332 0.976
  2335  C   3.983        C 2332 1.008    C 2338 0.999    H 2337 0.970    H 2336 0.970
  2336  H   0.994        C 2335 0.970
  2337  H   0.994        C 2335 0.970
  2338  C   3.913        C 2335 0.999    N 2341 0.972    H 2339 0.963    H 2340 0.959
  2339  H   0.985        C 2338 0.963
  2340  H   0.984        C 2338 0.959
  2341  N   3.660        C 2338 0.972    H 2344 0.894    H 2343 0.890    H 2342 0.888
  2342  H   0.910        N 2341 0.888
  2343  H   0.911        N 2341 0.890
  2344  H   0.910        N 2341 0.894
  2345  C   3.943        O 2346 1.572    N 2347 1.341    C 2327 0.939
  2346  O   1.927        C 2345 1.572    N 2347 0.195
  2347  N   3.493        C 2345 1.341    C 2349 0.967    H 2348 0.893    O 2346 0.195
  2348  H   0.946        N 2347 0.893
  2349  C   3.967        C 2351 0.983    N 2347 0.967    C 2369 0.957    H 2350 0.947
  2350  H   0.991        C 2349 0.947
  2351  C   3.985        C 2354 1.011    C 2349 0.983    H 2352 0.965    H 2353 0.963
  2352  H   0.995        C 2351 0.965
  2353  H   0.992        C 2351 0.963
  2354  C   3.984        C 2351 1.011    C 2357 0.986    H 2355 0.970    H 2356 0.965
  2355  H   0.993        C 2354 0.970
  2356  H   0.995        C 2354 0.965
  2357  C   3.945        C 2354 0.986    N 2360 0.974    H 2359 0.965    H 2358 0.964
  2358  H   0.992        C 2357 0.964
  2359  H   0.993        C 2357 0.965
  2360  N   3.496        C 2362 1.362    C 2357 0.974    H 2361 0.856    N 2363 0.110
  2361  H   0.937        N 2360 0.856
  2362  C   3.979        N 2360 1.362    N 2363 1.317    N 2366 1.258
  2363  N   3.368        C 2362 1.317    H 2365 0.911    H 2364 0.904    N 2360 0.110
  2364  H   0.935        N 2363 0.904
  2365  H   0.940        N 2363 0.911
  2366  N   3.311        C 2362 1.258    H 2367 0.910    H 2368 0.906
  2367  H   0.940        N 2366 0.910
  2368  H   0.953        N 2366 0.906
  2369  C   3.949        O 2370 1.543    N 2371 1.348    C 2349 0.957
  2370  O   1.946        C 2369 1.543    N 2371 0.192
  2371  N   3.494        C 2369 1.348    C 2373 0.957    H 2372 0.905    O 2370 0.192
  2372  H   0.950        N 2371 0.905
  2373  C   3.955        C 2375 0.987    N 2371 0.957    H 2374 0.947    C 2385 0.931
  2374  H   0.993        C 2373 0.947
  2375  C   3.990        C 2377 1.019    C 2381 0.989    C 2373 0.987    H 2376 0.955
  2376  H   0.996        C 2375 0.955
  2377  C   3.990        C 2375 1.019    H 2379 0.978    H 2378 0.978    H 2380 0.975
  2378  H   0.996        C 2377 0.978
  2379  H   0.998        C 2377 0.978
  2380  H   0.997        C 2377 0.975
  2381  C   3.991        C 2375 0.989    H 2382 0.987    H 2383 0.985    H 2384 0.980
  2382  H   0.998        C 2381 0.987
  2383  H   0.997        C 2381 0.985
  2384  H   0.997        C 2381 0.980
  2385  C   3.952        O 2386 1.595    N 2387 1.346    C 2373 0.931
  2386  O   1.940        C 2385 1.595    N 2387 0.200
  2387  N   3.475        C 2385 1.346    C 2389 0.938    H 2388 0.899    O 2386 0.200
  2388  H   0.951        N 2387 0.899
  2389  C   3.946        C 2391 0.968    C 2404 0.949    H 2390 0.948    N 2387 0.938
  2390  H   0.991        C 2389 0.948
  2391  C   3.984        C 2393 1.005    C 2397 0.994    C 2389 0.968    H 2392 0.958
  2392  H   0.997        C 2391 0.958
  2393  C   3.987        C 2391 1.005    H 2396 0.985    H 2395 0.983    H 2394 0.977
  2394  H   0.994        C 2393 0.977
  2395  H   0.996        C 2393 0.983
  2396  H   0.998        C 2393 0.985
  2397  C   3.990        C 2400 1.022    C 2391 0.994    H 2398 0.970    H 2399 0.968
  2398  H   0.998        C 2397 0.970
  2399  H   0.997        C 2397 0.968
  2400  C   3.993        C 2397 1.022    H 2402 0.985    H 2401 0.982    H 2403 0.981
  2401  H   0.998        C 2400 0.982
  2402  H   0.999        C 2400 0.985
  2403  H   0.997        C 2400 0.981
  2404  C   3.949        O 2405 1.650    N 2406 1.279    C 2389 0.949
  2405  O   1.987        C 2404 1.650    N 2406 0.198
  2406  N   3.439        C 2404 1.279    C 2408 0.977    H 2407 0.892    O 2405 0.198
  2407  H   0.948        N 2406 0.892
  2408  C   3.965        N 2406 0.977    C 2418 0.954    H 2409 0.949    C 2410 0.943
  2409  H   0.990        C 2408 0.949
  2410  C   3.964        C 2412 1.010    O 2416 0.996    H 2411 0.970    C 2408 0.943
  2411  H   0.999        C 2410 0.970
  2412  C   3.987        C 2410 1.010    H 2415 0.983    H 2414 0.980    H 2413 0.979
  2413  H   0.996        C 2412 0.979
  2414  H   0.995        C 2412 0.980
  2415  H   0.999        C 2412 0.983
  2416  O   1.947        C 2410 0.996    H 2417 0.869
  2417  H   0.887        O 2416 0.869
  2418  C   3.947        O 2419 1.587    N 2420 1.316    C 2408 0.954
  2419  O   1.954        C 2418 1.587    N 2420 0.193
  2420  N   3.471        C 2418 1.316    C 2422 0.981    H 2421 0.886    O 2419 0.193
  2421  H   0.950        N 2420 0.886
  2422  C   3.959        N 2420 0.981    H 2423 0.949    C 2424 0.946    C 2432 0.933
  2423  H   0.994        C 2422 0.949
  2424  C   3.957        C 2426 1.009    O 2430 1.000    H 2425 0.952    C 2422 0.946
  2425  H   0.998        C 2424 0.952
  2426  C   3.988        C 2424 1.009    H 2429 0.983    H 2428 0.982    H 2427 0.979
  2427  H   0.995        C 2426 0.979
  2428  H   0.998        C 2426 0.982
  2429  H   0.998        C 2426 0.983
  2430  O   1.938        C 2424 1.000    H 2431 0.816
  2431  H   0.895        O 2430 0.816
  2432  C   3.955        O 2433 1.629    N 2434 1.318    C 2422 0.933
  2433  O   1.962        C 2432 1.629    N 2434 0.198
  2434  N   3.466        C 2432 1.318    C 2436 0.955    H 2435 0.900    O 2433 0.198
  2435  H   0.951        N 2434 0.900
  2436  C   3.952        C 2438 0.969    N 2434 0.955    C 2452 0.944    H 2437 0.942
  2437  H   0.992        C 2436 0.942
  2438  C   3.980        C 2441 1.016    C 2436 0.969    H 2440 0.966    H 2439 0.945
  2439  H   0.992        C 2438 0.945
  2440  H   0.993        C 2438 0.966
  2441  C   3.986        C 2450 1.441    C 2442 1.359    C 2438 1.016    C 2446 0.122
  2442  C   3.988        C 2444 1.487    C 2441 1.359    H 2443 0.964    C 2448 0.116
  2443  H   0.998        C 2442 0.964
  2444  C   3.991        C 2442 1.487    C 2446 1.421    H 2445 0.965
  2445  H   0.997        C 2444 0.965
  2446  C   3.989        C 2448 1.434    C 2444 1.421    H 2447 0.972    C 2441 0.122
  2447  H   0.998        C 2446 0.972
  2448  C   3.989        C 2450 1.438    C 2446 1.434    H 2449 0.969    C 2442 0.116
  2449  H   0.997        C 2448 0.969
  2450  C   3.990        C 2441 1.441    C 2448 1.438    H 2451 0.961
  2451  H   0.998        C 2450 0.961
  2452  C   3.955        O 2453 1.580    N 2454 1.342    C 2436 0.944
  2453  O   1.941        C 2452 1.580    N 2454 0.194
  2454  N   3.507        C 2452 1.342    C 2456 0.990    H 2455 0.888    O 2453 0.194
  2455  H   0.947        N 2454 0.888
  2456  C   3.959        N 2454 0.990    C 2458 0.978    H 2457 0.948    C 2476 0.905
  2457  H   0.990        C 2456 0.948
  2458  C   3.983        C 2461 1.011    C 2456 0.978    H 2459 0.970    H 2460 0.962
  2459  H   0.996        C 2458 0.970
  2460  H   0.994        C 2458 0.962
  2461  C   3.986        C 2458 1.011    C 2464 0.983    H 2463 0.971    H 2462 0.971
  2462  H   0.993        C 2461 0.971
  2463  H   0.996        C 2461 0.971
  2464  C   3.946        C 2461 0.983    N 2467 0.983    H 2466 0.966    H 2465 0.961
  2465  H   0.992        C 2464 0.961
  2466  H   0.991        C 2464 0.966
  2467  N   3.475        C 2469 1.324    C 2464 0.983    H 2468 0.911    N 2473 0.107
  2468  H   0.943        N 2467 0.911
  2469  C   3.978        N 2473 1.332    N 2467 1.324    N 2470 1.297
  2470  N   3.387        C 2469 1.297    H 2471 0.927    H 2472 0.914    N 2473 0.101
  2471  H   0.953        N 2470 0.927
  2472  H   0.942        N 2470 0.914
  2473  N   3.397        C 2469 1.332    H 2475 0.923    H 2474 0.858    N 2467 0.107    N 2470 0.101
  2474  H   0.933        N 2473 0.858
  2475  H   0.946        N 2473 0.923
  2476  C   3.941        O 2477 1.659    N 2478 1.305    C 2456 0.905
  2477  O   1.970        C 2476 1.659    N 2478 0.200
  2478  N   3.434        C 2476 1.305    C 2480 0.945    H 2479 0.891    O 2477 0.200
  2479  H   0.946        N 2478 0.891
  2480  C   3.966        C 2482 0.974    H 2481 0.958    N 2478 0.945    C 2490 0.935
  2481  H   0.993        C 2480 0.958
  2482  C   3.958        O 2488 0.991    C 2484 0.984    C 2480 0.974    H 2483 0.958
  2483  H   0.998        C 2482 0.958
  2484  C   3.988        H 2486 0.987    C 2482 0.984    H 2487 0.983    H 2485 0.981
  2485  H   0.995        C 2484 0.981
  2486  H   0.998        C 2484 0.987
  2487  H   0.998        C 2484 0.983
  2488  O   1.959        C 2482 0.991    H 2489 0.863
  2489  H   0.897        O 2488 0.863
  2490  C   3.952        O 2491 1.647    N 2492 1.298    C 2480 0.935
  2491  O   1.966        C 2490 1.647    N 2492 0.195
  2492  N   3.464        C 2490 1.298    C 2494 0.990    H 2493 0.911    O 2491 0.195
  2493  H   0.952        N 2492 0.911
  2494  C   3.953        N 2492 0.990    H 2496 0.954    H 2495 0.951    C 2497 0.928
  2495  H   0.989        C 2494 0.951
  2496  H   0.990        C 2494 0.954
  2497  C   3.949        O 2498 1.622    N 2499 1.338    C 2494 0.928
  2498  O   1.940        C 2497 1.622    N 2499 0.192
  2499  N   3.473        C 2497 1.338    C 2501 0.958    H 2500 0.900    O 2498 0.192
  2500  H   0.952        N 2499 0.900
  2501  C   3.973        C 2503 0.965    N 2499 0.958    C 2511 0.957    H 2502 0.943
  2502  H   0.992        C 2501 0.943
  2503  C   3.962        O 2509 1.012    C 2505 0.985    C 2501 0.965    H 2504 0.945
  2504  H   0.998        C 2503 0.945
  2505  C   3.987        H 2507 0.986    C 2503 0.985    H 2506 0.982    H 2508 0.980
  2506  H   0.995        C 2505 0.982
  2507  H   0.996        C 2505 0.986
  2508  H   0.996        C 2505 0.980
  2509  O   1.954        C 2503 1.012    H 2510 0.849
  2510  H   0.876        O 2509 0.849
  2511  C   3.951        O 2512 1.592    N 2513 1.313    C 2501 0.957
  2512  O   1.968        C 2511 1.592    N 2513 0.188
  2513  N   3.476        C 2511 1.313    C 2515 0.979    H 2514 0.919    O 2512 0.188
  2514  H   0.953        N 2513 0.919
  2515  C   3.953        N 2513 0.979    C 2517 0.975    H 2516 0.945    C 2535 0.903
  2516  H   0.994        C 2515 0.945
  2517  C   3.985        C 2520 1.010    C 2515 0.975    H 2519 0.972    H 2518 0.962
  2518  H   0.995        C 2517 0.962
  2519  H   0.996        C 2517 0.972
  2520  C   3.962        C 2521 1.576    C 2534 1.178    C 2517 1.010
  2521  C   3.955        C 2520 1.576    N 2523 1.228    H 2522 0.965
  2522  H   0.996        C 2521 0.965
  2523  N   3.553        C 2521 1.228    C 2525 1.169    H 2524 0.932
  2524  H   0.961        N 2523 0.932
  2525  C   3.956        C 2526 1.318    C 2534 1.254    N 2523 1.169
  2526  C   3.985        C 2528 1.508    C 2525 1.318    H 2527 0.969    C 2532 0.111
  2527  H   0.998        C 2526 0.969
  2528  C   3.988        C 2526 1.508    C 2530 1.364    H 2529 0.968
  2529  H   0.997        C 2528 0.968
  2530  C   3.986        C 2532 1.492    C 2528 1.364    H 2531 0.964
  2531  H   0.997        C 2530 0.964
  2532  C   3.991        C 2530 1.492    C 2534 1.353    H 2533 0.968    C 2526 0.111
  2533  H   1.000        C 2532 0.968
  2534  C   3.983        C 2532 1.353    C 2525 1.254    C 2520 1.178
  2535  C   3.945        O 2536 1.606    N 2537 1.365    C 2515 0.903
  2536  O   1.927        C 2535 1.606    N 2537 0.202
  2537  N   3.482        C 2535 1.365    C 2539 0.935    H 2538 0.887    O 2536 0.202
  2538  H   0.949        N 2537 0.887
  2539  C   3.955        C 2541 0.978    H 2540 0.961    N 2537 0.935    C 2547 0.933
  2540  H   0.995        C 2539 0.961
  2541  C   3.981        C 2539 0.978    H 2542 0.976    H 2543 0.963    C 2544 0.914
  2542  H   0.999        C 2541 0.976
  2543  H   0.998        C 2541 0.963
  2544  C   3.941        O 2545 1.523    O 2546 1.484    C 2541 0.914
  2545  O   1.820        C 2544 1.523    O 2546 0.222
  2546  O   1.777        C 2544 1.484    O 2545 0.222
  2547  C   3.950        O 2548 1.663    N 2549 1.283    C 2539 0.933
  2548  O   1.980        C 2547 1.663    N 2549 0.198
  2549  N   3.448        C 2547 1.283    C 2551 0.960    H 2550 0.923    O 2548 0.198
  2550  H   0.955        N 2549 0.923
  2551  C   3.947        C 2553 0.986    N 2549 0.960    H 2552 0.949    C 2557 0.930
  2552  H   0.991        C 2551 0.949
  2553  C   3.973        C 2551 0.986    H 2555 0.983    H 2554 0.981    H 2556 0.969
  2554  H   0.994        C 2553 0.981
  2555  H   0.994        C 2553 0.983
  2556  H   0.991        C 2553 0.969
  2557  C   3.947        O 2558 1.656    N 2559 1.277    C 2551 0.930
  2558  O   1.976        C 2557 1.656    N 2559 0.195
  2559  N   3.467        C 2557 1.277    C 2561 0.992    H 2560 0.929    O 2558 0.195
  2560  H   0.970        N 2559 0.929
  2561  C   3.949        N 2559 0.992    H 2562 0.953    C 2563 0.943    C 2578 0.900
  2562  H   0.993        C 2561 0.953
  2563  C   3.983        C 2566 1.015    H 2565 0.976    H 2564 0.962    C 2561 0.943
  2564  H   0.995        C 2563 0.962
  2565  H   0.998        C 2563 0.976
  2566  C   3.982        C 2576 1.415    C 2567 1.400    C 2563 1.015
  2567  C   3.988        C 2569 1.450    C 2566 1.400    H 2568 0.970    C 2574 0.106
  2568  H   0.998        C 2567 0.970
  2569  C   3.982        C 2567 1.450    C 2571 1.348    H 2570 0.962    C 2576 0.115
  2570  H   0.994        C 2569 0.962
  2571  C   3.945        C 2574 1.380    C 2569 1.348    O 2572 1.097
  2572  O   2.118        C 2571 1.097    H 2573 0.834
  2573  H   0.887        O 2572 0.834
  2574  C   3.983        C 2576 1.421    C 2571 1.380    H 2575 0.960    C 2567 0.106
  2575  H   0.998        C 2574 0.960
  2576  C   3.987        C 2574 1.421    C 2566 1.415    H 2577 0.967    C 2569 0.115
  2577  H   0.999        C 2576 0.967
  2578  C   3.940        O 2579 1.624    N 2580 1.341    C 2561 0.900
  2579  O   1.943        C 2578 1.624    N 2580 0.198
  2580  N   3.482        C 2578 1.341    C 2582 0.949    H 2581 0.928    O 2579 0.198
  2581  H   0.962        N 2580 0.928
  2582  C   3.937        C 2584 0.976    H 2583 0.966    N 2580 0.949    C 2600 0.905
  2583  H   0.998        C 2582 0.966
  2584  C   3.991        C 2587 1.008    C 2582 0.976    H 2585 0.976    H 2586 0.972
  2585  H   0.998        C 2584 0.976
  2586  H   0.998        C 2584 0.972
  2587  C   3.994        C 2584 1.008    C 2590 1.005    H 2588 0.975    H 2589 0.973
  2588  H   0.998        C 2587 0.975
  2589  H   0.999        C 2587 0.973
  2590  C   3.984        C 2587 1.005    C 2593 1.001    H 2591 0.973    H 2592 0.973
  2591  H   0.994        C 2590 0.973
  2592  H   0.993        C 2590 0.973
  2593  C   3.909        C 2590 1.001    H 2594 0.966    H 2595 0.962    N 2596 0.956
  2594  H   0.989        C 2593 0.966
  2595  H   0.986        C 2593 0.962
  2596  N   3.648        C 2593 0.956    H 2598 0.892    H 2597 0.891    H 2599 0.889
  2597  H   0.907        N 2596 0.891
  2598  H   0.914        N 2596 0.892
  2599  H   0.903        N 2596 0.889
  2600  C   3.939        O 2602 1.528    O 2601 1.472    C 2582 0.905
  2601  O   1.772        C 2600 1.472    O 2602 0.225
  2602  O   1.826        C 2600 1.528    O 2601 0.225

molecular dipole:
                 x           y           z       tot (Debye)
 q only:      603.709     679.935     676.339
   full:      603.947     680.489     686.740    2897.401
molecular quadrupole (traceless):
                xx          xy          yy          xz          yz          zz
 q only:   -10205.310   71079.359    5765.080   72658.556   82671.167    4440.230
  q+dip:   -11202.128   70727.083    4977.615   73572.488   83733.687    6224.512
   full:   -11190.238   70723.180    4956.103   73571.284   83735.673    6234.135


           -------------------------------------------------
          | TOTAL ENERGY            -4085.442870759718 Eh   |
          | GRADIENT NORM               1.253865759439 Eh/α |
          | HOMO-LUMO GAP               2.030812084319 eV   |
           -------------------------------------------------
########################################################################
[WARNING] Runtime exception occurred
-2- restart_readRestart: Dimension missmatch in restart file.
-1- restart_readRestart: Number of electron missmatch in restart file.
########################################################################

------------------------------------------------------------------------
 * finished run on 2020/06/09 at 15:16:10.468     
------------------------------------------------------------------------
 total:
 * wall-time:     0 d,  0 h,  7 min, 10.455 sec
 *  cpu-time:     0 d,  5 h, 23 min, 21.292 sec
 * ratio c/w:    45.072 speedup
 SCF:
 * wall-time:     0 d,  0 h,  6 min, 39.656 sec
 *  cpu-time:     0 d,  5 h, 11 min, 28.568 sec
 * ratio c/w:    46.762 speedup

