      -----------------------------------------------------------      
     |                   =====================                   |     
     |                           x T B                           |     
     |                   =====================                   |     
     |                         S. Grimme                         |     
     |          Mulliken Center for Theoretical Chemistry        |     
     |                    University of Bonn                     |     
      -----------------------------------------------------------      

   * xtb version 6.2.3 (d7bf61a) compiled by 'conda@06d140edd85e' on 2020-05-12

   xtb is free software: you can redistribute it and/or modify it under
   the terms of the GNU Lesser General Public License as published by
   the Free Software Foundation, either version 3 of the License, or
   (at your option) any later version.
   
   xtb is distributed in the hope that it will be useful,
   but WITHOUT ANY WARRANTY; without even the implied warranty of
   MERCHANTABILITY or FITNESS FOR A PARTICULAR PURPOSE.  See the
   GNU Lesser General Public License for more details.
   
   Cite this work as:
   * S. Grimme, C. Bannwarth, P. Shushkov, J. Chem. Theory Comput., 2017,
     13, 1989-2009. DOI: 10.1021/acs.jctc.7b00118
   * C. Bannwarth, S. Ehlert and S. Grimme., J. Chem. Theory Comput., 2019,
     15, 1652-1671. DOI: 10.1021/acs.jctc.8b01176
   * P. Pracht, E. Caldeweyher, S. Ehlert, S. Grimme, ChemRxiv, 2019, preprint.
     DOI: 10.26434/chemrxiv.8326202.v1
   
   for DFT-D4:
   * E. Caldeweyher, C. Bannwarth and S. Grimme, J. Chem. Phys., 2017,
     147, 034112. DOI: 10.1063/1.4993215
   * E. Caldeweyher, S. Ehlert, A. Hansen, H. Neugebauer, S. Spicher,
     C. Bannwarth and S. Grimme, J. Chem. Phys., 2019, 150, 154122.
     DOI: 10.1063/1.5090222
   
   for sTDA-xTB:
   * S. Grimme and C. Bannwarth, J. Chem. Phys., 2016, 145, 054103.
     DOI: 10.1063/1.4959605
   
   in the mass-spec context:
   * V. Asgeirsson, C. Bauer and S. Grimme, Chem. Sci., 2017, 8, 4879.
     DOI: 10.1039/c7sc00601b
   
   for metadynamics refer to:
   * S. Grimme, J. Chem. Theory Comput., 2019, 155, 2847-2862
     DOI: 10.1021/acs.jctc.9b00143
   
   with help from (in alphabetical order)
   C. Bannwarth, F. Bohle, G. Brandenburg, E. Caldeweyher, M. Checinski,
   S. Dohm, S. Ehlert, S. Ehrlich, F. März, H. Neugebauer, J. Pisarek,
   P. Pracht, P. Shushkov, and S. Spicher.
   
 * started run on 2020/06/09 at 09:06:02.524     

           -------------------------------------------------
          |                Calculation Setup                |
           -------------------------------------------------

          program call               : xtb host_17581.xyz --chrg +9 --uhf 0 --gbsa water
          hostname                   : gold58.cluster.local
          coordinate file            : host_17581.xyz
          omp threads                :                    64
          number of atoms            :                  2602
          number of electrons        :                  7192
          charge                     :                     9
          spin                       :                   0.0
          first test random number   :      0.52731154999309

########################################################################
[WARNING] Please study the warnings concerning your input carefully
-2- prog_main: XTBPATH is not set, using XTBHOME instead
-1- prog_main: XTBHOME is not set, using HOME instead
########################################################################
           ------------------------------------------------- 
          |                 G F N 2 - x T B                 |
          | Geometry, Frequencies, Noncovalent interactions |
          |            JCTC 2019 parametrisation            |
           ------------------------------------------------- 
             k(s)              :                1.8500
             k(p)              :                2.2300
             k(d)              :                2.2300
             k(f)              :                2.0000
             kEN (H0ij)        :               -2.0000
             D4 a1             :                0.5200
             D4 a2             :                5.0000
             D4 s6             :                1.0000
             D4 s8             :                2.7000
             D4 s9             :                5.0000
             alphaj            :                2.0000

  Z AO/shell   Hii/eV     exponent
  1     Wed Apr 25 08:07:45 CEST 2018   EN: 2.200 GM2: 0.406  GM3: 0.0800  RAES: 1.40
     1s    -10.707211    1.230000
  6     Wed Apr 25 08:07:45 CEST 2018   EN: 2.550 GM2: 0.538  GM3: 0.1500  RAES: 3.00
     2s    -13.970922    2.096432
     2p    -10.063292    1.800000
  7     Wed Apr 25 08:07:45 CEST 2018   EN: 3.040 GM2: 0.461  GM3:-0.0640  RAES: 1.90
     2s    -16.686243    2.339881
     2p    -12.523956    2.014332
  8     Wed Apr 25 08:07:45 CEST 2018   EN: 3.440 GM2: 0.452  GM3:-0.0517  RAES: 1.80
     2s    -20.229985    2.439742
     2p    -15.503117    2.137023
 16     Tue Apr 24 11:44:34 CEST 2018   EN: 2.580 GM2: 0.340  GM3:-0.0502  RAES: 3.10
     3s    -20.029654    1.981333
     3p    -11.377694    2.025643
     3d     -0.420282    1.702555

 Solvent             : water
 Using internal parameter file: .param_gbsa2_water
 Gsolv ref. state (COSMO-RS): gsolv [1 M gas/solution]
 temperature (mdtemp)       :    298.14999999999998     
 dielectric constant        :    80.200000000000003     
 rho                        :    1.0000000000000000     
 mass                       :    18.000000000000000     
 surface tension            :    15.568945408385856     
 probe radius               :   0.97531378999999996     
 Gshift (Eh)                :    1.8574431267947933E-003
 c1                         :    1.5524381700000001     
 soset                      :   0.13032636000000000     
 HB correction              :  T
           ------------------------------------------------- 
          |        Self-Consistent Charge Iterations        |
           ------------------------------------------------- 

          ...................................................
          :                      SETUP                      :
          :.................................................:
          :  # basis functions                6511          :
          :  # atomic orbitals                6505          :
          :  # shells                         3899          :
          :  # electrons                      7192          :
          :  max. iterations                   250          :
          :  Hamiltonian                  GFN2-xTB          :
          :  restarted?                      false          :
          :  GBSA solvation                   true          :
          :  PC potential                    false          :
          :  electronic temp.          300.0000000     K    :
          :  accuracy                    1.0000000          :
          :  -> integral cutoff          0.2500000E+02      :
          :  -> integral neglect         0.1000000E-07      :
          :  -> SCF convergence          0.1000000E-05 Eh   :
          :  -> wf. convergence          0.1000000E-03 e    :
          :  Broyden damping             0.4000000          :
          ...................................................

 iter      E             dE          RMSdq      gap      omega  full diag
   1  -4120.6668192 -0.412067E+04  0.427E+00    2.31       0.0  T
   2  -4132.9530622 -0.122862E+02  0.226E+00    2.48       1.0  T
   3  -4133.4252142 -0.472152E+00  0.119E+00    2.48       1.0  T
   4  -4133.4939009 -0.686868E-01  0.285E-01    1.94       1.0  T
   5  -4133.5935440 -0.996431E-01  0.141E-01    2.01       1.0  T
   6  -4133.6073767 -0.138327E-01  0.727E-02    1.98       1.0  T
   7  -4133.6095526 -0.217584E-02  0.372E-02    1.93       1.0  T
   8  -4133.6106009 -0.104836E-02  0.166E-02    1.90       1.0  T
   9  -4133.6107441 -0.143137E-03  0.100E-02    1.88       1.0  T
  10  -4133.6108238 -0.797075E-04  0.531E-03    1.86       1.0  T
  11  -4133.6108459 -0.221171E-04  0.255E-03    1.85       1.0  T
  12  -4133.6108511 -0.517794E-05  0.137E-03    1.85       1.4  T
  13  -4133.6108525 -0.144246E-05  0.734E-04    1.85       2.7  T
  14  -4133.6108529 -0.429994E-06  0.368E-04    1.85       5.3  T
  15  -4133.6108531 -0.120734E-06  0.184E-04    1.85      10.7  T

   *** convergence criteria satisfied after 15 iterations ***

         #    Occupation            Energy/Eh            Energy/eV
      -------------------------------------------------------------
         1        2.0000           -0.7664580             -20.8564
       ...           ...                  ...                  ...
      3590        2.0000           -0.3573172              -9.7231
      3591        2.0000           -0.3571712              -9.7191
      3592        2.0000           -0.3563033              -9.6955
      3593        2.0000           -0.3554593              -9.6725
      3594        2.0000           -0.3545795              -9.6486
      3595        2.0000           -0.3514546              -9.5636
      3596        2.0000           -0.3462188              -9.4211 (HOMO)
      3597                         -0.2782816              -7.5724 (LUMO)
      3598                         -0.2764720              -7.5232
      3599                         -0.2688052              -7.3146
      3600                         -0.2651016              -7.2138
      3601                         -0.2633909              -7.1672
       ...                                ...                  ...
      6505                          0.8029513              21.8494
      -------------------------------------------------------------
                  HL-Gap            0.0679372 Eh            1.8487 eV
             Fermi-level           -0.3122502 Eh           -8.4968 eV

 SCC (total)                   0 d,  0 h,  6 min, 39.951 sec
 SCC setup                      ...        0 min,  3.108 sec (  0.777%)
 Dispersion                     ...        0 min,  1.955 sec (  0.489%)
 integral evaluation            ...        0 min, 11.456 sec (  2.864%)
 zeroth order Hamiltonian       ...        0 min,  0.341 sec (  0.085%)
 iterations                     ...        6 min,  5.932 sec ( 91.494%)
 molecular gradient             ...        0 min, 16.535 sec (  4.134%)
 printout                       ...        0 min,  0.622 sec (  0.156%)

         :::::::::::::::::::::::::::::::::::::::::::::::::::::
         ::                     SUMMARY                     ::
         :::::::::::::::::::::::::::::::::::::::::::::::::::::
         :: total energy           -4085.280323865503 Eh    ::
         :: total w/o Gsasa/hb     -4084.880582776078 Eh    ::
         :: gradient norm              1.328087351233 Eh/a0 ::
         :: HOMO-LUMO gap              1.848664997865 eV    ::
         ::.................................................::
         :: SCC energy             -4133.675085174586 Eh    ::
         :: -> isotropic ES           14.175245079992 Eh    ::
         :: -> anisotropic ES         -0.764091440491 Eh    ::
         :: -> anisotropic XC          1.144430707427 Eh    ::
         :: -> dispersion             -3.909410362706 Eh    ::
         :: -> Gsolv                  -4.063515815815 Eh    ::
         ::    -> Gborn               -3.663774726389 Eh    ::
         ::    -> Gsasa               -0.066089551050 Eh    ::
         ::    -> Ghb                 -0.335508981503 Eh    ::
         ::    -> Gshift               0.001857443127 Eh    ::
         :: repulsion energy          47.859900536754 Eh    ::
         :: add. restraining           0.000000000000 Eh    ::
         :::::::::::::::::::::::::::::::::::::::::::::::::::::

           -------------------------------------------------
          |                Property Printout                |
           -------------------------------------------------

    * Orbital Energies and Occupations

         #    Occupation            Energy/Eh            Energy/eV
      -------------------------------------------------------------
         1        2.0000           -0.7664580             -20.8564
       ...           ...                  ...                  ...
      3584        2.0000           -0.3682346             -10.0202
      3585        2.0000           -0.3681793             -10.0187
      3586        2.0000           -0.3671740              -9.9913
      3587        2.0000           -0.3647106              -9.9243
      3588        2.0000           -0.3644062              -9.9160
      3589        2.0000           -0.3594978              -9.7824
      3590        2.0000           -0.3573172              -9.7231
      3591        2.0000           -0.3571712              -9.7191
      3592        2.0000           -0.3563033              -9.6955
      3593        2.0000           -0.3554593              -9.6725
      3594        2.0000           -0.3545795              -9.6486
      3595        2.0000           -0.3514546              -9.5636
      3596        2.0000           -0.3462188              -9.4211 (HOMO)
      3597                         -0.2782816              -7.5724 (LUMO)
      3598                         -0.2764720              -7.5232
      3599                         -0.2688052              -7.3146
      3600                         -0.2651016              -7.2138
      3601                         -0.2633909              -7.1672
      3602                         -0.2628722              -7.1531
      3603                         -0.2618111              -7.1242
      3604                         -0.2606566              -7.0928
      3605                         -0.2586929              -7.0394
      3606                         -0.2583193              -7.0292
      3607                         -0.2582198              -7.0265
       ...                                ...                  ...
      6505                          0.8029513              21.8494
      -------------------------------------------------------------
                  HL-Gap            0.0679372 Eh            1.8487 eV
             Fermi-level           -0.3122502 Eh           -8.4968 eV

     #   Z        covCN         q      C6AA      α(0)
     1   7 N      3.504    -0.148    24.197     7.306
     2   1 H      0.860     0.306     0.694     1.305
     3   1 H      0.860     0.309     0.687     1.298
     4   1 H      0.860     0.320     0.657     1.270
     5   6 C      3.798    -0.029    21.103     6.541
     6   1 H      0.925     0.118     1.627     1.995
     7   6 C      3.826    -0.103    22.436     6.740
     8   1 H      0.925     0.110     1.694     2.035
     9   1 H      0.924     0.104     1.745     2.066
    10   6 C      3.797    -0.041    21.306     6.572
    11   1 H      0.924     0.077     2.008     2.216
    12   1 H      0.925     0.076     2.018     2.222
    13  16 S      1.952    -0.200   149.564    20.583
    14   6 C      3.747    -0.034    21.254     6.576
    15   1 H      0.925     0.049     2.335     2.390
    16   1 H      0.925     0.037     2.483     2.464
    17   1 H      0.925     0.024     2.675     2.558
    18   6 C      2.764     0.267    22.502     7.768
    19   8 O      0.861    -0.416    21.998     6.288
    20   7 N      2.693    -0.171    24.699     7.381
    21   1 H      0.860     0.206     1.077     1.625
    22   6 C      3.795     0.014    20.345     6.423
    23   1 H      0.925     0.104     1.748     2.068
    24   6 C      3.816    -0.121    22.794     6.795
    25   1 H      0.924     0.109     1.709     2.045
    26   1 H      0.925     0.098     1.800     2.098
    27   6 C      2.743     0.280    22.262     7.725
    28   8 O      0.863    -0.516    24.146     6.588
    29   7 N      2.646    -0.266    26.896     7.702
    30   1 H      0.860     0.225     0.985     1.555
    31   1 H      0.860     0.244     0.905     1.490
    32   6 C      2.749     0.278    22.298     7.732
    33   8 O      0.860    -0.479    23.316     6.474
    34   7 N      2.680    -0.193    25.191     7.454
    35   1 H      0.860     0.216     1.026     1.587
    36   6 C      3.784     0.008    20.456     6.443
    37   1 H      0.924     0.102     1.769     2.080
    38   6 C      3.847    -0.039    21.233     6.554
    39   1 H      0.924     0.084     1.937     2.176
    40   6 C      3.762    -0.124    22.915     6.824
    41   1 H      0.925     0.059     2.215     2.328
    42   1 H      0.924     0.036     2.499     2.472
    43   1 H      0.925     0.037     2.491     2.468
    44   6 C      3.801    -0.075    21.930     6.667
    45   1 H      0.925     0.041     2.439     2.442
    46   1 H      0.924     0.062     2.174     2.306
    47   6 C      3.741    -0.123    22.933     6.832
    48   1 H      0.924     0.052     2.289     2.366
    49   1 H      0.924     0.059     2.212     2.326
    50   1 H      0.925     0.038     2.474     2.460
    51   6 C      2.758     0.268    22.471     7.763
    52   8 O      0.859    -0.520    24.243     6.601
    53   7 N      2.693    -0.169    24.652     7.374
    54   1 H      0.860     0.213     1.042     1.599
    55   6 C      3.794     0.030    20.071     6.380
    56   1 H      0.925     0.083     1.946     2.181
    57   6 C      3.809    -0.070    21.829     6.651
    58   1 H      0.924     0.060     2.205     2.322
    59   1 H      0.925     0.069     2.100     2.266
    60   6 C      2.953    -0.002    28.076     8.691
    61   6 C      2.906    -0.049    29.227     8.865
    62   1 H      0.926     0.044     2.398     2.422
    63   6 C      2.900    -0.032    28.785     8.797
    64   1 H      0.926     0.042     2.427     2.436
    65   6 C      2.911    -0.040    28.990     8.829
    66   1 H      0.926     0.039     2.456     2.451
    67   6 C      2.906    -0.035    28.863     8.809
    68   1 H      0.926     0.045     2.389     2.417
    69   6 C      2.911    -0.038    28.945     8.822
    70   1 H      0.926     0.035     2.523     2.484
    71   6 C      2.753     0.272    22.406     7.751
    72   8 O      0.861    -0.485    23.456     6.493
    73   7 N      2.684    -0.196    25.264     7.465
    74   1 H      0.860     0.220     1.009     1.574
    75   6 C      3.782     0.031    20.072     6.382
    76   1 H      0.925     0.080     1.978     2.199
    77   6 C      3.804    -0.063    21.704     6.632
    78   1 H      0.925     0.062     2.178     2.308
    79   1 H      0.924     0.074     2.041     2.234
    80   6 C      3.793    -0.091    22.241     6.716
    81   1 H      0.924     0.012     2.853     2.642
    82   1 H      0.925     0.049     2.338     2.391
    83   6 C      2.678     0.353    21.011     7.501
    84   8 O      0.856    -0.603    26.196     6.862
    85   8 O      0.856    -0.653    27.465     7.026
    86   6 C      2.754     0.263    22.562     7.778
    87   8 O      0.858    -0.514    24.097     6.581
    88   7 N      2.687    -0.189    25.090     7.439
    89   1 H      0.860     0.222     0.998     1.565
    90   6 C      3.793     0.027    20.128     6.389
    91   1 H      0.924     0.062     2.171     2.304
    92   6 C      3.816    -0.075    21.911     6.662
    93   1 H      0.924     0.059     2.208     2.324
    94   1 H      0.925     0.065     2.142     2.289
    95   6 C      3.792    -0.018    20.900     6.511
    96   1 H      0.925     0.037     2.486     2.466
    97   1 H      0.924     0.038     2.479     2.462
    98  16 S      1.951    -0.170   148.244    20.492
    99   6 C      3.741    -0.076    22.024     6.696
   100   1 H      0.925     0.081     1.974     2.197
   101   1 H      0.925     0.060     2.204     2.321
   102   1 H      0.925     0.066     2.130     2.282
   103   6 C      2.750     0.286    22.162     7.709
   104   8 O      0.860    -0.506    23.912     6.556
   105   7 N      2.688    -0.183    24.957     7.420
   106   1 H      0.860     0.227     0.978     1.549
   107   6 C      3.783     0.019    20.267     6.413
   108   1 H      0.925     0.080     1.978     2.200
   109   6 C      3.798    -0.082    22.063     6.688
   110   1 H      0.925     0.064     2.157     2.297
   111   1 H      0.924     0.067     2.117     2.275
   112   6 C      3.837    -0.021    20.928     6.508
   113   1 H      0.925     0.057     2.233     2.337
   114   6 C      3.741    -0.125    22.984     6.840
   115   1 H      0.924     0.028     2.612     2.527
   116   1 H      0.925     0.062     2.181     2.310
   117   1 H      0.925     0.031     2.574     2.509
   118   6 C      3.752    -0.126    22.980     6.836
   119   1 H      0.924     0.049     2.332     2.388
   120   1 H      0.924     0.051     2.303     2.373
   121   1 H      0.925     0.058     2.217     2.329
   122   6 C      2.745     0.267    22.494     7.766
   123   8 O      0.859    -0.486    23.467     6.495
   124   7 N      2.687    -0.171    24.705     7.382
   125   1 H      0.860     0.192     1.149     1.679
   126   6 C      3.785     0.017    20.308     6.419
   127   1 H      0.925     0.100     1.781     2.087
   128   6 C      3.792    -0.071    21.869     6.660
   129   1 H      0.925     0.082     1.960     2.189
   130   1 H      0.924     0.047     2.363     2.404
   131   6 C      3.794    -0.097    22.352     6.732
   132   1 H      0.924     0.068     2.109     2.271
   133   1 H      0.925     0.075     2.029     2.227
   134   6 C      3.734    -0.032    21.239     6.577
   135   1 H      0.925     0.096     1.822     2.111
   136   1 H      0.925     0.100     1.786     2.090
   137   7 N      2.693    -0.127    23.753     7.238
   138   1 H      0.860     0.234     0.946     1.524
   139   6 C      2.736     0.239    23.000     7.852
   140   7 N      2.701    -0.293    27.545     7.795
   141   1 H      0.860     0.243     0.909     1.494
   142   1 H      0.860     0.225     0.988     1.557
   143   7 N      2.701    -0.279    27.210     7.747
   144   1 H      0.860     0.255     0.863     1.455
   145   1 H      0.860     0.227     0.977     1.548
   146   6 C      2.749     0.264    22.550     7.776
   147   8 O      0.860    -0.528    24.421     6.626
   148   7 N      2.688    -0.175    24.796     7.396
   149   1 H      0.860     0.212     1.048     1.604
   150   6 C      3.791     0.019    20.270     6.412
   151   1 H      0.924     0.079     1.990     2.206
   152   6 C      3.849    -0.013    20.776     6.483
   153   1 H      0.925     0.041     2.437     2.441
   154   6 C      3.757    -0.116    22.772     6.804
   155   1 H      0.924     0.045     2.383     2.414
   156   1 H      0.925     0.055     2.259     2.350
   157   1 H      0.924     0.051     2.301     2.372
   158   6 C      3.803    -0.056    21.580     6.614
   159   1 H      0.925     0.036     2.501     2.473
   160   1 H      0.925     0.031     2.573     2.509
   161   6 C      3.744    -0.094    22.375     6.748
   162   1 H      0.925     0.032     2.563     2.504
   163   1 H      0.924     0.045     2.382     2.414
   164   1 H      0.925     0.025     2.661     2.551
   165   6 C      2.746     0.290    22.083     7.695
   166   8 O      0.869    -0.478    23.307     6.473
   167   7 N      2.694    -0.190    25.118     7.443
   168   1 H      0.860     0.202     1.096     1.640
   169   6 C      3.792     0.037    19.959     6.362
   170   1 H      0.925     0.088     1.901     2.156
   171   6 C      3.805    -0.090    22.219     6.711
   172   1 H      0.925     0.063     2.167     2.302
   173   1 H      0.925     0.040     2.448     2.447
   174   6 C      2.688     0.372    20.687     7.444
   175   8 O      0.857    -0.600    26.110     6.851
   176   8 O      0.858    -0.572    25.436     6.762
   177   6 C      2.751     0.263    22.560     7.778
   178   8 O      0.862    -0.508    23.968     6.564
   179   7 N      2.683    -0.194    25.222     7.459
   180   1 H      0.860     0.200     1.107     1.648
   181   6 C      3.784     0.030    20.084     6.384
   182   1 H      0.924     0.085     1.930     2.173
   183   6 C      3.803    -0.050    21.473     6.597
   184   1 H      0.925     0.048     2.343     2.394
   185   1 H      0.925     0.051     2.311     2.377
   186   6 C      3.802    -0.090    22.212     6.710
   187   1 H      0.925     0.029     2.604     2.524
   188   1 H      0.925     0.030     2.592     2.518
   189   6 C      2.690     0.368    20.756     7.456
   190   8 O      0.857    -0.649    27.362     7.013
   191   8 O      0.857    -0.678    28.107     7.108
   192   6 C      2.748     0.269    22.460     7.760
   193   8 O      0.857    -0.504    23.875     6.551
   194   7 N      2.686    -0.136    23.944     7.267
   195   1 H      0.860     0.202     1.098     1.642
   196   6 C      3.741    -0.040    21.359     6.594
   197   1 H      0.925     0.098     1.800     2.098
   198   1 H      0.925     0.108     1.710     2.045
   199   6 C      2.746     0.277    22.318     7.735
   200   8 O      0.860    -0.463    22.973     6.426
   201   7 N      2.686    -0.190    25.126     7.445
   202   1 H      0.860     0.207     1.073     1.622
   203   6 C      3.777     0.015    20.355     6.428
   204   1 H      0.925     0.057     2.237     2.339
   205   6 C      3.818    -0.088    22.156     6.699
   206   1 H      0.925     0.077     2.011     2.218
   207   1 H      0.924     0.065     2.142     2.289
   208   6 C      3.852    -0.015    20.807     6.488
   209   1 H      0.924     0.050     2.322     2.383
   210   6 C      3.756    -0.121    22.873     6.819
   211   1 H      0.925     0.040     2.455     2.450
   212   1 H      0.925     0.046     2.364     2.405
   213   1 H      0.925     0.022     2.709     2.574
   214   6 C      3.768    -0.141    23.259     6.873
   215   1 H      0.925     0.053     2.286     2.364
   216   1 H      0.925     0.070     2.082     2.256
   217   1 H      0.925     0.051     2.313     2.378
   218   6 C      2.739     0.261    22.591     7.782
   219   8 O      0.859    -0.435    22.382     6.343
   220   7 N      2.682    -0.186    25.027     7.430
   221   1 H      0.860     0.190     1.158     1.686
   222   6 C      3.792     0.007    20.474     6.444
   223   1 H      0.925     0.085     1.926     2.170
   224   6 C      3.809    -0.090    22.215     6.709
   225   1 H      0.925     0.082     1.957     2.188
   226   1 H      0.924     0.068     2.109     2.271
   227   6 C      3.808    -0.091    22.230     6.712
   228   1 H      0.925     0.066     2.129     2.282
   229   1 H      0.924     0.093     1.849     2.126
   230   6 C      3.756    -0.042    21.375     6.592
   231   1 H      0.924     0.107     1.721     2.051
   232   1 H      0.925     0.112     1.676     2.025
   233   7 N      2.718    -0.142    24.065     7.286
   234   1 H      0.860     0.221     1.004     1.569
   235   6 C      2.752     0.237    23.032     7.859
   236   7 N      2.694    -0.264    26.840     7.694
   237   1 H      0.860     0.241     0.917     1.500
   238   1 H      0.860     0.252     0.876     1.466
   239   7 N      2.705    -0.258    26.704     7.675
   240   1 H      0.860     0.250     0.882     1.472
   241   1 H      0.860     0.231     0.962     1.536
   242   6 C      2.749     0.265    22.530     7.772
   243   8 O      0.857    -0.468    23.094     6.443
   244   7 N      2.687    -0.176    24.818     7.399
   245   1 H      0.860     0.223     0.997     1.564
   246   6 C      3.785     0.004    20.524     6.453
   247   1 H      0.925     0.091     1.871     2.139
   248   6 C      3.799    -0.083    22.077     6.690
   249   1 H      0.924     0.071     2.075     2.252
   250   1 H      0.924     0.056     2.242     2.341
   251   6 C      3.844    -0.022    20.929     6.508
   252   1 H      0.925     0.050     2.316     2.380
   253   6 C      3.757    -0.129    23.035     6.843
   254   1 H      0.925     0.053     2.283     2.363
   255   1 H      0.924     0.037     2.496     2.471
   256   1 H      0.925     0.059     2.207     2.323
   257   6 C      3.754    -0.124    22.940     6.830
   258   1 H      0.925     0.045     2.388     2.417
   259   1 H      0.925     0.034     2.526     2.485
   260   1 H      0.924     0.037     2.493     2.469
   261   6 C      2.742     0.266    22.509     7.768
   262   8 O      0.860    -0.474    23.218     6.460
   263   7 N      2.683    -0.169    24.667     7.376
   264   1 H      0.860     0.199     1.110     1.651
   265   6 C      3.775     0.009    20.450     6.443
   266   1 H      0.925     0.092     1.859     2.132
   267   6 C      3.796    -0.081    22.061     6.688
   268   1 H      0.925     0.077     2.010     2.217
   269   1 H      0.924     0.073     2.048     2.238
   270   6 C      3.802    -0.090    22.225     6.712
   271   1 H      0.924     0.061     2.186     2.312
   272   1 H      0.925     0.073     2.050     2.239
   273   6 C      3.793    -0.097    22.366     6.735
   274   1 H      0.925     0.085     1.929     2.172
   275   1 H      0.924     0.081     1.968     2.194
   276   6 C      3.727    -0.065    21.849     6.674
   277   1 H      0.925     0.130     1.537     1.939
   278   1 H      0.924     0.125     1.574     1.962
   279   7 N      3.487    -0.147    24.177     7.303
   280   1 H      0.860     0.289     0.747     1.354
   281   1 H      0.860     0.289     0.745     1.352
   282   1 H      0.860     0.303     0.703     1.314
   283   6 C      2.746     0.251    22.790     7.817
   284   8 O      0.860    -0.490    23.571     6.509
   285   7 N      2.686    -0.172    24.714     7.383
   286   1 H      0.860     0.225     0.986     1.555
   287   6 C      3.791     0.018    20.284     6.414
   288   1 H      0.925     0.054     2.269     2.356
   289   6 C      3.853    -0.037    21.194     6.548
   290   1 H      0.924     0.089     1.885     2.147
   291   6 C      3.749    -0.126    22.982     6.837
   292   1 H      0.924     0.024     2.671     2.556
   293   1 H      0.925     0.048     2.345     2.395
   294   1 H      0.925     0.064     2.154     2.295
   295   6 C      3.807    -0.076    21.940     6.668
   296   1 H      0.925     0.062     2.176     2.307
   297   1 H      0.925     0.028     2.612     2.528
   298   6 C      3.754    -0.129    23.030     6.843
   299   1 H      0.924     0.044     2.398     2.422
   300   1 H      0.925     0.062     2.181     2.310
   301   1 H      0.925     0.037     2.492     2.469
   302   6 C      2.741     0.271    22.419     7.752
   303   8 O      0.857    -0.472    23.172     6.454
   304   7 N      2.690    -0.151    24.273     7.317
   305   1 H      0.860     0.214     1.037     1.595
   306   6 C      3.784     0.013    20.382     6.431
   307   1 H      0.924     0.102     1.765     2.077
   308   6 C      3.810    -0.093    22.271     6.717
   309   1 H      0.925     0.107     1.724     2.054
   310   1 H      0.925     0.075     2.027     2.226
   311   6 C      2.951    -0.006    28.167     8.705
   312   6 C      2.916    -0.047    29.158     8.855
   313   1 H      0.926     0.046     2.372     2.409
   314   6 C      2.903    -0.083    30.083     8.993
   315   1 H      0.926     0.016     2.796     2.615
   316   6 C      2.828     0.126    25.237     8.232
   317   8 O      1.659    -0.435    21.539     6.265
   318   1 H      0.806     0.329     0.639     1.256
   319   6 C      2.902    -0.067    29.660     8.930
   320   1 H      0.926     0.048     2.347     2.396
   321   6 C      2.919    -0.041    29.022     8.834
   322   1 H      0.926     0.080     1.979     2.200
   323   6 C      2.741     0.267    22.489     7.765
   324   8 O      0.857    -0.470    23.129     6.448
   325   7 N      2.678    -0.171    24.693     7.380
   326   1 H      0.860     0.237     0.936     1.515
   327   6 C      3.780     0.022    20.230     6.408
   328   1 H      0.925     0.061     2.188     2.313
   329   6 C      3.797    -0.082    22.077     6.690
   330   1 H      0.925     0.050     2.314     2.379
   331   1 H      0.925     0.086     1.921     2.168
   332   6 C      3.798    -0.083    22.079     6.691
   333   1 H      0.925     0.077     2.008     2.216
   334   1 H      0.925     0.053     2.279     2.361
   335   6 C      3.797    -0.098    22.370     6.735
   336   1 H      0.924     0.090     1.877     2.143
   337   1 H      0.925     0.095     1.828     2.114
   338   6 C      3.733    -0.058    21.710     6.650
   339   1 H      0.924     0.133     1.513     1.923
   340   1 H      0.925     0.101     1.772     2.082
   341   7 N      3.488    -0.152    24.284     7.319
   342   1 H      0.860     0.295     0.730     1.338
   343   1 H      0.860     0.296     0.725     1.334
   344   1 H      0.860     0.296     0.725     1.333
   345   6 C      2.743     0.260    22.610     7.786
   346   8 O      0.862    -0.502    23.820     6.544
   347   7 N      2.703    -0.183    24.954     7.419
   348   1 H      0.860     0.199     1.109     1.650
   349   6 C      3.790     0.053    19.691     6.320
   350   1 H      0.925     0.068     2.110     2.272
   351   6 C      3.826    -0.080    22.012     6.676
   352   1 H      0.925     0.015     2.810     2.621
   353   1 H      0.924     0.050     2.319     2.382
   354   6 C      2.690     0.376    20.638     7.435
   355   8 O      0.860    -0.663    27.728     7.060
   356   8 O      0.858    -0.633    26.951     6.960
   357   6 C      2.751     0.274    22.374     7.745
   358   8 O      0.867    -0.464    23.004     6.431
   359   7 N      2.692    -0.189    25.107     7.442
   360   1 H      0.860     0.185     1.185     1.705
   361   6 C      3.814     0.021    20.209     6.398
   362   1 H      0.925     0.092     1.863     2.134
   363   6 C      3.788     0.126    18.539     6.133
   364   1 H      0.925     0.053     2.286     2.364
   365   6 C      3.766    -0.156    23.565     6.919
   366   1 H      0.925     0.078     2.003     2.213
   367   1 H      0.925     0.060     2.201     2.320
   368   1 H      0.924     0.069     2.095     2.264
   369   8 O      1.665    -0.476    22.370     6.385
   370   1 H      0.806     0.347     0.594     1.211
   371   6 C      2.804     0.275    22.348     7.745
   372   8 O      0.859    -0.491    23.594     6.512
   373   7 N      2.684    -0.187    25.048     7.433
   374   1 H      0.860     0.193     1.145     1.676
   375   6 C      3.784     0.027    20.141     6.393
   376   1 H      0.925     0.085     1.928     2.172
   377   6 C      3.799    -0.041    21.315     6.574
   378   1 H      0.924     0.045     2.388     2.417
   379   1 H      0.924     0.034     2.534     2.490
   380   6 C      3.800    -0.083    22.082     6.691
   381   1 H      0.925     0.025     2.663     2.552
   382   1 H      0.924     0.035     2.510     2.478
   383   6 C      2.693     0.366    20.793     7.463
   384   8 O      0.857    -0.669    27.889     7.080
   385   8 O      0.857    -0.662    27.692     7.055
   386   6 C      2.743     0.261    22.599     7.784
   387   8 O      0.857    -0.470    23.132     6.448
   388   7 N      2.683    -0.182    24.941     7.417
   389   1 H      0.860     0.188     1.168     1.693
   390   6 C      3.750    -0.035    21.255     6.575
   391   1 H      0.925     0.126     1.563     1.955
   392   1 H      0.925     0.113     1.672     2.022
   393   6 C      2.752     0.273    22.390     7.748
   394   8 O      0.862    -0.447    22.634     6.379
   395   7 N      2.692    -0.172    24.726     7.385
   396   1 H      0.860     0.171     1.270     1.765
   397   6 C      3.788     0.030    20.083     6.383
   398   1 H      0.925     0.080     1.982     2.202
   399   6 C      3.806    -0.067    21.782     6.644
   400   1 H      0.925     0.081     1.971     2.196
   401   1 H      0.925     0.042     2.424     2.435
   402   6 C      2.952    -0.011    28.296     8.725
   403   6 C      2.908    -0.042    29.050     8.838
   404   1 H      0.926     0.014     2.833     2.632
   405   6 C      2.911    -0.054    29.341     8.882
   406   1 H      0.926     0.011     2.869     2.649
   407   6 C      2.827     0.157    24.605     8.128
   408   8 O      1.662    -0.411    21.058     6.195
   409   1 H      0.805     0.372     0.539     1.153
   410   6 C      2.909    -0.087    30.184     9.009
   411   1 H      0.926     0.062     2.181     2.309
   412   6 C      2.902    -0.049    29.226     8.864
   413   1 H      0.926     0.061     2.184     2.311
   414   6 C      2.752     0.276    22.336     7.739
   415   8 O      0.862    -0.484    23.430     6.490
   416   7 N      2.686    -0.179    24.887     7.409
   417   1 H      0.860     0.208     1.067     1.618
   418   6 C      3.789     0.031    20.058     6.378
   419   1 H      0.925     0.084     1.934     2.175
   420   6 C      3.793    -0.083    22.095     6.694
   421   1 H      0.925     0.070     2.084     2.257
   422   1 H      0.925     0.064     2.153     2.295
   423   6 C      2.951    -0.007    28.200     8.710
   424   6 C      2.916    -0.039    28.978     8.827
   425   1 H      0.925     0.034     2.532     2.489
   426   6 C      2.903    -0.070    29.735     8.941
   427   1 H      0.926     0.048     2.343     2.394
   428   6 C      2.856     0.145    24.840     8.169
   429   8 O      1.658    -0.427    21.372     6.241
   430   1 H      0.805     0.334     0.627     1.244
   431   6 C      2.911    -0.057    29.423     8.895
   432   1 H      0.926     0.098     1.802     2.099
   433   6 C      2.920    -0.040    28.990     8.829
   434   1 H      0.926     0.048     2.343     2.394
   435   6 C      2.750     0.262    22.590     7.783
   436   8 O      0.856    -0.524    24.333     6.614
   437   7 N      2.691    -0.183    24.967     7.421
   438   1 H      0.860     0.244     0.907     1.492
   439   6 C      3.783     0.010    20.421     6.437
   440   1 H      0.925     0.073     2.052     2.240
   441   6 C      3.729     0.133    18.514     6.143
   442   1 H      0.925     0.040     2.450     2.448
   443   6 C      3.752    -0.119    22.851     6.817
   444   1 H      0.924     0.042     2.420     2.432
   445   1 H      0.925     0.058     2.227     2.334
   446   1 H      0.925     0.043     2.414     2.430
   447   8 O      1.658    -0.479    22.454     6.397
   448   1 H      0.805     0.312     0.685     1.300
   449   6 C      2.746     0.266    22.504     7.768
   450   8 O      0.864    -0.456    22.819     6.405
   451   7 N      2.689    -0.164    24.549     7.359
   452   1 H      0.860     0.204     1.084     1.631
   453   6 C      3.790     0.014    20.343     6.423
   454   1 H      0.925     0.090     1.877     2.143
   455   6 C      3.856    -0.030    21.076     6.529
   456   1 H      0.925     0.069     2.099     2.266
   457   6 C      3.761    -0.128    23.004     6.837
   458   1 H      0.925     0.058     2.224     2.332
   459   1 H      0.924     0.039     2.459     2.452
   460   1 H      0.924     0.048     2.351     2.398
   461   6 C      3.801    -0.080    22.032     6.683
   462   1 H      0.924     0.040     2.448     2.447
   463   1 H      0.924     0.069     2.099     2.266
   464   6 C      3.750    -0.122    22.895     6.824
   465   1 H      0.924     0.057     2.238     2.339
   466   1 H      0.924     0.053     2.286     2.364
   467   1 H      0.925     0.038     2.472     2.459
   468   6 C      2.750     0.249    22.811     7.821
   469   8 O      0.858    -0.518    24.176     6.592
   470   7 N      2.683    -0.135    23.924     7.264
   471   1 H      0.860     0.241     0.918     1.501
   472   6 C      3.739    -0.026    21.112     6.556
   473   1 H      0.924     0.062     2.177     2.307
   474   1 H      0.924     0.107     1.721     2.052
   475   6 C      2.738     0.277    22.309     7.733
   476   8 O      0.861    -0.455    22.801     6.402
   477   7 N      2.672    -0.184    24.999     7.426
   478   1 H      0.860     0.204     1.084     1.631
   479   6 C      3.780     0.017    20.316     6.421
   480   1 H      0.925     0.083     1.944     2.181
   481   6 C      3.839    -0.027    21.026     6.523
   482   1 H      0.924     0.049     2.334     2.389
   483   6 C      3.747    -0.111    22.692     6.795
   484   1 H      0.925     0.039     2.459     2.452
   485   1 H      0.924     0.026     2.651     2.546
   486   1 H      0.925     0.058     2.218     2.329
   487   6 C      3.788    -0.073    21.919     6.668
   488   1 H      0.925     0.045     2.383     2.414
   489   1 H      0.924     0.051     2.314     2.379
   490   6 C      3.747    -0.114    22.754     6.804
   491   1 H      0.924     0.058     2.220     2.330
   492   1 H      0.924     0.053     2.286     2.364
   493   1 H      0.925     0.033     2.546     2.495
   494   6 C      2.752     0.262    22.577     7.781
   495   8 O      0.857    -0.505    23.907     6.556
   496   7 N      2.685    -0.163    24.534     7.357
   497   1 H      0.860     0.229     0.970     1.543
   498   6 C      3.727    -0.034    21.291     6.588
   499   1 H      0.925     0.078     1.997     2.210
   500   1 H      0.925     0.088     1.895     2.153
   501   6 C      2.739     0.276    22.334     7.738
   502   8 O      0.858    -0.508    23.973     6.565
   503   7 N      2.696    -0.157    24.393     7.335
   504   1 H      0.860     0.244     0.907     1.492
   505   6 C      3.817     0.038    19.929     6.354
   506   1 H      0.925     0.068     2.107     2.270
   507   6 C      3.823    -0.089    22.182     6.702
   508   1 H      0.925     0.121     1.605     1.981
   509   1 H      0.925     0.100     1.788     2.091
   510   6 C      3.147     0.055    26.508     8.423
   511   7 N      2.797    -0.053    22.271     7.009
   512   1 H      0.860     0.251     0.879     1.469
   513   6 C      3.092     0.075    26.231     8.395
   514   1 H      0.926     0.141     1.457     1.887
   515   7 N      2.841     0.005    21.174     6.834
   516   1 H      0.860     0.279     0.778     1.382
   517   6 C      3.063    -0.019    28.425     8.743
   518   1 H      0.926     0.124     1.579     1.965
   519   6 C      2.773     0.251    22.780     7.817
   520   8 O      0.860    -0.503    23.854     6.548
   521   7 N      2.698    -0.164    24.542     7.358
   522   1 H      0.861     0.206     1.077     1.626
   523   6 C      3.784     0.029    20.104     6.387
   524   1 H      0.925     0.071     2.077     2.254
   525   6 C      3.797    -0.077    21.969     6.674
   526   1 H      0.924     0.057     2.234     2.337
   527   1 H      0.924     0.045     2.388     2.417
   528   6 C      3.836    -0.012    20.772     6.484
   529   1 H      0.924     0.057     2.231     2.336
   530   6 C      3.756    -0.114    22.743     6.800
   531   1 H      0.924     0.055     2.264     2.353
   532   1 H      0.925     0.054     2.265     2.353
   533   1 H      0.925     0.033     2.542     2.493
   534   6 C      3.743    -0.116    22.798     6.812
   535   1 H      0.925     0.013     2.843     2.637
   536   1 H      0.924     0.040     2.455     2.450
   537   1 H      0.925     0.051     2.306     2.375
   538   6 C      2.763     0.271    22.413     7.753
   539   8 O      0.857    -0.492    23.598     6.513
   540   7 N      2.693    -0.156    24.384     7.334
   541   1 H      0.860     0.219     1.015     1.578
   542   6 C      3.814     0.024    20.162     6.391
   543   1 H      0.925     0.089     1.889     2.149
   544   6 C      3.842    -0.077    21.940     6.663
   545   1 H      0.925     0.051     2.304     2.374
   546   1 H      0.925     0.054     2.271     2.357
   547   6 C      3.851    -0.023    20.944     6.509
   548   1 H      0.925     0.048     2.342     2.393
   549   6 C      3.777    -0.132    23.055     6.841
   550   1 H      0.924     0.047     2.361     2.403
   551   1 H      0.925     0.058     2.228     2.334
   552   1 H      0.925     0.053     2.284     2.363
   553   6 C      3.762    -0.122    22.876     6.818
   554   1 H      0.925     0.040     2.444     2.445
   555   1 H      0.924     0.064     2.147     2.292
   556   1 H      0.925     0.039     2.465     2.455
   557   6 C      2.761     0.263    22.567     7.780
   558   8 O      0.857    -0.513    24.076     6.579
   559   7 N      2.687    -0.186    25.041     7.432
   560   1 H      0.860     0.221     1.003     1.569
   561   6 C      3.788     0.019    20.273     6.413
   562   1 H      0.924     0.069     2.100     2.266
   563   6 C      3.731     0.121    18.690     6.171
   564   1 H      0.924     0.029     2.600     2.522
   565   6 C      3.752    -0.120    22.861     6.818
   566   1 H      0.925     0.059     2.207     2.323
   567   1 H      0.924     0.053     2.282     2.363
   568   1 H      0.925     0.069     2.095     2.264
   569   8 O      1.663    -0.478    22.430     6.394
   570   1 H      0.805     0.343     0.604     1.221
   571   6 C      2.741     0.255    22.712     7.803
   572   8 O      0.858    -0.498    23.732     6.531
   573   7 N      2.673    -0.177    24.834     7.401
   574   1 H      0.860     0.219     1.013     1.576
   575   6 C      3.785     0.013    20.372     6.429
   576   1 H      0.925     0.092     1.860     2.133
   577   6 C      3.809    -0.083    22.082     6.689
   578   1 H      0.924     0.085     1.933     2.174
   579   1 H      0.925     0.080     1.978     2.199
   580   6 C      3.805    -0.076    21.952     6.670
   581   1 H      0.924     0.063     2.167     2.302
   582   1 H      0.925     0.047     2.359     2.402
   583   6 C      3.795    -0.095    22.316     6.727
   584   1 H      0.925     0.076     2.022     2.224
   585   1 H      0.925     0.074     2.043     2.235
   586   6 C      3.722    -0.062    21.798     6.668
   587   1 H      0.925     0.135     1.499     1.914
   588   1 H      0.925     0.123     1.590     1.972
   589   7 N      3.480    -0.154    24.318     7.324
   590   1 H      0.860     0.294     0.731     1.340
   591   1 H      0.860     0.305     0.698     1.309
   592   1 H      0.860     0.291     0.740     1.348
   593   6 C      2.759     0.275    22.353     7.742
   594   8 O      0.874    -0.511    24.030     6.573
   595   7 N      2.701    -0.145    24.144     7.298
   596   1 H      0.860     0.211     1.051     1.606
   597   6 C      3.792     0.021    20.228     6.405
   598   1 H      0.925     0.083     1.947     2.182
   599   6 C      3.672     0.057    19.851     6.386
   600   1 H      0.924     0.065     2.138     2.287
   601   1 H      0.925     0.060     2.196     2.318
   602   8 O      1.654    -0.486    22.597     6.417
   603   1 H      0.806     0.352     0.584     1.200
   604   6 C      2.747     0.267    22.487     7.765
   605   8 O      0.860    -0.481    23.377     6.482
   606   7 N      2.740    -0.096    23.108     7.140
   607   6 C      3.774    -0.026    21.061     6.539
   608   1 H      0.924     0.076     2.025     2.225
   609   1 H      0.924     0.070     2.090     2.261
   610   6 C      3.812    -0.078    21.974     6.672
   611   1 H      0.924     0.069     2.092     2.262
   612   1 H      0.925     0.064     2.155     2.296
   613   6 C      3.823    -0.072    21.852     6.652
   614   1 H      0.925     0.060     2.196     2.318
   615   1 H      0.924     0.070     2.081     2.256
   616   6 C      3.822     0.018    20.254     6.405
   617   1 H      0.924     0.082     1.957     2.187
   618   6 C      2.748     0.277    22.309     7.734
   619   8 O      0.860    -0.456    22.833     6.407
   620   7 N      2.688    -0.175    24.794     7.395
   621   1 H      0.860     0.200     1.106     1.647
   622   6 C      3.788     0.009    20.439     6.439
   623   1 H      0.925     0.076     2.026     2.226
   624   6 C      3.665     0.042    20.132     6.435
   625   1 H      0.925     0.082     1.959     2.189
   626   1 H      0.925     0.069     2.096     2.264
   627   8 O      1.646    -0.484    22.551     6.410
   628   1 H      0.805     0.349     0.590     1.207
   629   6 C      2.746     0.268    22.473     7.762
   630   8 O      0.862    -0.488    23.528     6.503
   631   7 N      2.686    -0.178    24.857     7.405
   632   1 H      0.860     0.208     1.066     1.617
   633   6 C      3.787    -0.003    20.654     6.473
   634   1 H      0.925     0.104     1.750     2.069
   635   6 C      3.805    -0.085    22.112     6.694
   636   1 H      0.924     0.065     2.144     2.290
   637   1 H      0.925     0.072     2.061     2.245
   638   6 C      3.843    -0.029    21.057     6.528
   639   1 H      0.925     0.058     2.223     2.332
   640   6 C      3.754    -0.145    23.351     6.890
   641   1 H      0.925     0.077     2.012     2.218
   642   1 H      0.925     0.048     2.348     2.397
   643   1 H      0.924     0.038     2.476     2.461
   644   6 C      3.763    -0.141    23.253     6.874
   645   1 H      0.925     0.056     2.251     2.346
   646   1 H      0.925     0.075     2.028     2.227
   647   1 H      0.924     0.037     2.491     2.468
   648   6 C      2.749     0.273    22.389     7.748
   649   8 O      0.868    -0.468    23.083     6.442
   650   7 N      2.697    -0.178    24.852     7.404
   651   1 H      0.860     0.205     1.080     1.628
   652   6 C      3.779     0.017    20.307     6.420
   653   1 H      0.925     0.112     1.681     2.028
   654   6 C      3.824    -0.127    22.909     6.811
   655   1 H      0.925     0.082     1.960     2.189
   656   1 H      0.925     0.107     1.725     2.054
   657   6 C      2.746     0.309    21.744     7.635
   658   8 O      0.866    -0.494    23.652     6.521
   659   7 N      2.656    -0.290    27.474     7.785
   660   1 H      0.860     0.222     1.001     1.567
   661   1 H      0.860     0.228     0.972     1.544
   662   6 C      2.755     0.257    22.666     7.796
   663   8 O      0.859    -0.497    23.724     6.530
   664   7 N      2.682    -0.179    24.867     7.406
   665   1 H      0.860     0.235     0.944     1.522
   666   6 C      3.793     0.021    20.236     6.406
   667   1 H      0.924     0.088     1.894     2.152
   668   6 C      3.751    -0.139    23.247     6.876
   669   1 H      0.924     0.063     2.167     2.302
   670   1 H      0.925     0.079     1.992     2.207
   671   1 H      0.925     0.097     1.814     2.106
   672   6 C      2.755     0.256    22.695     7.801
   673   8 O      0.858    -0.521    24.247     6.602
   674   7 N      2.696    -0.167    24.615     7.369
   675   1 H      0.860     0.214     1.037     1.595
   676   6 C      3.788     0.026    20.150     6.393
   677   1 H      0.924     0.062     2.180     2.309
   678   6 C      3.761    -0.138    23.202     6.867
   679   1 H      0.925     0.078     2.000     2.212
   680   1 H      0.925     0.073     2.049     2.238
   681   1 H      0.924     0.068     2.109     2.271
   682   6 C      2.752     0.266    22.514     7.770
   683   8 O      0.861    -0.490    23.566     6.509
   684   7 N      2.689    -0.142    24.066     7.286
   685   1 H      0.860     0.225     0.986     1.556
   686   6 C      3.799     0.003    20.536     6.452
   687   1 H      0.924     0.102     1.768     2.080
   688   6 C      3.791    -0.082    22.073     6.691
   689   1 H      0.925     0.057     2.237     2.339
   690   1 H      0.924     0.071     2.069     2.250
   691   6 C      3.786    -0.093    22.295     6.725
   692   1 H      0.925     0.098     1.805     2.101
   693   1 H      0.924     0.073     2.051     2.240
   694   6 C      3.793    -0.098    22.385     6.738
   695   1 H      0.924     0.065     2.137     2.286
   696   1 H      0.924     0.075     2.036     2.231
   697   6 C      3.731    -0.060    21.749     6.657
   698   1 H      0.925     0.129     1.546     1.945
   699   1 H      0.924     0.118     1.628     1.995
   700   7 N      3.488    -0.138    23.968     7.271
   701   1 H      0.860     0.292     0.739     1.347
   702   1 H      0.860     0.317     0.664     1.277
   703   1 H      0.860     0.290     0.745     1.352
   704   6 C      2.751     0.264    22.546     7.775
   705   8 O      0.858    -0.503    23.856     6.548
   706   7 N      2.691    -0.186    25.042     7.432
   707   1 H      0.860     0.229     0.968     1.541
   708   6 C      3.796     0.010    20.406     6.432
   709   1 H      0.924     0.053     2.277     2.360
   710   6 C      3.685     0.074    19.532     6.328
   711   1 H      0.925     0.037     2.495     2.470
   712   1 H      0.924     0.074     2.045     2.236
   713   8 O      1.660    -0.454    21.923     6.321
   714   1 H      0.806     0.339     0.615     1.232
   715   6 C      2.747     0.281    22.247     7.723
   716   8 O      0.866    -0.503    23.843     6.547
   717   7 N      2.688    -0.179    24.870     7.407
   718   1 H      0.860     0.226     0.982     1.553
   719   6 C      3.780     0.032    20.056     6.380
   720   1 H      0.924     0.060     2.201     2.320
   721   6 C      3.806    -0.049    21.444     6.592
   722   1 H      0.924     0.052     2.293     2.368
   723   1 H      0.925     0.045     2.380     2.413
   724   6 C      3.802    -0.093    22.270     6.719
   725   1 H      0.925     0.032     2.556     2.500
   726   1 H      0.924     0.047     2.353     2.399
   727   6 C      2.689     0.359    20.909     7.483
   728   8 O      0.855    -0.651    27.412     7.020
   729   8 O      0.856    -0.621    26.652     6.922
   730   6 C      2.748     0.263    22.560     7.777
   731   8 O      0.858    -0.491    23.588     6.512
   732   7 N      2.682    -0.195    25.240     7.461
   733   1 H      0.860     0.224     0.993     1.561
   734   6 C      3.791     0.017    20.291     6.415
   735   1 H      0.925     0.078     2.002     2.213
   736   6 C      3.794    -0.095    22.316     6.727
   737   1 H      0.925     0.066     2.125     2.279
   738   1 H      0.925     0.091     1.865     2.136
   739   6 C      3.841    -0.016    20.823     6.492
   740   1 H      0.925     0.025     2.653     2.547
   741   6 C      3.776    -0.122    22.866     6.813
   742   1 H      0.924     0.024     2.667     2.554
   743   1 H      0.925     0.053     2.286     2.365
   744   1 H      0.925     0.063     2.168     2.303
   745   6 C      3.777    -0.129    23.007     6.834
   746   1 H      0.924     0.070     2.090     2.261
   747   1 H      0.925     0.052     2.293     2.368
   748   1 H      0.924     0.043     2.406     2.426
   749   6 C      2.765     0.275    22.349     7.742
   750   8 O      0.859    -0.515    24.127     6.586
   751   7 N      2.690    -0.187    25.057     7.434
   752   1 H      0.860     0.228     0.972     1.545
   753   6 C      3.806     0.046    19.806     6.335
   754   1 H      0.925     0.060     2.194     2.316
   755   6 C      3.804    -0.098    22.367     6.733
   756   1 H      0.925     0.038     2.475     2.460
   757   1 H      0.925     0.030     2.590     2.517
   758   6 C      2.682     0.370    20.730     7.451
   759   8 O      0.857    -0.668    27.853     7.076
   760   8 O      0.856    -0.607    26.294     6.875
   761   6 C      2.744     0.294    22.020     7.683
   762   8 O      0.859    -0.480    23.345     6.478
   763   7 N      2.682    -0.206    25.486     7.498
   764   1 H      0.860     0.215     1.033     1.592
   765   6 C      3.788     0.028    20.114     6.388
   766   1 H      0.924     0.065     2.137     2.286
   767   6 C      3.816    -0.070    21.827     6.649
   768   1 H      0.925     0.059     2.212     2.326
   769   1 H      0.924     0.053     2.277     2.360
   770   6 C      3.799    -0.074    21.924     6.667
   771   1 H      0.925     0.048     2.344     2.394
   772   1 H      0.925     0.053     2.280     2.361
   773   6 C      3.804    -0.078    21.994     6.676
   774   1 H      0.925     0.079     1.990     2.206
   775   1 H      0.925     0.059     2.212     2.326
   776   6 C      3.734    -0.029    21.180     6.568
   777   1 H      0.925     0.099     1.792     2.093
   778   1 H      0.925     0.118     1.627     1.995
   779   7 N      3.490    -0.163    24.504     7.352
   780   1 H      0.860     0.296     0.726     1.334
   781   1 H      0.860     0.296     0.726     1.335
   782   1 H      0.860     0.299     0.717     1.326
   783   6 C      2.755     0.278    22.295     7.732
   784   8 O      0.859    -0.452    22.749     6.395
   785   7 N      2.685    -0.214    25.672     7.525
   786   1 H      0.860     0.209     1.062     1.614
   787   6 C      3.784     0.026    20.162     6.396
   788   1 H      0.925     0.062     2.181     2.310
   789   6 C      3.747    -0.132    23.116     6.858
   790   1 H      0.924     0.083     1.950     2.184
   791   1 H      0.924     0.068     2.110     2.272
   792   1 H      0.924     0.080     1.982     2.201
   793   6 C      2.743     0.275    22.349     7.740
   794   8 O      0.858    -0.506    23.908     6.556
   795   7 N      2.679    -0.179    24.882     7.408
   796   1 H      0.860     0.206     1.075     1.624
   797   6 C      3.778     0.006    20.500     6.451
   798   1 H      0.925     0.093     1.851     2.127
   799   6 C      3.831    -0.020    20.913     6.507
   800   1 H      0.925     0.044     2.394     2.420
   801   6 C      3.748    -0.106    22.595     6.780
   802   1 H      0.925     0.021     2.714     2.576
   803   1 H      0.925     0.069     2.096     2.264
   804   1 H      0.924     0.046     2.368     2.406
   805   6 C      3.792    -0.068    21.809     6.651
   806   1 H      0.924     0.077     2.014     2.219
   807   1 H      0.925     0.053     2.283     2.363
   808   6 C      3.751    -0.105    22.570     6.775
   809   1 H      0.925     0.021     2.719     2.579
   810   1 H      0.925     0.031     2.579     2.511
   811   1 H      0.924     0.050     2.319     2.381
   812   6 C      2.745     0.277    22.304     7.733
   813   8 O      0.858    -0.498    23.738     6.532
   814   7 N      2.687    -0.175    24.798     7.396
   815   1 H      0.860     0.208     1.067     1.618
   816   6 C      3.726    -0.023    21.096     6.558
   817   1 H      0.924     0.096     1.823     2.112
   818   1 H      0.924     0.079     1.993     2.208
   819   6 C      2.735     0.264    22.538     7.773
   820   8 O      0.857    -0.503    23.862     6.549
   821   7 N      2.679    -0.152    24.299     7.321
   822   1 H      0.860     0.201     1.101     1.643
   823   6 C      3.769     0.012    20.416     6.439
   824   1 H      0.924     0.069     2.099     2.266
   825   6 C      3.786    -0.080    22.044     6.687
   826   1 H      0.924     0.074     2.037     2.232
   827   1 H      0.925     0.077     2.009     2.216
   828   6 C      3.799    -0.076    21.951     6.671
   829   1 H      0.924     0.056     2.250     2.346
   830   1 H      0.925     0.046     2.375     2.410
   831   6 C      3.734    -0.016    20.945     6.532
   832   1 H      0.924     0.073     2.049     2.239
   833   1 H      0.925     0.073     2.055     2.242
   834   7 N      2.706    -0.170    24.671     7.377
   835   1 H      0.860     0.240     0.923     1.505
   836   6 C      2.733     0.245    22.886     7.832
   837   7 N      2.682    -0.251    26.521     7.649
   838   1 H      0.860     0.254     0.866     1.458
   839   1 H      0.860     0.231     0.961     1.536
   840   7 N      2.695    -0.252    26.557     7.654
   841   1 H      0.860     0.245     0.901     1.487
   842   1 H      0.860     0.244     0.907     1.492
   843   6 C      2.745     0.277    22.316     7.735
   844   8 O      0.859    -0.474    23.227     6.462
   845   7 N      2.678    -0.176    24.817     7.399
   846   1 H      0.860     0.220     1.011     1.575
   847   6 C      3.773     0.027    20.155     6.397
   848   1 H      0.925     0.079     1.987     2.204
   849   6 C      3.797    -0.107    22.545     6.761
   850   1 H      0.925     0.085     1.929     2.172
   851   1 H      0.924     0.081     1.972     2.196
   852   6 C      2.743     0.299    21.918     7.665
   853   8 O      0.865    -0.505    23.895     6.554
   854   7 N      2.645    -0.277    27.168     7.741
   855   1 H      0.860     0.247     0.894     1.481
   856   1 H      0.860     0.232     0.956     1.531
   857   6 C      2.740     0.286    22.151     7.706
   858   8 O      0.859    -0.466    23.055     6.438
   859   7 N      2.687    -0.170    24.679     7.378
   860   1 H      0.860     0.190     1.156     1.684
   861   6 C      3.797     0.014    20.349     6.423
   862   1 H      0.924     0.103     1.759     2.074
   863   6 C      3.803    -0.013    20.812     6.495
   864   1 H      0.925     0.109     1.703     2.041
   865   1 H      0.925     0.052     2.299     2.371
   866  16 S      1.911    -0.290   153.615    20.861
   867   1 H      0.923     0.168     1.278     1.768
   868   6 C      2.740     0.266    22.519     7.770
   869   8 O      0.858    -0.456    22.827     6.406
   870   7 N      2.677    -0.179    24.869     7.406
   871   1 H      0.860     0.198     1.116     1.655
   872   6 C      3.787     0.028    20.123     6.389
   873   1 H      0.925     0.097     1.812     2.105
   874   6 C      3.808    -0.096    22.319     6.725
   875   1 H      0.925     0.079     1.993     2.208
   876   1 H      0.924     0.068     2.108     2.270
   877   6 C      2.741     0.289    22.101     7.697
   878   8 O      0.865    -0.516    24.146     6.588
   879   7 N      2.644    -0.268    26.950     7.710
   880   1 H      0.860     0.265     0.829     1.426
   881   1 H      0.860     0.233     0.952     1.528
   882   6 C      2.747     0.268    22.479     7.763
   883   8 O      0.857    -0.461    22.940     6.422
   884   7 N      2.678    -0.162    24.514     7.353
   885   1 H      0.860     0.183     1.199     1.716
   886   6 C      3.736    -0.057    21.688     6.646
   887   1 H      0.925     0.144     1.431     1.870
   888   1 H      0.924     0.115     1.658     2.013
   889   6 C      2.752     0.270    22.440     7.757
   890   8 O      0.860    -0.462    22.967     6.425
   891   7 N      2.683    -0.146    24.161     7.300
   892   1 H      0.860     0.210     1.055     1.609
   893   6 C      3.787     0.006    20.483     6.446
   894   1 H      0.925     0.089     1.886     2.147
   895   6 C      3.850    -0.014    20.786     6.485
   896   1 H      0.925     0.031     2.576     2.510
   897   6 C      3.759    -0.129    23.036     6.843
   898   1 H      0.925     0.062     2.171     2.304
   899   1 H      0.924     0.066     2.130     2.282
   900   1 H      0.925     0.054     2.265     2.353
   901   6 C      3.757    -0.117    22.793     6.807
   902   1 H      0.925     0.042     2.420     2.433
   903   1 H      0.924     0.030     2.581     2.512
   904   1 H      0.924     0.050     2.320     2.382
   905   6 C      2.744     0.260    22.618     7.787
   906   8 O      0.859    -0.526    24.377     6.620
   907   7 N      2.672    -0.161    24.474     7.347
   908   1 H      0.860     0.224     0.993     1.561
   909   6 C      3.775     0.006    20.502     6.452
   910   1 H      0.925     0.079     1.994     2.208
   911   6 C      3.853    -0.017    20.848     6.494
   912   1 H      0.925     0.049     2.332     2.388
   913   6 C      3.753    -0.114    22.737     6.800
   914   1 H      0.925     0.037     2.494     2.469
   915   1 H      0.924     0.044     2.395     2.420
   916   1 H      0.925     0.050     2.316     2.380
   917   6 C      3.796    -0.065    21.745     6.640
   918   1 H      0.925     0.051     2.310     2.377
   919   1 H      0.924     0.064     2.154     2.295
   920   6 C      3.746    -0.120    22.864     6.821
   921   1 H      0.924     0.045     2.384     2.415
   922   1 H      0.924     0.043     2.414     2.430
   923   1 H      0.925     0.022     2.696     2.568
   924   6 C      2.745     0.268    22.471     7.762
   925   8 O      0.862    -0.465    23.028     6.434
   926   7 N      2.703    -0.179    24.886     7.409
   927   1 H      0.860     0.205     1.082     1.629
   928   6 C      3.791    -0.006    20.692     6.478
   929   1 H      0.924     0.105     1.744     2.065
   930   6 C      3.745     0.114    18.781     6.182
   931   1 H      0.924     0.042     2.428     2.437
   932   6 C      3.756    -0.133    23.119     6.856
   933   1 H      0.924     0.053     2.282     2.362
   934   1 H      0.925     0.061     2.190     2.314
   935   1 H      0.925     0.057     2.232     2.336
   936   8 O      1.657    -0.518    23.279     6.513
   937   1 H      0.807     0.330     0.637     1.254
   938   6 C      2.739     0.269    22.464     7.760
   939   8 O      0.858    -0.469    23.115     6.446
   940   7 N      2.675    -0.215    25.682     7.527
   941   1 H      0.860     0.217     1.023     1.585
   942   6 C      3.776     0.007    20.484     6.448
   943   1 H      0.925     0.116     1.646     2.006
   944   6 C      3.806    -0.081    22.044     6.684
   945   1 H      0.925     0.058     2.218     2.329
   946   1 H      0.925     0.096     1.825     2.113
   947   6 C      3.805    -0.082    22.062     6.687
   948   1 H      0.924     0.079     1.988     2.205
   949   1 H      0.924     0.056     2.245     2.343
   950   6 C      3.800    -0.106    22.516     6.756
   951   1 H      0.925     0.080     1.982     2.202
   952   1 H      0.925     0.095     1.836     2.119
   953   6 C      3.730    -0.066    21.863     6.675
   954   1 H      0.924     0.115     1.655     2.012
   955   1 H      0.925     0.113     1.669     2.020
   956   7 N      3.489    -0.132    23.855     7.254
   957   1 H      0.860     0.299     0.716     1.325
   958   1 H      0.860     0.300     0.713     1.323
   959   1 H      0.860     0.300     0.713     1.323
   960   6 C      2.743     0.271    22.415     7.752
   961   8 O      0.859    -0.468    23.083     6.442
   962   7 N      2.678    -0.205    25.448     7.492
   963   1 H      0.860     0.199     1.112     1.652
   964   6 C      3.764     0.024    20.214     6.409
   965   1 H      0.925     0.072     2.060     2.244
   966   6 C      3.789    -0.103    22.481     6.753
   967   1 H      0.924     0.047     2.357     2.401
   968   1 H      0.925     0.054     2.276     2.359
   969   6 C      2.685     0.369    20.744     7.454
   970   8 O      0.857    -0.660    27.635     7.048
   971   8 O      0.857    -0.586    25.775     6.807
   972   6 C      2.740     0.265    22.520     7.770
   973   8 O      0.857    -0.487    23.509     6.501
   974   7 N      2.681    -0.176    24.813     7.398
   975   1 H      0.860     0.217     1.021     1.583
   976   6 C      3.804     0.019    20.251     6.407
   977   1 H      0.925     0.070     2.088     2.260
   978   6 C      3.808    -0.065    21.741     6.637
   979   1 H      0.925     0.055     2.263     2.353
   980   1 H      0.925     0.082     1.958     2.188
   981   6 C      3.812    -0.101    22.412     6.738
   982   1 H      0.925     0.037     2.490     2.468
   983   1 H      0.924     0.016     2.801     2.617
   984   6 C      2.690     0.384    20.504     7.411
   985   8 O      0.860    -0.582    25.673     6.793
   986   8 O      0.858    -0.615    26.486     6.900
   987   6 C      2.752     0.277    22.312     7.735
   988   8 O      0.859    -0.481    23.364     6.481
   989   7 N      2.697    -0.187    25.042     7.432
   990   1 H      0.860     0.240     0.923     1.505
   991   6 C      3.784     0.009    20.439     6.440
   992   1 H      0.925     0.094     1.838     2.120
   993   6 C      3.755    -0.148    23.416     6.900
   994   1 H      0.924     0.091     1.870     2.138
   995   1 H      0.925     0.074     2.045     2.236
   996   1 H      0.925     0.102     1.767     2.079
   997   6 C      2.748     0.264    22.555     7.777
   998   8 O      0.856    -0.485    23.463     6.494
   999   7 N      2.689    -0.173    24.735     7.387
  1000   1 H      0.860     0.206     1.074     1.623
  1001   6 C      3.800     0.030    20.066     6.378
  1002   1 H      0.925     0.088     1.897     2.154
  1003   6 C      3.812    -0.057    21.592     6.614
  1004   1 H      0.924     0.031     2.566     2.505
  1005   1 H      0.925     0.067     2.121     2.278
  1006   6 C      3.798    -0.103    22.459     6.748
  1007   1 H      0.925     0.051     2.301     2.372
  1008   1 H      0.925     0.025     2.655     2.548
  1009   6 C      2.682     0.362    20.856     7.473
  1010   8 O      0.856    -0.615    26.490     6.900
  1011   8 O      0.857    -0.616    26.505     6.902
  1012   6 C      2.754     0.264    22.542     7.775
  1013   8 O      0.864    -0.518    24.193     6.595
  1014   7 N      2.692    -0.190    25.112     7.443
  1015   1 H      0.860     0.227     0.978     1.549
  1016   6 C      3.786     0.023    20.194     6.401
  1017   1 H      0.925     0.071     2.072     2.251
  1018   6 C      3.785    -0.079    22.028     6.685
  1019   1 H      0.924     0.067     2.115     2.275
  1020   1 H      0.924     0.064     2.150     2.293
  1021   6 C      3.785    -0.085    22.147     6.703
  1022   1 H      0.925     0.060     2.200     2.319
  1023   1 H      0.925     0.069     2.099     2.266
  1024   6 C      3.800    -0.085    22.115     6.696
  1025   1 H      0.925     0.084     1.943     2.180
  1026   1 H      0.925     0.063     2.161     2.299
  1027   6 C      3.731    -0.049    21.540     6.625
  1028   1 H      0.925     0.123     1.593     1.974
  1029   1 H      0.925     0.117     1.638     2.001
  1030   7 N      3.485    -0.150    24.244     7.313
  1031   1 H      0.860     0.282     0.769     1.374
  1032   1 H      0.860     0.274     0.797     1.399
  1033   1 H      0.860     0.294     0.731     1.340
  1034   6 C      2.744     0.274    22.362     7.743
  1035   8 O      0.863    -0.512    24.048     6.575
  1036   7 N      2.686    -0.208    25.520     7.503
  1037   1 H      0.860     0.233     0.951     1.528
  1038   6 C      3.776     0.023    20.209     6.405
  1039   1 H      0.924     0.066     2.128     2.281
  1040   6 C      3.798    -0.079    22.013     6.680
  1041   1 H      0.925     0.061     2.189     2.314
  1042   1 H      0.925     0.064     2.148     2.292
  1043   6 C      3.851    -0.012    20.759     6.480
  1044   1 H      0.925     0.023     2.695     2.567
  1045   6 C      3.764    -0.119    22.815     6.808
  1046   1 H      0.925     0.028     2.610     2.526
  1047   1 H      0.924     0.050     2.323     2.384
  1048   1 H      0.925     0.054     2.273     2.358
  1049   6 C      3.764    -0.130    23.036     6.841
  1050   1 H      0.925     0.043     2.403     2.424
  1051   1 H      0.925     0.062     2.172     2.305
  1052   1 H      0.924     0.057     2.236     2.338
  1053   6 C      2.748     0.276    22.330     7.738
  1054   8 O      0.862    -0.529    24.432     6.627
  1055   7 N      2.691    -0.176    24.799     7.396
  1056   1 H      0.860     0.220     1.010     1.574
  1057   6 C      3.794     0.033    20.029     6.373
  1058   1 H      0.925     0.073     2.053     2.240
  1059   6 C      3.800    -0.078    21.993     6.677
  1060   1 H      0.925     0.057     2.231     2.336
  1061   1 H      0.924     0.081     1.964     2.191
  1062   6 C      2.952     0.005    27.906     8.664
  1063   6 C      2.899    -0.035    28.865     8.809
  1064   1 H      0.926     0.024     2.678     2.559
  1065   6 C      2.908    -0.033    28.830     8.804
  1066   1 H      0.926     0.033     2.545     2.495
  1067   6 C      2.907    -0.042    29.036     8.836
  1068   1 H      0.926     0.065     2.145     2.290
  1069   6 C      2.905    -0.035    28.864     8.809
  1070   1 H      0.926     0.057     2.233     2.337
  1071   6 C      2.910    -0.042    29.040     8.836
  1072   1 H      0.926     0.040     2.453     2.449
  1073   6 C      2.748     0.271    22.422     7.753
  1074   8 O      0.859    -0.491    23.590     6.512
  1075   7 N      2.685    -0.185    25.010     7.427
  1076   1 H      0.860     0.223     0.996     1.563
  1077   6 C      3.796     0.031    20.055     6.377
  1078   1 H      0.925     0.099     1.796     2.096
  1079   6 C      3.802    -0.095    22.305     6.724
  1080   1 H      0.925     0.065     2.146     2.291
  1081   1 H      0.925     0.096     1.826     2.113
  1082   6 C      2.743     0.276    22.327     7.737
  1083   8 O      0.859    -0.509    23.994     6.567
  1084   7 N      2.638    -0.277    27.167     7.741
  1085   1 H      0.860     0.253     0.872     1.463
  1086   1 H      0.860     0.234     0.949     1.526
  1087   6 C      2.744     0.280    22.259     7.725
  1088   8 O      0.859    -0.496    23.700     6.527
  1089   7 N      2.705    -0.193    25.183     7.453
  1090   1 H      0.860     0.216     1.030     1.590
  1091   6 C      3.777     0.017    20.318     6.422
  1092   1 H      0.925     0.070     2.080     2.256
  1093   6 C      3.820    -0.058    21.600     6.614
  1094   1 H      0.924     0.062     2.177     2.307
  1095   1 H      0.925     0.065     2.141     2.288
  1096   6 C      3.807    -0.103    22.464     6.747
  1097   1 H      0.924     0.079     1.988     2.205
  1098   1 H      0.925     0.065     2.138     2.286
  1099   6 C      2.744     0.295    22.000     7.680
  1100   8 O      0.862    -0.512    24.042     6.574
  1101   7 N      2.642    -0.289    27.450     7.781
  1102   1 H      0.860     0.242     0.917     1.500
  1103   1 H      0.860     0.240     0.923     1.505
  1104   6 C      2.740     0.269    22.449     7.758
  1105   8 O      0.859    -0.443    22.550     6.367
  1106   7 N      2.686    -0.202    25.392     7.484
  1107   1 H      0.860     0.187     1.174     1.698
  1108   6 C      3.787     0.036    19.988     6.368
  1109   1 H      0.924     0.085     1.931     2.173
  1110   6 C      3.804    -0.085    22.119     6.695
  1111   1 H      0.925     0.038     2.470     2.458
  1112   1 H      0.924     0.040     2.455     2.450
  1113   6 C      2.686     0.367    20.774     7.459
  1114   8 O      0.857    -0.623    26.700     6.928
  1115   8 O      0.856    -0.593    25.941     6.829
  1116   6 C      2.746     0.250    22.803     7.819
  1117   8 O      0.859    -0.511    24.021     6.571
  1118   7 N      2.689    -0.170    24.688     7.380
  1119   1 H      0.860     0.224     0.989     1.558
  1120   6 C      3.791     0.025    20.157     6.394
  1121   1 H      0.924     0.089     1.890     2.150
  1122   6 C      3.852    -0.016    20.821     6.490
  1123   1 H      0.925     0.034     2.531     2.488
  1124   6 C      3.747    -0.123    22.932     6.830
  1125   1 H      0.924     0.068     2.105     2.269
  1126   1 H      0.925     0.041     2.434     2.440
  1127   1 H      0.924     0.069     2.101     2.267
  1128   6 C      3.762    -0.121    22.864     6.816
  1129   1 H      0.925     0.039     2.466     2.456
  1130   1 H      0.925     0.060     2.202     2.321
  1131   1 H      0.925     0.055     2.257     2.349
  1132   6 C      2.755     0.271    22.414     7.753
  1133   8 O      0.860    -0.471    23.149     6.451
  1134   7 N      2.678    -0.196    25.257     7.464
  1135   1 H      0.860     0.181     1.208     1.722
  1136   6 C      3.770     0.034    20.027     6.377
  1137   1 H      0.925     0.082     1.960     2.190
  1138   6 C      3.805    -0.092    22.252     6.716
  1139   1 H      0.925     0.029     2.607     2.525
  1140   1 H      0.924     0.052     2.295     2.369
  1141   6 C      2.684     0.363    20.842     7.471
  1142   8 O      0.857    -0.593    25.947     6.829
  1143   8 O      0.855    -0.646    27.284     7.003
  1144   6 C      2.750     0.251    22.778     7.815
  1145   8 O      0.858    -0.479    23.331     6.476
  1146   7 N      2.688    -0.150    24.238     7.312
  1147   1 H      0.860     0.191     1.152     1.682
  1148   6 C      3.788     0.011    20.406     6.434
  1149   1 H      0.925     0.101     1.774     2.083
  1150   6 C      3.748    -0.140    23.261     6.879
  1151   1 H      0.925     0.073     2.050     2.239
  1152   1 H      0.925     0.088     1.899     2.155
  1153   1 H      0.924     0.062     2.174     2.306
  1154   6 C      2.745     0.254    22.734     7.807
  1155   8 O      0.859    -0.473    23.195     6.457
  1156   7 N      2.693    -0.173    24.744     7.388
  1157   1 H      0.860     0.212     1.046     1.602
  1158   6 C      3.798     0.029    20.091     6.382
  1159   1 H      0.925     0.099     1.795     2.095
  1160   6 C      3.763    -0.130    23.046     6.843
  1161   1 H      0.925     0.065     2.143     2.289
  1162   1 H      0.925     0.084     1.936     2.176
  1163   1 H      0.925     0.049     2.334     2.389
  1164   6 C      2.753     0.264    22.550     7.776
  1165   8 O      0.859    -0.463    22.990     6.429
  1166   7 N      2.682    -0.200    25.339     7.476
  1167   1 H      0.860     0.199     1.110     1.651
  1168   6 C      3.795     0.026    20.139     6.390
  1169   1 H      0.925     0.100     1.788     2.091
  1170   6 C      3.850    -0.021    20.915     6.505
  1171   1 H      0.925     0.027     2.624     2.533
  1172   6 C      3.755    -0.118    22.817     6.811
  1173   1 H      0.924     0.062     2.178     2.308
  1174   1 H      0.925     0.036     2.507     2.476
  1175   1 H      0.925     0.053     2.286     2.364
  1176   6 C      3.753    -0.128    23.017     6.841
  1177   1 H      0.925     0.063     2.166     2.301
  1178   1 H      0.924     0.042     2.426     2.436
  1179   1 H      0.925     0.055     2.253     2.347
  1180   6 C      2.763     0.274    22.369     7.745
  1181   8 O      0.862    -0.500    23.789     6.539
  1182   7 N      2.693    -0.170    24.678     7.378
  1183   1 H      0.860     0.214     1.039     1.597
  1184   6 C      3.801     0.027    20.116     6.386
  1185   1 H      0.925     0.080     1.974     2.197
  1186   6 C      3.805    -0.086    22.144     6.699
  1187   1 H      0.925     0.074     2.041     2.234
  1188   1 H      0.925     0.061     2.187     2.313
  1189   6 C      3.793    -0.089    22.211     6.711
  1190   1 H      0.925     0.068     2.106     2.270
  1191   1 H      0.925     0.073     2.048     2.238
  1192   6 C      3.738    -0.029    21.177     6.566
  1193   1 H      0.925     0.096     1.821     2.111
  1194   1 H      0.925     0.093     1.852     2.128
  1195   7 N      2.694    -0.130    23.827     7.250
  1196   1 H      0.860     0.216     1.028     1.588
  1197   6 C      2.742     0.238    23.027     7.857
  1198   7 N      2.677    -0.258    26.684     7.672
  1199   1 H      0.860     0.245     0.901     1.487
  1200   1 H      0.860     0.247     0.897     1.483
  1201   7 N      2.684    -0.278    27.179     7.743
  1202   1 H      0.860     0.237     0.935     1.514
  1203   1 H      0.860     0.246     0.898     1.484
  1204   6 C      2.751     0.271    22.428     7.755
  1205   8 O      0.858    -0.485    23.445     6.492
  1206   7 N      2.679    -0.187    25.054     7.434
  1207   1 H      0.860     0.226     0.981     1.551
  1208   6 C      3.733    -0.031    21.214     6.574
  1209   1 H      0.925     0.088     1.900     2.156
  1210   1 H      0.925     0.086     1.916     2.165
  1211   6 C      2.745     0.277    22.305     7.733
  1212   8 O      0.859    -0.498    23.737     6.532
  1213   7 N      2.681    -0.190    25.126     7.445
  1214   1 H      0.860     0.233     0.952     1.528
  1215   6 C      3.777     0.009    20.457     6.444
[...]
  2283  H   0.991        C 2281 0.952
  2284  C   3.947        O 2285 1.641    N 2286 1.340    C 2281 0.939
  2285  O   1.949        C 2284 1.641    N 2286 0.195
  2286  N   3.407        C 2284 1.340    H 2288 0.922    H 2287 0.913    O 2285 0.195
  2287  H   0.940        N 2286 0.913
  2288  H   0.946        N 2286 0.922
  2289  C   3.950        O 2290 1.661    N 2291 1.291    C 2279 0.927
  2290  O   1.986        C 2289 1.661    N 2291 0.199
  2291  N   3.460        C 2289 1.291    C 2293 0.969    H 2292 0.924    O 2290 0.199
  2292  H   0.957        N 2291 0.924
  2293  C   3.955        C 2295 0.975    N 2291 0.969    H 2294 0.952    C 2313 0.936
  2294  H   0.991        C 2293 0.952
  2295  C   3.986        C 2298 1.012    C 2293 0.975    H 2297 0.973    H 2296 0.970
  2296  H   0.995        C 2295 0.970
  2297  H   0.995        C 2295 0.973
  2298  C   3.985        C 2295 1.012    C 2301 0.997    H 2299 0.973    H 2300 0.969
  2299  H   0.997        C 2298 0.973
  2300  H   0.993        C 2298 0.969
  2301  C   3.952        C 2298 0.997    N 2304 0.987    H 2303 0.964    H 2302 0.955
  2302  H   0.993        C 2301 0.955
  2303  H   0.996        C 2301 0.964
  2304  N   3.460        C 2306 1.315    C 2301 0.987    H 2305 0.896    N 2310 0.110
  2305  H   0.940        N 2304 0.896
  2306  C   3.978        N 2310 1.357    N 2304 1.315    N 2307 1.272
  2307  N   3.373        C 2306 1.272    H 2308 0.930    H 2309 0.927    N 2310 0.102
  2308  H   0.955        N 2307 0.930
  2309  H   0.952        N 2307 0.927
  2310  N   3.419        C 2306 1.357    H 2311 0.924    H 2312 0.849    N 2304 0.110    N 2307 0.102
  2311  H   0.953        N 2310 0.924
  2312  H   0.922        N 2310 0.849
  2313  C   3.955        O 2314 1.618    N 2315 1.326    C 2293 0.936
  2314  O   1.972        C 2313 1.618    N 2315 0.208
  2315  N   3.479        C 2313 1.326    C 2317 0.957    H 2316 0.915    O 2314 0.208
  2316  H   0.951        N 2315 0.915
  2317  C   3.955        C 2319 0.991    N 2315 0.957    H 2318 0.947    C 2323 0.946
  2318  H   0.992        C 2317 0.947
  2319  C   3.983        C 2317 0.991    H 2320 0.980    H 2321 0.979    H 2322 0.978
  2320  H   0.997        C 2319 0.980
  2321  H   0.994        C 2319 0.979
  2322  H   0.994        C 2319 0.978
  2323  C   3.956        O 2324 1.602    N 2325 1.338    C 2317 0.946
  2324  O   1.933        C 2323 1.602    N 2325 0.193
  2325  N   3.478        C 2323 1.338    C 2327 0.953    H 2326 0.914    O 2324 0.193
  2326  H   0.959        N 2325 0.914
  2327  C   3.954        C 2329 0.976    N 2325 0.953    C 2345 0.952    H 2328 0.943
  2328  H   0.990        C 2327 0.943
  2329  C   3.980        C 2332 1.003    C 2327 0.976    H 2330 0.972    H 2331 0.965
  2330  H   0.996        C 2329 0.972
  2331  H   0.992        C 2329 0.965
  2332  C   3.985        C 2329 1.003    C 2335 1.002    H 2334 0.973    H 2333 0.969
  2333  H   0.993        C 2332 0.969
  2334  H   0.996        C 2332 0.973
  2335  C   3.986        C 2338 1.012    C 2332 1.002    H 2336 0.973    H 2337 0.970
  2336  H   0.996        C 2335 0.973
  2337  H   0.993        C 2335 0.970
  2338  C   3.906        C 2335 1.012    H 2340 0.965    H 2339 0.962    N 2341 0.946
  2339  H   0.985        C 2338 0.962
  2340  H   0.986        C 2338 0.965
  2341  N   3.655        C 2338 0.946    H 2342 0.899    H 2343 0.895    H 2344 0.894
  2342  H   0.913        N 2341 0.899
  2343  H   0.911        N 2341 0.895
  2344  H   0.906        N 2341 0.894
  2345  C   3.949        O 2346 1.619    N 2347 1.305    C 2327 0.952
  2346  O   1.966        C 2345 1.619    N 2347 0.199
  2347  N   3.462        C 2345 1.305    C 2349 0.954    H 2348 0.920    O 2346 0.199
  2348  H   0.956        N 2347 0.920
  2349  C   3.962        C 2351 0.997    N 2347 0.954    H 2350 0.951    C 2369 0.927
  2350  H   0.992        C 2349 0.951
  2351  C   3.988        C 2354 1.003    C 2349 0.997    H 2353 0.966    H 2352 0.964
  2352  H   0.996        C 2351 0.964
  2353  H   0.994        C 2351 0.966
  2354  C   3.980        C 2351 1.003    C 2357 0.986    H 2355 0.970    H 2356 0.966
  2355  H   0.991        C 2354 0.970
  2356  H   0.994        C 2354 0.966
  2357  C   3.951        C 2354 0.986    N 2360 0.978    H 2359 0.969    H 2358 0.965
  2358  H   0.995        C 2357 0.965
  2359  H   0.996        C 2357 0.969
  2360  N   3.416        C 2362 1.267    C 2357 0.978    H 2361 0.894    N 2363 0.102
  2361  H   0.946        N 2360 0.894
  2362  C   3.978        N 2363 1.382    N 2366 1.302    N 2360 1.267
  2363  N   3.441        C 2362 1.382    H 2365 0.903    H 2364 0.902    N 2366 0.107    N 2360 0.102
  2364  H   0.938        N 2363 0.902
  2365  H   0.936        N 2363 0.903
  2366  N   3.368        C 2362 1.302    H 2367 0.913    H 2368 0.907    N 2363 0.107
  2367  H   0.942        N 2366 0.913
  2368  H   0.949        N 2366 0.907
  2369  C   3.945        O 2370 1.584    N 2371 1.337    C 2349 0.927
  2370  O   1.969        C 2369 1.584    N 2371 0.191
  2371  N   3.484        C 2369 1.337    C 2373 0.967    H 2372 0.896    O 2370 0.191
  2372  H   0.946        N 2371 0.896
  2373  C   3.954        C 2375 0.981    N 2371 0.967    H 2374 0.944    C 2385 0.942
  2374  H   0.993        C 2373 0.944
  2375  C   3.987        C 2381 1.004    C 2377 0.993    C 2373 0.981    H 2376 0.964
  2376  H   0.997        C 2375 0.964
  2377  C   3.984        C 2375 0.993    H 2380 0.984    H 2379 0.982    H 2378 0.976
  2378  H   0.998        C 2377 0.976
  2379  H   0.996        C 2377 0.982
  2380  H   0.998        C 2377 0.984
  2381  C   3.992        C 2375 1.004    H 2384 0.986    H 2383 0.985    H 2382 0.983
  2382  H   0.997        C 2381 0.983
  2383  H   0.997        C 2381 0.985
  2384  H   0.996        C 2381 0.986
  2385  C   3.951        O 2386 1.613    N 2387 1.314    C 2373 0.942
  2386  O   1.932        C 2385 1.613    N 2387 0.194
  2387  N   3.459        C 2385 1.314    C 2389 0.949    H 2388 0.907    O 2386 0.194
  2388  H   0.955        N 2387 0.907
  2389  C   3.938        C 2391 0.960    H 2390 0.959    N 2387 0.949    C 2404 0.925
  2390  H   0.990        C 2389 0.959
  2391  C   3.980        C 2393 1.002    C 2397 1.001    H 2392 0.962    C 2389 0.960
  2392  H   0.996        C 2391 0.962
  2393  C   3.986        C 2391 1.002    H 2394 0.982    H 2395 0.982    H 2396 0.980
  2394  H   0.995        C 2393 0.982
  2395  H   0.996        C 2393 0.982
  2396  H   0.997        C 2393 0.980
  2397  C   3.989        C 2400 1.009    C 2391 1.001    H 2399 0.972    H 2398 0.970
  2398  H   0.996        C 2397 0.970
  2399  H   0.998        C 2397 0.972
  2400  C   3.992        C 2397 1.009    H 2403 0.988    H 2402 0.984    H 2401 0.982
  2401  H   0.998        C 2400 0.982
  2402  H   0.998        C 2400 0.984
  2403  H   0.998        C 2400 0.988
  2404  C   3.944        O 2405 1.549    N 2406 1.384    C 2389 0.925
  2405  O   1.899        C 2404 1.549    N 2406 0.189
  2406  N   3.517        C 2404 1.384    C 2408 0.976    H 2407 0.891    O 2405 0.189
  2407  H   0.940        N 2406 0.891
  2408  C   3.965        N 2406 0.976    C 2418 0.960    C 2410 0.955    H 2409 0.941
  2409  H   0.988        C 2408 0.941
  2410  C   3.962        C 2412 0.997    O 2416 0.994    H 2411 0.965    C 2408 0.955
  2411  H   0.998        C 2410 0.965
  2412  C   3.983        C 2410 0.997    H 2415 0.982    H 2413 0.980    H 2414 0.979
  2413  H   0.998        C 2412 0.980
  2414  H   0.997        C 2412 0.979
  2415  H   0.993        C 2412 0.982
  2416  O   1.941        C 2410 0.994    H 2417 0.873
  2417  H   0.887        O 2416 0.873
  2418  C   3.952        O 2419 1.568    N 2420 1.341    C 2408 0.960
  2419  O   1.909        C 2418 1.568    N 2420 0.196
  2420  N   3.495        C 2418 1.341    C 2422 0.969    H 2421 0.897    O 2419 0.196
  2421  H   0.953        N 2420 0.897
  2422  C   3.961        N 2420 0.969    C 2432 0.957    C 2424 0.949    H 2423 0.945
  2423  H   0.992        C 2422 0.945
  2424  C   3.962        O 2430 1.010    C 2426 0.998    H 2425 0.954    C 2422 0.949
  2425  H   0.999        C 2424 0.954
  2426  C   3.984        C 2424 0.998    H 2428 0.983    H 2427 0.982    H 2429 0.980
  2427  H   0.997        C 2426 0.982
  2428  H   0.999        C 2426 0.983
  2429  H   0.995        C 2426 0.980
  2430  O   1.947        C 2424 1.010    H 2431 0.827
  2431  H   0.889        O 2430 0.827
  2432  C   3.958        O 2433 1.627    N 2434 1.285    C 2422 0.957
  2433  O   1.965        C 2432 1.627    N 2434 0.192
  2434  N   3.469        C 2432 1.285    C 2436 1.006    H 2435 0.894    O 2433 0.192
  2435  H   0.950        N 2434 0.894
  2436  C   3.958        N 2434 1.006    C 2438 0.966    H 2437 0.942    C 2452 0.901
  2437  H   0.992        C 2436 0.942
  2438  C   3.984        C 2441 1.013    C 2436 0.966    H 2440 0.959    H 2439 0.958
  2439  H   0.994        C 2438 0.958
  2440  H   0.993        C 2438 0.959
  2441  C   3.984        C 2442 1.495    C 2450 1.321    C 2438 1.013    C 2446 0.108
  2442  C   3.989        C 2441 1.495    C 2444 1.355    H 2443 0.967    C 2448 0.109
  2443  H   0.999        C 2442 0.967
  2444  C   3.990        C 2446 1.533    C 2442 1.355    H 2445 0.969    C 2450 0.107
  2445  H   0.998        C 2444 0.969
  2446  C   3.991        C 2444 1.533    C 2448 1.345    H 2447 0.965    C 2441 0.108
  2447  H   0.998        C 2446 0.965
  2448  C   3.989        C 2450 1.535    C 2446 1.345    H 2449 0.966    C 2442 0.109
  2449  H   0.997        C 2448 0.966
  2450  C   3.987        C 2448 1.535    C 2441 1.321    H 2451 0.963    C 2444 0.107
  2451  H   0.998        C 2450 0.963
  2452  C   3.944        O 2453 1.616    N 2454 1.335    C 2436 0.901
  2453  O   1.980        C 2452 1.616    N 2454 0.192
  2454  N   3.475        C 2452 1.335    C 2456 0.958    H 2455 0.905    O 2453 0.192
  2455  H   0.950        N 2454 0.905
  2456  C   3.952        C 2458 0.988    H 2457 0.959    N 2454 0.958    C 2476 0.903
  2457  H   0.991        C 2456 0.959
  2458  C   3.982        C 2461 0.999    C 2456 0.988    H 2459 0.970    H 2460 0.967
  2459  H   0.995        C 2458 0.970
  2460  H   0.994        C 2458 0.967
  2461  C   3.985        C 2458 0.999    C 2464 0.996    H 2463 0.971    H 2462 0.968
  2462  H   0.992        C 2461 0.968
  2463  H   0.995        C 2461 0.971
  2464  C   3.952        C 2461 0.996    N 2467 0.985    H 2466 0.964    H 2465 0.958
  2465  H   0.994        C 2464 0.958
  2466  H   0.991        C 2464 0.964
  2467  N   3.460        C 2469 1.309    C 2464 0.985    H 2468 0.909    N 2473 0.103
  2468  H   0.938        N 2467 0.909
  2469  C   3.978        N 2473 1.332    N 2467 1.309    N 2470 1.304
  2470  N   3.380        C 2469 1.304    H 2472 0.916    H 2471 0.893
  2471  H   0.944        N 2470 0.893
  2472  H   0.947        N 2470 0.916
  2473  N   3.397        C 2469 1.332    H 2474 0.917    H 2475 0.904    N 2467 0.103
  2474  H   0.943        N 2473 0.917
  2475  H   0.928        N 2473 0.904
  2476  C   3.943        O 2477 1.626    N 2478 1.345    C 2456 0.903
  2477  O   1.948        C 2476 1.626    N 2478 0.201
  2478  N   3.489        C 2476 1.345    C 2480 0.964    H 2479 0.894    O 2477 0.201
  2479  H   0.944        N 2478 0.894
  2480  C   3.966        C 2482 0.978    N 2478 0.964    H 2481 0.957    C 2490 0.916
  2481  H   0.993        C 2480 0.957
  2482  C   3.961        O 2488 0.999    C 2484 0.988    C 2480 0.978    H 2483 0.948
  2483  H   0.999        C 2482 0.948
  2484  C   3.988        C 2482 0.988    H 2485 0.983    H 2486 0.983    H 2487 0.980
  2485  H   0.997        C 2484 0.983
  2486  H   0.997        C 2484 0.983
  2487  H   0.995        C 2484 0.980
  2488  O   1.977        C 2482 0.999    H 2489 0.857
  2489  H   0.888        O 2488 0.857
  2490  C   3.951        O 2491 1.666    N 2492 1.297    C 2480 0.916
  2491  O   1.974        C 2490 1.666    N 2492 0.195
  2492  N   3.449        C 2490 1.297    C 2494 0.984    H 2493 0.898    O 2491 0.195
  2493  H   0.946        N 2492 0.898
  2494  C   3.960        C 2497 0.986    N 2492 0.984    H 2495 0.945    H 2496 0.934
  2495  H   0.985        C 2494 0.945
  2496  H   0.988        C 2494 0.934
  2497  C   3.954        O 2498 1.578    N 2499 1.328    C 2494 0.986
  2498  O   1.887        C 2497 1.578    N 2499 0.189
  2499  N   3.477        C 2497 1.328    C 2501 0.973    H 2500 0.893    O 2498 0.189
  2500  H   0.948        N 2499 0.893
  2501  C   3.972        N 2499 0.973    C 2511 0.957    H 2502 0.955    C 2503 0.946
  2502  H   0.992        C 2501 0.955
  2503  C   3.957        C 2505 1.000    O 2509 0.982    H 2504 0.964    C 2501 0.946
  2504  H   0.998        C 2503 0.964
  2505  C   3.984        C 2503 1.000    H 2506 0.982    H 2507 0.980    H 2508 0.976
  2506  H   0.997        C 2505 0.982
  2507  H   0.996        C 2505 0.980
  2508  H   0.997        C 2505 0.976
  2509  O   1.947        C 2503 0.982    H 2510 0.876
  2510  H   0.893        O 2509 0.876
  2511  C   3.956        O 2512 1.623    N 2513 1.296    C 2501 0.957
  2512  O   1.941        C 2511 1.623    N 2513 0.196
  2513  N   3.458        C 2511 1.296    C 2515 0.975    H 2514 0.920    O 2512 0.196
  2514  H   0.955        N 2513 0.920
  2515  C   3.953        N 2513 0.975    C 2517 0.964    H 2516 0.937    C 2535 0.936
  2516  H   0.989        C 2515 0.937
  2517  C   3.983        C 2520 1.017    H 2519 0.969    C 2515 0.964    H 2518 0.960
  2518  H   0.994        C 2517 0.960
  2519  H   0.995        C 2517 0.969
  2520  C   3.964        C 2521 1.618    C 2534 1.131    C 2517 1.017
  2521  C   3.959        C 2520 1.618    N 2523 1.204    H 2522 0.964
  2522  H   0.996        C 2521 0.964
  2523  N   3.530        C 2521 1.204    C 2525 1.158    H 2524 0.930
  2524  H   0.959        N 2523 0.930
  2525  C   3.963        C 2526 1.426    C 2534 1.196    N 2523 1.158
  2526  C   3.985        C 2525 1.426    C 2528 1.389    H 2527 0.961    C 2532 0.114
  2527  H   0.997        C 2526 0.961
  2528  C   3.983        C 2530 1.471    C 2526 1.389    H 2529 0.966
  2529  H   0.997        C 2528 0.966
  2530  C   3.982        C 2528 1.471    C 2532 1.383    H 2531 0.970
  2531  H   0.998        C 2530 0.970
  2532  C   3.989        C 2534 1.437    C 2530 1.383    H 2533 0.971    C 2526 0.114
  2533  H   0.999        C 2532 0.971
  2534  C   3.979        C 2532 1.437    C 2525 1.196    C 2520 1.131
  2535  C   3.941        O 2536 1.620    N 2537 1.292    C 2515 0.936
  2536  O   1.953        C 2535 1.620    N 2537 0.183
  2537  N   3.449        C 2535 1.292    C 2539 0.976    H 2538 0.908    O 2536 0.183
  2538  H   0.955        N 2537 0.908
  2539  C   3.964        N 2537 0.976    C 2541 0.974    H 2540 0.942    C 2547 0.939
  2540  H   0.994        C 2539 0.942
  2541  C   3.978        H 2542 0.980    C 2539 0.974    H 2543 0.967    C 2544 0.900
  2542  H   0.999        C 2541 0.980
  2543  H   0.997        C 2541 0.967
  2544  C   3.939        O 2545 1.536    O 2546 1.478    C 2541 0.900
  2545  O   1.830        C 2544 1.536    O 2546 0.216
  2546  O   1.856        C 2544 1.478    O 2545 0.216
  2547  C   3.945        O 2548 1.641    N 2549 1.290    C 2539 0.939
  2548  O   1.956        C 2547 1.641    N 2549 0.196
  2549  N   3.448        C 2547 1.290    C 2551 0.952    H 2550 0.925    O 2548 0.196
  2550  H   0.959        N 2549 0.925
  2551  C   3.948        C 2553 0.989    H 2552 0.953    N 2549 0.952    C 2557 0.940
  2552  H   0.992        C 2551 0.953
  2553  C   3.970        C 2551 0.989    H 2554 0.982    H 2555 0.972    H 2556 0.971
  2554  H   0.993        C 2553 0.982
  2555  H   0.992        C 2553 0.972
  2556  H   0.991        C 2553 0.971
  2557  C   3.943        O 2558 1.659    N 2559 1.274    C 2551 0.940
  2558  O   1.969        C 2557 1.659    N 2559 0.196
  2559  N   3.440        C 2557 1.274    C 2561 0.962    H 2560 0.904    O 2558 0.196
  2560  H   0.958        N 2559 0.904
  2561  C   3.959        N 2559 0.962    C 2563 0.957    H 2562 0.949    C 2578 0.947
  2562  H   0.994        C 2561 0.949
  2563  C   3.982        C 2566 1.012    H 2565 0.965    H 2564 0.959    C 2561 0.957
  2564  H   0.997        C 2563 0.959
  2565  H   0.996        C 2563 0.965
  2566  C   3.986        C 2576 1.418    C 2567 1.397    C 2563 1.012
  2567  C   3.986        C 2569 1.439    C 2566 1.397    H 2568 0.968    C 2574 0.120
  2568  H   0.997        C 2567 0.968
  2569  C   3.986        C 2567 1.439    C 2571 1.392    H 2570 0.961
  2570  H   0.995        C 2569 0.961
  2571  C   3.946        C 2569 1.392    C 2574 1.348    O 2572 1.075
  2572  O   2.078        C 2571 1.075    H 2573 0.809
  2573  H   0.885        O 2572 0.809
  2574  C   3.987        C 2576 1.450    C 2571 1.348    H 2575 0.967    C 2567 0.120
  2575  H   0.998        C 2574 0.967
  2576  C   3.990        C 2574 1.450    C 2566 1.418    H 2577 0.956
  2577  H   0.999        C 2576 0.956
  2578  C   3.948        O 2579 1.585    N 2580 1.332    C 2561 0.947
  2579  O   1.908        C 2578 1.585    N 2580 0.195
  2580  N   3.477        C 2578 1.332    C 2582 0.958    H 2581 0.919    O 2579 0.195
  2581  H   0.964        N 2580 0.919
  2582  C   3.938        C 2584 0.992    H 2583 0.964    N 2580 0.958    C 2600 0.862
  2583  H   0.999        C 2582 0.964
  2584  C   3.994        C 2587 1.002    C 2582 0.992    H 2585 0.974    H 2586 0.974
  2585  H   0.999        C 2584 0.974
  2586  H   0.998        C 2584 0.974
  2587  C   3.983        C 2584 1.002    C 2590 0.986    H 2588 0.980    H 2589 0.977
  2588  H   0.998        C 2587 0.980
  2589  H   0.999        C 2587 0.977
  2590  C   3.982        C 2593 1.031    C 2587 0.986    H 2591 0.966    H 2592 0.962
  2591  H   0.991        C 2590 0.966
  2592  H   0.990        C 2590 0.962
  2593  C   3.922        C 2590 1.031    H 2595 0.962    H 2594 0.960    N 2596 0.950
  2594  H   0.987        C 2593 0.960
  2595  H   0.989        C 2593 0.962
  2596  N   3.656        C 2593 0.950    H 2599 0.912    H 2598 0.902    H 2597 0.831
  2597  H   0.917        N 2596 0.831
  2598  H   0.915        N 2596 0.902
  2599  H   0.930        N 2596 0.912
  2600  C   3.934        O 2601 1.528    O 2602 1.505    C 2582 0.862
  2601  O   1.829        C 2600 1.528    O 2602 0.221
  2602  O   1.808        C 2600 1.505    O 2601 0.221

molecular dipole:
                 x           y           z       tot (Debye)
 q only:      600.323     671.796     673.924
   full:      600.850     672.439     680.368    2871.268
molecular quadrupole (traceless):
                xx          xy          yy          xz          yz          zz
 q only:   -11453.901   70330.790    5327.343   71911.048   82097.822    6126.558
  q+dip:   -12103.265   70106.255    4815.655   72371.275   82740.413    7287.610
   full:   -12092.938   70106.649    4795.921   72371.325   82739.169    7297.017


           -------------------------------------------------
          | TOTAL ENERGY            -4085.280323865503 Eh   |
          | GRADIENT NORM               1.328087351233 Eh/α |
          | HOMO-LUMO GAP               1.848664997865 eV   |
           -------------------------------------------------
########################################################################
[WARNING] Runtime exception occurred
-2- restart_readRestart: Dimension missmatch in restart file.
-1- restart_readRestart: Number of electron missmatch in restart file.
########################################################################

------------------------------------------------------------------------
 * finished run on 2020/06/09 at 09:13:13.794     
------------------------------------------------------------------------
 total:
 * wall-time:     0 d,  0 h,  7 min, 11.269 sec
 *  cpu-time:     0 d,  5 h, 23 min,  9.190 sec
 * ratio c/w:    44.958 speedup
 SCF:
 * wall-time:     0 d,  0 h,  6 min, 40.013 sec
 *  cpu-time:     0 d,  5 h, 11 min, 41.137 sec
 * ratio c/w:    46.751 speedup

