      -----------------------------------------------------------      
     |                   =====================                   |     
     |                           x T B                           |     
     |                   =====================                   |     
     |                         S. Grimme                         |     
     |          Mulliken Center for Theoretical Chemistry        |     
     |                    University of Bonn                     |     
      -----------------------------------------------------------      

   * xtb version 6.2.3 (d7bf61a) compiled by 'conda@06d140edd85e' on 2020-05-12

   xtb is free software: you can redistribute it and/or modify it under
   the terms of the GNU Lesser General Public License as published by
   the Free Software Foundation, either version 3 of the License, or
   (at your option) any later version.
   
   xtb is distributed in the hope that it will be useful,
   but WITHOUT ANY WARRANTY; without even the implied warranty of
   MERCHANTABILITY or FITNESS FOR A PARTICULAR PURPOSE.  See the
   GNU Lesser General Public License for more details.
   
   Cite this work as:
   * S. Grimme, C. Bannwarth, P. Shushkov, J. Chem. Theory Comput., 2017,
     13, 1989-2009. DOI: 10.1021/acs.jctc.7b00118
   * C. Bannwarth, S. Ehlert and S. Grimme., J. Chem. Theory Comput., 2019,
     15, 1652-1671. DOI: 10.1021/acs.jctc.8b01176
   * P. Pracht, E. Caldeweyher, S. Ehlert, S. Grimme, ChemRxiv, 2019, preprint.
     DOI: 10.26434/chemrxiv.8326202.v1
   
   for DFT-D4:
   * E. Caldeweyher, C. Bannwarth and S. Grimme, J. Chem. Phys., 2017,
     147, 034112. DOI: 10.1063/1.4993215
   * E. Caldeweyher, S. Ehlert, A. Hansen, H. Neugebauer, S. Spicher,
     C. Bannwarth and S. Grimme, J. Chem. Phys., 2019, 150, 154122.
     DOI: 10.1063/1.5090222
   
   for sTDA-xTB:
   * S. Grimme and C. Bannwarth, J. Chem. Phys., 2016, 145, 054103.
     DOI: 10.1063/1.4959605
   
   in the mass-spec context:
   * V. Asgeirsson, C. Bauer and S. Grimme, Chem. Sci., 2017, 8, 4879.
     DOI: 10.1039/c7sc00601b
   
   for metadynamics refer to:
   * S. Grimme, J. Chem. Theory Comput., 2019, 155, 2847-2862
     DOI: 10.1021/acs.jctc.9b00143
   
   with help from (in alphabetical order)
   C. Bannwarth, F. Bohle, G. Brandenburg, E. Caldeweyher, M. Checinski,
   S. Dohm, S. Ehlert, S. Ehrlich, F. März, H. Neugebauer, J. Pisarek,
   P. Pracht, P. Shushkov, and S. Spicher.
   
 * started run on 2020/06/09 at 08:36:05.580     

           -------------------------------------------------
          |                Calculation Setup                |
           -------------------------------------------------

          program call               : xtb host_16061.xyz --chrg +9 --uhf 0 --gbsa water
          hostname                   : gold56.cluster.local
          coordinate file            : host_16061.xyz
          omp threads                :                    64
          number of atoms            :                  2602
          number of electrons        :                  7192
          charge                     :                     9
          spin                       :                   0.0
          first test random number   :      0.48540946154113

########################################################################
[WARNING] Please study the warnings concerning your input carefully
-2- prog_main: XTBPATH is not set, using XTBHOME instead
-1- prog_main: XTBHOME is not set, using HOME instead
########################################################################
           ------------------------------------------------- 
          |                 G F N 2 - x T B                 |
          | Geometry, Frequencies, Noncovalent interactions |
          |            JCTC 2019 parametrisation            |
           ------------------------------------------------- 
             k(s)              :                1.8500
             k(p)              :                2.2300
             k(d)              :                2.2300
             k(f)              :                2.0000
             kEN (H0ij)        :               -2.0000
             D4 a1             :                0.5200
             D4 a2             :                5.0000
             D4 s6             :                1.0000
             D4 s8             :                2.7000
             D4 s9             :                5.0000
             alphaj            :                2.0000

  Z AO/shell   Hii/eV     exponent
  1     Wed Apr 25 08:07:45 CEST 2018   EN: 2.200 GM2: 0.406  GM3: 0.0800  RAES: 1.40
     1s    -10.707211    1.230000
  6     Wed Apr 25 08:07:45 CEST 2018   EN: 2.550 GM2: 0.538  GM3: 0.1500  RAES: 3.00
     2s    -13.970922    2.096432
     2p    -10.063292    1.800000
  7     Wed Apr 25 08:07:45 CEST 2018   EN: 3.040 GM2: 0.461  GM3:-0.0640  RAES: 1.90
     2s    -16.686243    2.339881
     2p    -12.523956    2.014332
  8     Wed Apr 25 08:07:45 CEST 2018   EN: 3.440 GM2: 0.452  GM3:-0.0517  RAES: 1.80
     2s    -20.229985    2.439742
     2p    -15.503117    2.137023
 16     Tue Apr 24 11:44:34 CEST 2018   EN: 2.580 GM2: 0.340  GM3:-0.0502  RAES: 3.10
     3s    -20.029654    1.981333
     3p    -11.377694    2.025643
     3d     -0.420282    1.702555

 Solvent             : water
 Using internal parameter file: .param_gbsa2_water
 Gsolv ref. state (COSMO-RS): gsolv [1 M gas/solution]
 temperature (mdtemp)       :    298.14999999999998     
 dielectric constant        :    80.200000000000003     
 rho                        :    1.0000000000000000     
 mass                       :    18.000000000000000     
 surface tension            :    15.568945408385856     
 probe radius               :   0.97531378999999996     
 Gshift (Eh)                :    1.8574431267947933E-003
 c1                         :    1.5524381700000001     
 soset                      :   0.13032636000000000     
 HB correction              :  T
           ------------------------------------------------- 
          |        Self-Consistent Charge Iterations        |
           ------------------------------------------------- 

          ...................................................
          :                      SETUP                      :
          :.................................................:
          :  # basis functions                6511          :
          :  # atomic orbitals                6505          :
          :  # shells                         3899          :
          :  # electrons                      7192          :
          :  max. iterations                   250          :
          :  Hamiltonian                  GFN2-xTB          :
          :  restarted?                      false          :
          :  GBSA solvation                   true          :
          :  PC potential                    false          :
          :  electronic temp.          300.0000000     K    :
          :  accuracy                    1.0000000          :
          :  -> integral cutoff          0.2500000E+02      :
          :  -> integral neglect         0.1000000E-07      :
          :  -> SCF convergence          0.1000000E-05 Eh   :
          :  -> wf. convergence          0.1000000E-03 e    :
          :  Broyden damping             0.4000000          :
          ...................................................

 iter      E             dE          RMSdq      gap      omega  full diag
   1  -4120.6593881 -0.412066E+04  0.427E+00    2.34       0.0  T
   2  -4132.9244237 -0.122650E+02  0.226E+00    2.44       1.0  T
   3  -4133.4032077 -0.478784E+00  0.119E+00    2.28       1.0  T
   4  -4133.4745756 -0.713679E-01  0.284E-01    1.91       1.0  T
   5  -4133.5703346 -0.957590E-01  0.141E-01    1.81       1.0  T
   6  -4133.5842148 -0.138802E-01  0.725E-02    1.91       1.0  T
   7  -4133.5864840 -0.226917E-02  0.376E-02    1.90       1.0  T
   8  -4133.5875709 -0.108694E-02  0.161E-02    1.89       1.0  T
   9  -4133.5877133 -0.142336E-03  0.970E-03    1.87       1.0  T
  10  -4133.5877841 -0.708707E-04  0.498E-03    1.86       1.0  T
  11  -4133.5878013 -0.171905E-04  0.243E-03    1.85       1.0  T
  12  -4133.5878061 -0.473840E-05  0.130E-03    1.85       1.5  T
  13  -4133.5878074 -0.136249E-05  0.697E-04    1.84       2.8  T
  14  -4133.5878078 -0.383427E-06  0.345E-04    1.84       5.7  T
  15  -4133.5878079 -0.105100E-06  0.175E-04    1.84      11.2  T

   *** convergence criteria satisfied after 15 iterations ***

         #    Occupation            Energy/Eh            Energy/eV
      -------------------------------------------------------------
         1        2.0000           -0.7482456             -20.3608
       ...           ...                  ...                  ...
      3590        2.0000           -0.3593957              -9.7797
      3591        2.0000           -0.3593478              -9.7784
      3592        2.0000           -0.3589681              -9.7680
      3593        2.0000           -0.3529607              -9.6045
      3594        2.0000           -0.3505667              -9.5394
      3595        2.0000           -0.3502242              -9.5301
      3596        2.0000           -0.3461377              -9.4189 (HOMO)
      3597                         -0.2784574              -7.5772 (LUMO)
      3598                         -0.2712554              -7.3812
      3599                         -0.2683483              -7.3021
      3600                         -0.2652853              -7.2188
      3601                         -0.2635702              -7.1721
       ...                                ...                  ...
      6505                          0.7737113              21.0538
      -------------------------------------------------------------
                  HL-Gap            0.0676804 Eh            1.8417 eV
             Fermi-level           -0.3122975 Eh           -8.4980 eV

 SCC (total)                   0 d,  0 h,  6 min, 51.952 sec
 SCC setup                      ...        0 min,  3.124 sec (  0.758%)
 Dispersion                     ...        0 min,  1.957 sec (  0.475%)
 integral evaluation            ...        0 min,  8.103 sec (  1.967%)
 zeroth order Hamiltonian       ...        0 min,  0.341 sec (  0.083%)
 iterations                     ...        6 min, 21.411 sec ( 92.586%)
 molecular gradient             ...        0 min, 16.311 sec (  3.960%)
 printout                       ...        0 min,  0.704 sec (  0.171%)

         :::::::::::::::::::::::::::::::::::::::::::::::::::::
         ::                     SUMMARY                     ::
         :::::::::::::::::::::::::::::::::::::::::::::::::::::
         :: total energy           -4085.364479028679 Eh    ::
         :: total w/o Gsasa/hb     -4084.965966698295 Eh    ::
         :: gradient norm              1.311994431041 Eh/a0 ::
         :: HOMO-LUMO gap              1.841676494991 eV    ::
         ::.................................................::
         :: SCC energy             -4133.654467054830 Eh    ::
         :: -> isotropic ES           14.132617639402 Eh    ::
         :: -> anisotropic ES         -0.763993978819 Eh    ::
         :: -> anisotropic XC          1.146175704183 Eh    ::
         :: -> dispersion             -3.896537776121 Eh    ::
         :: -> Gsolv                  -4.014606957751 Eh    ::
         ::    -> Gborn               -3.616094627367 Eh    ::
         ::    -> Gsasa               -0.068516571320 Eh    ::
         ::    -> Ghb                 -0.331853202191 Eh    ::
         ::    -> Gshift               0.001857443127 Eh    ::
         :: repulsion energy          47.747404520103 Eh    ::
         :: add. restraining           0.000000000000 Eh    ::
         :::::::::::::::::::::::::::::::::::::::::::::::::::::

           -------------------------------------------------
          |                Property Printout                |
           -------------------------------------------------

    * Orbital Energies and Occupations

         #    Occupation            Energy/Eh            Energy/eV
      -------------------------------------------------------------
         1        2.0000           -0.7482456             -20.3608
       ...           ...                  ...                  ...
      3584        2.0000           -0.3671879              -9.9917
      3585        2.0000           -0.3657310              -9.9520
      3586        2.0000           -0.3643998              -9.9158
      3587        2.0000           -0.3632834              -9.8854
      3588        2.0000           -0.3628563              -9.8738
      3589        2.0000           -0.3615374              -9.8379
      3590        2.0000           -0.3593957              -9.7797
      3591        2.0000           -0.3593478              -9.7784
      3592        2.0000           -0.3589681              -9.7680
      3593        2.0000           -0.3529607              -9.6045
      3594        2.0000           -0.3505667              -9.5394
      3595        2.0000           -0.3502242              -9.5301
      3596        2.0000           -0.3461377              -9.4189 (HOMO)
      3597                         -0.2784574              -7.5772 (LUMO)
      3598                         -0.2712554              -7.3812
      3599                         -0.2683483              -7.3021
      3600                         -0.2652853              -7.2188
      3601                         -0.2635702              -7.1721
      3602                         -0.2630537              -7.1581
      3603                         -0.2622704              -7.1367
      3604                         -0.2620405              -7.1305
      3605                         -0.2613668              -7.1122
      3606                         -0.2605424              -7.0897
      3607                         -0.2593497              -7.0573
       ...                                ...                  ...
      6505                          0.7737113              21.0538
      -------------------------------------------------------------
                  HL-Gap            0.0676804 Eh            1.8417 eV
             Fermi-level           -0.3122975 Eh           -8.4980 eV

     #   Z        covCN         q      C6AA      α(0)
     1   7 N      3.490    -0.157    24.390     7.335
     2   1 H      0.860     0.308     0.689     1.300
     3   1 H      0.860     0.309     0.687     1.298
     4   1 H      0.860     0.315     0.670     1.282
     5   6 C      3.790    -0.037    21.247     6.565
     6   1 H      0.924     0.132     1.520     1.928
     7   6 C      3.830    -0.095    22.283     6.717
     8   1 H      0.924     0.107     1.722     2.052
     9   1 H      0.924     0.104     1.751     2.069
    10   6 C      3.803    -0.014    20.817     6.496
    11   1 H      0.925     0.068     2.107     2.270
    12   1 H      0.925     0.069     2.098     2.265
    13  16 S      1.967    -0.222   150.517    20.649
    14   6 C      3.742    -0.053    21.600     6.630
    15   1 H      0.925     0.067     2.119     2.276
    16   1 H      0.925     0.046     2.374     2.410
    17   1 H      0.925     0.035     2.514     2.480
    18   6 C      2.758     0.266    22.515     7.770
    19   8 O      0.859    -0.445    22.598     6.373
    20   7 N      2.691    -0.149    24.230     7.311
    21   1 H      0.860     0.210     1.054     1.608
    22   6 C      3.790     0.009    20.434     6.438
    23   1 H      0.924     0.107     1.726     2.055
    24   6 C      3.802    -0.123    22.855     6.806
    25   1 H      0.924     0.101     1.777     2.084
    26   1 H      0.925     0.083     1.949     2.183
    27   6 C      2.741     0.294    22.014     7.682
    28   8 O      0.869    -0.482    23.391     6.485
    29   7 N      2.645    -0.295    27.614     7.804
    30   1 H      0.860     0.219     1.014     1.578
    31   1 H      0.860     0.231     0.963     1.537
    32   6 C      2.758     0.273    22.386     7.748
    33   8 O      0.858    -0.482    23.392     6.485
    34   7 N      2.690    -0.177    24.841     7.402
    35   1 H      0.860     0.216     1.026     1.587
    36   6 C      3.792     0.011    20.393     6.431
    37   1 H      0.924     0.095     1.829     2.115
    38   6 C      3.854    -0.037    21.205     6.549
    39   1 H      0.924     0.079     1.992     2.207
    40   6 C      3.757    -0.130    23.054     6.846
    41   1 H      0.924     0.041     2.438     2.442
    42   1 H      0.924     0.076     2.026     2.226
    43   1 H      0.925     0.043     2.415     2.430
    44   6 C      3.805    -0.068    21.806     6.648
    45   1 H      0.925     0.026     2.639     2.540
    46   1 H      0.925     0.055     2.260     2.351
    47   6 C      3.748    -0.121    22.892     6.824
    48   1 H      0.925     0.058     2.228     2.334
    49   1 H      0.925     0.050     2.323     2.383
    50   1 H      0.924     0.040     2.450     2.448
    51   6 C      2.748     0.265    22.523     7.771
    52   8 O      0.859    -0.460    22.924     6.419
    53   7 N      2.686    -0.184    24.980     7.423
    54   1 H      0.860     0.198     1.116     1.655
    55   6 C      3.792     0.021    20.227     6.405
    56   1 H      0.925     0.084     1.936     2.176
    57   6 C      3.807    -0.080    22.028     6.681
    58   1 H      0.925     0.056     2.252     2.347
    59   1 H      0.924     0.055     2.258     2.350
    60   6 C      2.963    -0.002    28.073     8.691
    61   6 C      2.900    -0.055    29.373     8.886
    62   1 H      0.926     0.057     2.234     2.337
    63   6 C      2.920    -0.032    28.809     8.802
    64   1 H      0.926     0.034     2.532     2.488
    65   6 C      2.902    -0.037    28.920     8.818
    66   1 H      0.926     0.048     2.341     2.392
    67   6 C      2.910    -0.040    28.985     8.828
    68   1 H      0.926     0.054     2.269     2.356
    69   6 C      2.901    -0.047    29.168     8.855
    70   1 H      0.926     0.041     2.438     2.441
    71   6 C      2.749     0.262    22.591     7.783
    72   8 O      0.859    -0.492    23.599     6.513
    73   7 N      2.687    -0.172    24.727     7.385
    74   1 H      0.860     0.214     1.039     1.597
    75   6 C      3.797     0.025    20.163     6.394
    76   1 H      0.924     0.092     1.860     2.133
    77   6 C      3.814    -0.059    21.620     6.618
    78   1 H      0.924     0.054     2.276     2.359
    79   1 H      0.925     0.070     2.088     2.260
    80   6 C      3.810    -0.087    22.152     6.700
    81   1 H      0.925     0.036     2.503     2.474
    82   1 H      0.925     0.040     2.452     2.449
    83   6 C      2.691     0.365    20.804     7.465
    84   8 O      0.857    -0.634    26.959     6.961
    85   8 O      0.857    -0.628    26.827     6.944
    86   6 C      2.748     0.266    22.505     7.768
    87   8 O      0.859    -0.488    23.531     6.504
    88   7 N      2.686    -0.179    24.868     7.406
    89   1 H      0.860     0.212     1.045     1.601
    90   6 C      3.776     0.027    20.149     6.396
    91   1 H      0.925     0.068     2.103     2.268
    92   6 C      3.805    -0.083    22.080     6.689
    93   1 H      0.925     0.077     2.013     2.219
    94   1 H      0.924     0.072     2.064     2.247
    95   6 C      3.794    -0.022    20.976     6.522
    96   1 H      0.925     0.050     2.322     2.383
    97   1 H      0.925     0.041     2.436     2.441
    98  16 S      1.956    -0.182   148.785    20.530
    99   6 C      3.741    -0.082    22.144     6.714
   100   1 H      0.925     0.072     2.064     2.247
   101   1 H      0.925     0.066     2.133     2.284
   102   1 H      0.925     0.069     2.094     2.263
   103   6 C      2.743     0.277    22.315     7.735
   104   8 O      0.858    -0.465    23.028     6.434
   105   7 N      2.680    -0.193    25.196     7.455
   106   1 H      0.860     0.210     1.058     1.612
   107   6 C      3.787     0.028    20.113     6.388
   108   1 H      0.925     0.088     1.899     2.155
   109   6 C      3.812    -0.071    21.843     6.652
   110   1 H      0.924     0.059     2.210     2.325
   111   1 H      0.924     0.062     2.173     2.305
   112   6 C      3.844    -0.026    20.999     6.519
   113   1 H      0.924     0.053     2.280     2.361
   114   6 C      3.757    -0.126    22.971     6.833
   115   1 H      0.925     0.065     2.143     2.289
   116   1 H      0.925     0.042     2.422     2.434
   117   1 H      0.924     0.030     2.592     2.518
   118   6 C      3.748    -0.121    22.896     6.825
   119   1 H      0.925     0.053     2.287     2.365
   120   1 H      0.925     0.049     2.330     2.387
   121   1 H      0.925     0.051     2.309     2.377
   122   6 C      2.760     0.262    22.579     7.782
   123   8 O      0.859    -0.500    23.782     6.538
   124   7 N      2.682    -0.188    25.087     7.439
   125   1 H      0.860     0.206     1.077     1.625
   126   6 C      3.787     0.014    20.360     6.427
   127   1 H      0.924     0.089     1.891     2.151
   128   6 C      3.801    -0.076    21.950     6.670
   129   1 H      0.925     0.075     2.028     2.227
   130   1 H      0.925     0.057     2.229     2.335
   131   6 C      3.810    -0.087    22.146     6.699
   132   1 H      0.924     0.078     1.998     2.210
   133   1 H      0.924     0.075     2.031     2.228
   134   6 C      3.742    -0.015    20.912     6.524
   135   1 H      0.925     0.079     1.992     2.207
   136   1 H      0.925     0.094     1.837     2.120
   137   7 N      2.705    -0.204    25.426     7.489
   138   1 H      0.861     0.248     0.890     1.478
   139   6 C      2.734     0.248    22.838     7.824
   140   7 N      2.727    -0.265    26.865     7.698
   141   1 H      0.860     0.249     0.886     1.475
   142   1 H      0.860     0.230     0.963     1.537
   143   7 N      2.739    -0.285    27.335     7.765
   144   1 H      0.860     0.259     0.848     1.443
   145   1 H      0.860     0.226     0.980     1.551
   146   6 C      2.751     0.274    22.366     7.744
   147   8 O      0.863    -0.505    23.893     6.554
   148   7 N      2.690    -0.174    24.759     7.390
   149   1 H      0.860     0.212     1.045     1.601
   150   6 C      3.791     0.009    20.444     6.439
   151   1 H      0.925     0.078     1.997     2.210
   152   6 C      3.850    -0.012    20.757     6.480
   153   1 H      0.925     0.044     2.392     2.418
   154   6 C      3.761    -0.117    22.784     6.805
   155   1 H      0.925     0.041     2.436     2.441
   156   1 H      0.925     0.053     2.287     2.365
   157   1 H      0.924     0.052     2.290     2.367
   158   6 C      3.803    -0.062    21.683     6.629
   159   1 H      0.924     0.030     2.590     2.517
   160   1 H      0.925     0.036     2.506     2.476
   161   6 C      3.744    -0.107    22.626     6.786
   162   1 H      0.925     0.040     2.451     2.448
   163   1 H      0.925     0.040     2.444     2.445
   164   1 H      0.925     0.042     2.426     2.436
   165   6 C      2.744     0.277    22.308     7.734
   166   8 O      0.859    -0.466    23.039     6.435
   167   7 N      2.685    -0.211    25.600     7.515
   168   1 H      0.860     0.225     0.987     1.556
   169   6 C      3.785     0.024    20.179     6.398
   170   1 H      0.924     0.098     1.806     2.102
   171   6 C      3.813    -0.096    22.312     6.723
   172   1 H      0.924     0.063     2.170     2.304
   173   1 H      0.925     0.042     2.419     2.432
   174   6 C      2.691     0.371    20.717     7.449
   175   8 O      0.858    -0.583    25.693     6.796
   176   8 O      0.858    -0.579    25.614     6.785
   177   6 C      2.751     0.256    22.697     7.801
   178   8 O      0.858    -0.502    23.834     6.546
   179   7 N      2.688    -0.200    25.348     7.478
   180   1 H      0.860     0.212     1.047     1.603
   181   6 C      3.789     0.038    19.952     6.362
   182   1 H      0.925     0.072     2.064     2.247
   183   6 C      3.812    -0.053    21.519     6.603
   184   1 H      0.924     0.058     2.224     2.332
   185   1 H      0.925     0.045     2.389     2.417
   186   6 C      3.805    -0.088    22.169     6.703
   187   1 H      0.925     0.018     2.759     2.597
   188   1 H      0.924     0.032     2.562     2.503
   189   6 C      2.688     0.363    20.850     7.473
   190   8 O      0.857    -0.654    27.488     7.029
   191   8 O      0.856    -0.641    27.156     6.987
   192   6 C      2.746     0.281    22.242     7.722
   193   8 O      0.859    -0.480    23.336     6.477
   194   7 N      2.678    -0.172    24.720     7.384
   195   1 H      0.860     0.207     1.072     1.622
   196   6 C      3.725    -0.037    21.344     6.597
   197   1 H      0.925     0.097     1.811     2.105
   198   1 H      0.924     0.084     1.935     2.175
   199   6 C      2.737     0.250    22.807     7.819
   200   8 O      0.858    -0.496    23.693     6.526
   201   7 N      2.683    -0.171    24.711     7.383
   202   1 H      0.860     0.209     1.062     1.614
   203   6 C      3.768     0.010    20.450     6.445
   204   1 H      0.924     0.073     2.054     2.241
   205   6 C      3.803    -0.082    22.062     6.687
   206   1 H      0.925     0.078     1.999     2.211
   207   1 H      0.924     0.051     2.307     2.375
   208   6 C      3.850    -0.019    20.874     6.498
   209   1 H      0.924     0.050     2.323     2.383
   210   6 C      3.753    -0.128    23.016     6.841
   211   1 H      0.925     0.038     2.476     2.461
   212   1 H      0.925     0.029     2.597     2.520
   213   1 H      0.925     0.050     2.321     2.383
   214   6 C      3.761    -0.134    23.124     6.855
   215   1 H      0.924     0.050     2.326     2.385
   216   1 H      0.925     0.061     2.185     2.312
   217   1 H      0.925     0.055     2.254     2.348
   218   6 C      2.742     0.256    22.696     7.800
   219   8 O      0.856    -0.486    23.477     6.496
   220   7 N      2.685    -0.162    24.516     7.354
   221   1 H      0.860     0.222     1.002     1.568
   222   6 C      3.788     0.004    20.519     6.452
   223   1 H      0.925     0.089     1.889     2.149
   224   6 C      3.801    -0.086    22.141     6.699
   225   1 H      0.924     0.090     1.876     2.142
   226   1 H      0.924     0.071     2.071     2.250
   227   6 C      3.807    -0.091    22.234     6.712
   228   1 H      0.925     0.070     2.086     2.259
   229   1 H      0.925     0.086     1.914     2.164
   230   6 C      3.740    -0.038    21.340     6.591
   231   1 H      0.925     0.102     1.763     2.077
   232   1 H      0.925     0.095     1.829     2.115
   233   7 N      2.715    -0.150    24.250     7.314
   234   1 H      0.860     0.216     1.030     1.590
   235   6 C      2.736     0.240    22.991     7.850
   236   7 N      2.670    -0.242    26.326     7.620
   237   1 H      0.860     0.249     0.888     1.476
   238   1 H      0.860     0.261     0.842     1.438
   239   7 N      2.687    -0.255    26.628     7.664
   240   1 H      0.860     0.237     0.934     1.514
   241   1 H      0.860     0.225     0.989     1.558
   242   6 C      2.753     0.264    22.552     7.776
   243   8 O      0.859    -0.462    22.965     6.425
   244   7 N      2.685    -0.199    25.327     7.474
   245   1 H      0.860     0.212     1.049     1.604
   246   6 C      3.778     0.015    20.349     6.427
   247   1 H      0.924     0.086     1.914     2.163
   248   6 C      3.805    -0.085    22.120     6.696
   249   1 H      0.925     0.086     1.917     2.165
   250   1 H      0.925     0.061     2.190     2.314
   251   6 C      3.846    -0.022    20.930     6.508
   252   1 H      0.925     0.048     2.344     2.394
   253   6 C      3.751    -0.136    23.185     6.867
   254   1 H      0.925     0.041     2.429     2.437
   255   1 H      0.925     0.051     2.303     2.373
   256   1 H      0.924     0.062     2.173     2.305
   257   6 C      3.756    -0.124    22.942     6.829
   258   1 H      0.925     0.040     2.444     2.445
   259   1 H      0.925     0.038     2.469     2.457
   260   1 H      0.925     0.037     2.494     2.470
   261   6 C      2.737     0.260    22.624     7.788
   262   8 O      0.858    -0.480    23.347     6.478
   263   7 N      2.689    -0.172    24.731     7.386
   264   1 H      0.860     0.199     1.112     1.652
   265   6 C      3.785     0.007    20.470     6.444
   266   1 H      0.924     0.104     1.747     2.067
   267   6 C      3.804    -0.084    22.109     6.694
   268   1 H      0.925     0.075     2.036     2.231
   269   1 H      0.925     0.075     2.036     2.232
   270   6 C      3.799    -0.089    22.192     6.707
   271   1 H      0.925     0.076     2.016     2.220
   272   1 H      0.924     0.073     2.057     2.243
   273   6 C      3.810    -0.103    22.451     6.745
   274   1 H      0.925     0.090     1.883     2.146
   275   1 H      0.925     0.078     2.004     2.214
   276   6 C      3.735    -0.054    21.639     6.639
   277   1 H      0.924     0.114     1.660     2.015
   278   1 H      0.925     0.134     1.506     1.919
   279   7 N      3.489    -0.158    24.408     7.338
   280   1 H      0.860     0.292     0.739     1.346
   281   1 H      0.860     0.291     0.740     1.347
   282   1 H      0.860     0.298     0.719     1.328
   283   6 C      2.754     0.262    22.575     7.780
   284   8 O      0.858    -0.521    24.261     6.604
   285   7 N      2.686    -0.164    24.553     7.359
   286   1 H      0.860     0.223     0.994     1.562
   287   6 C      3.801     0.006    20.486     6.444
   288   1 H      0.924     0.072     2.065     2.247
   289   6 C      3.856    -0.029    21.057     6.526
   290   1 H      0.925     0.081     1.968     2.194
   291   6 C      3.751    -0.123    22.914     6.826
   292   1 H      0.924     0.031     2.572     2.508
   293   1 H      0.925     0.047     2.352     2.398
   294   1 H      0.924     0.059     2.205     2.322
   295   6 C      3.798    -0.090    22.211     6.711
   296   1 H      0.925     0.069     2.095     2.263
   297   1 H      0.925     0.037     2.494     2.470
   298   6 C      3.741    -0.126    22.997     6.842
   299   1 H      0.924     0.069     2.101     2.267
   300   1 H      0.925     0.032     2.551     2.498
   301   1 H      0.924     0.035     2.512     2.479
   302   6 C      2.753     0.291    22.068     7.692
   303   8 O      0.858    -0.456    22.842     6.408
   304   7 N      2.685    -0.189    25.097     7.440
   305   1 H      0.860     0.221     1.006     1.571
   306   6 C      3.770     0.003    20.566     6.463
   307   1 H      0.925     0.100     1.783     2.088
   308   6 C      3.819    -0.086    22.117     6.693
   309   1 H      0.925     0.093     1.851     2.128
   310   1 H      0.925     0.076     2.021     2.223
   311   6 C      2.961     0.005    27.909     8.665
   312   6 C      2.919    -0.059    29.455     8.900
   313   1 H      0.926     0.064     2.149     2.292
   314   6 C      2.908    -0.089    30.238     9.017
   315   1 H      0.926     0.028     2.614     2.528
   316   6 C      2.828     0.136    25.018     8.196
   317   8 O      1.661    -0.419    21.219     6.219
   318   1 H      0.805     0.321     0.661     1.277
   319   6 C      2.913    -0.068    29.706     8.937
   320   1 H      0.926     0.032     2.560     2.502
   321   6 C      2.916    -0.042    29.036     8.836
   322   1 H      0.926     0.073     2.050     2.239
   323   6 C      2.737     0.271    22.429     7.754
   324   8 O      0.871    -0.499    23.762     6.536
   325   7 N      2.694    -0.156    24.372     7.332
   326   1 H      0.860     0.224     0.992     1.560
   327   6 C      3.792     0.019    20.270     6.412
   328   1 H      0.924     0.078     1.999     2.211
   329   6 C      3.809    -0.080    22.021     6.680
   330   1 H      0.925     0.048     2.342     2.393
   331   1 H      0.924     0.087     1.907     2.159
   332   6 C      3.805    -0.087    22.152     6.700
   333   1 H      0.925     0.088     1.899     2.155
   334   1 H      0.925     0.054     2.274     2.358
   335   6 C      3.797    -0.101    22.437     6.745
   336   1 H      0.925     0.064     2.153     2.295
   337   1 H      0.925     0.083     1.946     2.182
   338   6 C      3.726    -0.061    21.776     6.663
   339   1 H      0.925     0.140     1.464     1.892
   340   1 H      0.924     0.127     1.557     1.951
   341   7 N      3.489    -0.145    24.130     7.296
   342   1 H      0.860     0.292     0.736     1.344
   343   1 H      0.860     0.295     0.730     1.338
   344   1 H      0.860     0.303     0.703     1.314
   345   6 C      2.752     0.279    22.285     7.730
   346   8 O      0.862    -0.506    23.914     6.557
   347   7 N      2.686    -0.187    25.063     7.435
   348   1 H      0.860     0.219     1.015     1.579
   349   6 C      3.781     0.044    19.853     6.347
   350   1 H      0.924     0.069     2.100     2.266
   351   6 C      3.798    -0.095    22.324     6.728
   352   1 H      0.924     0.039     2.457     2.451
   353   1 H      0.924     0.058     2.222     2.331
   354   6 C      2.686     0.363    20.848     7.472
   355   8 O      0.859    -0.635    26.986     6.965
   356   8 O      0.858    -0.663    27.720     7.059
   357   6 C      2.752     0.274    22.359     7.743
   358   8 O      0.861    -0.478    23.310     6.473
   359   7 N      2.684    -0.195    25.226     7.459
   360   1 H      0.860     0.193     1.143     1.675
   361   6 C      3.783     0.016    20.316     6.421
   362   1 H      0.924     0.099     1.791     2.093
   363   6 C      3.727     0.121    18.705     6.175
   364   1 H      0.925     0.007     2.936     2.679
   365   6 C      3.752    -0.133    23.128     6.858
   366   1 H      0.925     0.080     1.978     2.200
   367   1 H      0.925     0.079     1.992     2.207
   368   1 H      0.924     0.066     2.136     2.285
   369   8 O      1.657    -0.467    22.201     6.361
   370   1 H      0.806     0.322     0.659     1.275
   371   6 C      2.750     0.266    22.520     7.771
   372   8 O      0.858    -0.515    24.128     6.586
   373   7 N      2.680    -0.162    24.507     7.352
   374   1 H      0.860     0.192     1.145     1.676
   375   6 C      3.783     0.020    20.257     6.411
   376   1 H      0.925     0.089     1.887     2.148
   377   6 C      3.797    -0.040    21.296     6.571
   378   1 H      0.925     0.057     2.239     2.340
   379   1 H      0.925     0.019     2.748     2.592
   380   6 C      3.796    -0.086    22.143     6.701
   381   1 H      0.925     0.010     2.894     2.660
   382   1 H      0.925     0.018     2.762     2.599
   383   6 C      2.683     0.372    20.694     7.445
   384   8 O      0.856    -0.657    27.559     7.038
   385   8 O      0.857    -0.631    26.884     6.952
   386   6 C      2.747     0.274    22.365     7.744
   387   8 O      0.860    -0.472    23.177     6.455
   388   7 N      2.683    -0.187    25.046     7.433
   389   1 H      0.860     0.216     1.029     1.589
   390   6 C      3.746    -0.042    21.395     6.598
   391   1 H      0.925     0.121     1.609     1.984
   392   1 H      0.925     0.116     1.645     2.006
   393   6 C      2.746     0.284    22.184     7.712
   394   8 O      0.861    -0.410    21.881     6.272
   395   7 N      2.685    -0.205    25.462     7.494
   396   1 H      0.860     0.164     1.309     1.793
   397   6 C      3.800     0.021    20.224     6.403
   398   1 H      0.925     0.077     2.013     2.219
   399   6 C      3.801    -0.076    21.950     6.670
   400   1 H      0.925     0.076     2.025     2.225
   401   1 H      0.924     0.029     2.605     2.524
   402   6 C      2.953    -0.004    28.114     8.697
   403   6 C      2.920    -0.031    28.767     8.795
   404   1 H      0.926     0.013     2.847     2.638
   405   6 C      2.907    -0.054    29.345     8.883
   406   1 H      0.926     0.033     2.550     2.497
   407   6 C      2.834     0.130    25.146     8.217
   408   8 O      1.657    -0.434    21.525     6.263
   409   1 H      0.806     0.362     0.560     1.176
   410   6 C      2.903    -0.070    29.737     8.941
   411   1 H      0.926     0.072     2.059     2.244
   412   6 C      2.920    -0.039    28.978     8.828
   413   1 H      0.926     0.055     2.258     2.350
   414   6 C      2.770     0.275    22.359     7.744
   415   8 O      0.858    -0.484    23.443     6.492
   416   7 N      2.698    -0.155    24.347     7.328
   417   1 H      0.860     0.220     1.010     1.574
   418   6 C      3.801     0.019    20.254     6.408
   419   1 H      0.925     0.077     2.008     2.216
   420   6 C      3.801    -0.084    22.110     6.695
   421   1 H      0.925     0.078     1.997     2.210
   422   1 H      0.925     0.054     2.277     2.360
   423   6 C      2.951    -0.005    28.140     8.701
   424   6 C      2.922    -0.041    29.011     8.833
   425   1 H      0.926     0.028     2.621     2.532
   426   6 C      2.909    -0.071    29.767     8.946
   427   1 H      0.926     0.038     2.478     2.462
   428   6 C      2.832     0.142    24.898     8.177
   429   8 O      1.660    -0.412    21.086     6.199
   430   1 H      0.805     0.349     0.591     1.208
   431   6 C      2.911    -0.069    29.716     8.939
   432   1 H      0.926     0.086     1.915     2.164
   433   6 C      2.919    -0.053    29.307     8.878
   434   1 H      0.926     0.057     2.229     2.335
   435   6 C      2.744     0.276    22.336     7.738
   436   8 O      0.866    -0.501    23.802     6.541
   437   7 N      2.691    -0.176    24.814     7.398
   438   1 H      0.860     0.230     0.966     1.540
   439   6 C      3.787     0.009    20.445     6.440
   440   1 H      0.925     0.065     2.141     2.288
   441   6 C      3.723     0.123    18.683     6.173
   442   1 H      0.924     0.036     2.506     2.475
   443   6 C      3.749    -0.115    22.776     6.807
   444   1 H      0.924     0.059     2.205     2.322
   445   1 H      0.925     0.036     2.501     2.473
   446   1 H      0.924     0.039     2.461     2.453
   447   8 O      1.656    -0.486    22.595     6.417
   448   1 H      0.806     0.323     0.655     1.271
   449   6 C      2.756     0.276    22.332     7.739
   450   8 O      0.875    -0.460    22.908     6.417
   451   7 N      2.707    -0.162    24.502     7.352
   452   1 H      0.860     0.202     1.098     1.641
   453   6 C      3.800     0.016    20.301     6.415
   454   1 H      0.925     0.100     1.784     2.089
   455   6 C      3.858    -0.035    21.164     6.543
   456   1 H      0.924     0.069     2.099     2.266
   457   6 C      3.746    -0.133    23.129     6.860
   458   1 H      0.925     0.049     2.331     2.387
   459   1 H      0.925     0.043     2.414     2.430
   460   1 H      0.924     0.067     2.124     2.279
   461   6 C      3.804    -0.077    21.960     6.671
   462   1 H      0.924     0.048     2.343     2.394
   463   1 H      0.925     0.043     2.405     2.425
   464   6 C      3.752    -0.125    22.949     6.831
   465   1 H      0.925     0.051     2.306     2.375
   466   1 H      0.925     0.056     2.246     2.344
   467   1 H      0.925     0.053     2.283     2.363
   468   6 C      2.749     0.260    22.616     7.787
   469   8 O      0.859    -0.528    24.424     6.626
   470   7 N      2.682    -0.155    24.364     7.331
   471   1 H      0.860     0.244     0.905     1.491
   472   6 C      3.746    -0.037    21.308     6.584
   473   1 H      0.925     0.076     2.021     2.223
   474   1 H      0.925     0.120     1.613     1.986
   475   6 C      2.746     0.265    22.531     7.772
   476   8 O      0.856    -0.457    22.847     6.408
   477   7 N      2.695    -0.176    24.819     7.399
   478   1 H      0.860     0.198     1.116     1.655
   479   6 C      3.798     0.008    20.443     6.438
   480   1 H      0.925     0.082     1.960     2.189
   481   6 C      3.852    -0.014    20.797     6.486
   482   1 H      0.925     0.046     2.371     2.408
   483   6 C      3.754    -0.114    22.742     6.800
   484   1 H      0.925     0.027     2.631     2.537
   485   1 H      0.925     0.057     2.231     2.336
   486   1 H      0.924     0.061     2.186     2.312
   487   6 C      3.804    -0.070    21.844     6.654
   488   1 H      0.925     0.045     2.388     2.417
   489   1 H      0.925     0.053     2.285     2.364
   490   6 C      3.746    -0.119    22.847     6.818
   491   1 H      0.925     0.040     2.445     2.445
   492   1 H      0.924     0.036     2.499     2.472
   493   1 H      0.925     0.052     2.289     2.366
   494   6 C      2.751     0.255    22.719     7.805
   495   8 O      0.859    -0.495    23.673     6.523
   496   7 N      2.687    -0.163    24.516     7.354
   497   1 H      0.860     0.224     0.992     1.560
   498   6 C      3.733    -0.027    21.147     6.563
   499   1 H      0.924     0.104     1.747     2.067
   500   1 H      0.925     0.098     1.801     2.099
   501   6 C      2.739     0.257    22.670     7.796
   502   8 O      0.856    -0.530    24.458     6.631
   503   7 N      2.684    -0.136    23.960     7.270
   504   1 H      0.860     0.225     0.989     1.558
   505   6 C      3.798     0.034    20.010     6.369
   506   1 H      0.924     0.059     2.212     2.326
   507   6 C      3.810    -0.080    22.021     6.680
   508   1 H      0.924     0.113     1.671     2.021
   509   1 H      0.925     0.096     1.823     2.112
   510   6 C      3.074     0.053    26.744     8.479
   511   7 N      2.775    -0.036    21.936     6.956
   512   1 H      0.860     0.259     0.849     1.444
   513   6 C      3.005     0.071    26.402     8.429
   514   1 H      0.926     0.140     1.464     1.892
   515   7 N      2.779    -0.015    21.541     6.893
   516   1 H      0.860     0.264     0.831     1.428
   517   6 C      2.983    -0.003    28.103     8.696
   518   1 H      0.926     0.148     1.406     1.855
   519   6 C      2.750     0.270    22.431     7.755
   520   8 O      0.860    -0.458    22.879     6.413
   521   7 N      2.690    -0.175    24.782     7.394
   522   1 H      0.860     0.196     1.127     1.663
   523   6 C      3.785     0.029    20.109     6.387
   524   1 H      0.925     0.056     2.245     2.343
   525   6 C      3.795    -0.083    22.088     6.692
   526   1 H      0.925     0.056     2.250     2.346
   527   1 H      0.924     0.054     2.271     2.356
   528   6 C      3.830    -0.016    20.847     6.496
   529   1 H      0.925     0.023     2.691     2.565
   530   6 C      3.760    -0.118    22.808     6.808
   531   1 H      0.925     0.048     2.340     2.392
   532   1 H      0.925     0.057     2.229     2.335
   533   1 H      0.925     0.035     2.513     2.479
   534   6 C      3.748    -0.124    22.951     6.833
   535   1 H      0.924     0.058     2.217     2.328
   536   1 H      0.925     0.045     2.384     2.415
   537   1 H      0.925     0.047     2.355     2.400
   538   6 C      2.744     0.271    22.414     7.752
   539   8 O      0.858    -0.471    23.156     6.452
   540   7 N      2.683    -0.193    25.184     7.453
   541   1 H      0.860     0.217     1.025     1.586
   542   6 C      3.776     0.025    20.183     6.401
   543   1 H      0.925     0.086     1.915     2.164
   544   6 C      3.811    -0.074    21.896     6.661
   545   1 H      0.925     0.045     2.386     2.415
   546   1 H      0.925     0.061     2.193     2.316
   547   6 C      3.847    -0.020    20.906     6.504
   548   1 H      0.924     0.039     2.460     2.453
   549   6 C      3.747    -0.127    23.011     6.842
   550   1 H      0.925     0.060     2.201     2.320
   551   1 H      0.924     0.046     2.370     2.408
   552   1 H      0.925     0.069     2.096     2.264
   553   6 C      3.759    -0.125    22.956     6.831
   554   1 H      0.925     0.035     2.516     2.481
   555   1 H      0.924     0.063     2.167     2.302
   556   1 H      0.925     0.035     2.516     2.481
   557   6 C      2.746     0.260    22.624     7.788
   558   8 O      0.857    -0.492    23.617     6.516
   559   7 N      2.686    -0.176    24.801     7.396
   560   1 H      0.860     0.222     1.003     1.568
   561   6 C      3.812     0.022    20.200     6.397
   562   1 H      0.924     0.061     2.185     2.312
   563   6 C      3.735     0.124    18.641     6.162
   564   1 H      0.924     0.027     2.636     2.539
   565   6 C      3.756    -0.133    23.111     6.855
   566   1 H      0.924     0.043     2.413     2.429
   567   1 H      0.924     0.068     2.112     2.272
   568   1 H      0.924     0.046     2.368     2.407
   569   8 O      1.659    -0.473    22.313     6.377
   570   1 H      0.806     0.348     0.593     1.210
   571   6 C      2.749     0.281    22.238     7.722
   572   8 O      0.861    -0.442    22.545     6.366
   573   7 N      2.686    -0.203    25.417     7.488
   574   1 H      0.860     0.204     1.086     1.632
   575   6 C      3.776     0.009    20.460     6.445
   576   1 H      0.925     0.091     1.873     2.140
   577   6 C      3.803    -0.083    22.078     6.689
   578   1 H      0.925     0.064     2.155     2.296
   579   1 H      0.924     0.065     2.143     2.289
   580   6 C      3.804    -0.073    21.889     6.661
   581   1 H      0.924     0.046     2.365     2.405
   582   1 H      0.925     0.075     2.037     2.232
   583   6 C      3.809    -0.092    22.250     6.715
   584   1 H      0.925     0.088     1.900     2.156
   585   1 H      0.925     0.069     2.097     2.265
   586   6 C      3.734    -0.053    21.609     6.634
   587   1 H      0.925     0.102     1.769     2.080
   588   1 H      0.924     0.115     1.652     2.010
   589   7 N      3.489    -0.144    24.099     7.291
   590   1 H      0.860     0.303     0.704     1.314
   591   1 H      0.860     0.303     0.705     1.315
   592   1 H      0.860     0.307     0.694     1.305
   593   6 C      2.739     0.278    22.286     7.729
   594   8 O      0.862    -0.459    22.892     6.415
   595   7 N      2.682    -0.202    25.391     7.484
   596   1 H      0.860     0.194     1.136     1.670
   597   6 C      3.783     0.017    20.314     6.420
   598   1 H      0.925     0.089     1.890     2.150
   599   6 C      3.697     0.074    19.499     6.316
   600   1 H      0.925     0.052     2.295     2.369
   601   1 H      0.925     0.045     2.387     2.416
   602   8 O      1.657    -0.463    22.107     6.347
   603   1 H      0.806     0.351     0.587     1.203
   604   6 C      2.772     0.267    22.490     7.767
   605   8 O      0.858    -0.495    23.670     6.523
   606   7 N      2.760    -0.097    23.143     7.145
   607   6 C      3.752    -0.017    20.937     6.525
   608   1 H      0.924     0.073     2.053     2.241
   609   1 H      0.925     0.062     2.172     2.305
   610   6 C      3.838    -0.071    21.831     6.647
   611   1 H      0.924     0.061     2.191     2.315
   612   1 H      0.925     0.055     2.253     2.347
   613   6 C      3.810    -0.070    21.832     6.651
   614   1 H      0.924     0.063     2.165     2.301
   615   1 H      0.925     0.074     2.044     2.235
   616   6 C      3.788     0.009    20.441     6.439
   617   1 H      0.925     0.084     1.937     2.176
   618   6 C      2.744     0.285    22.176     7.711
   619   8 O      0.866    -0.459    22.900     6.416
   620   7 N      2.697    -0.171    24.705     7.382
   621   1 H      0.860     0.202     1.094     1.639
   622   6 C      3.793     0.013    20.364     6.426
   623   1 H      0.925     0.098     1.800     2.098
   624   6 C      3.680     0.060    19.784     6.371
   625   1 H      0.925     0.060     2.202     2.321
   626   1 H      0.925     0.060     2.198     2.319
   627   8 O      1.658    -0.475    22.350     6.382
   628   1 H      0.806     0.344     0.602     1.219
   629   6 C      2.758     0.274    22.373     7.746
   630   8 O      0.871    -0.513    24.075     6.579
   631   7 N      2.704    -0.168    24.638     7.372
   632   1 H      0.860     0.217     1.021     1.583
   633   6 C      3.798     0.014    20.350     6.423
   634   1 H      0.925     0.097     1.810     2.104
   635   6 C      3.808    -0.088    22.176     6.703
   636   1 H      0.924     0.059     2.215     2.327
   637   1 H      0.925     0.069     2.092     2.262
   638   6 C      3.830    -0.027    21.026     6.524
   639   1 H      0.924     0.054     2.267     2.355
   640   6 C      3.747    -0.136    23.180     6.867
   641   1 H      0.925     0.064     2.149     2.293
   642   1 H      0.925     0.058     2.228     2.334
   643   1 H      0.924     0.040     2.453     2.449
   644   6 C      3.745    -0.139    23.242     6.877
   645   1 H      0.925     0.073     2.054     2.241
   646   1 H      0.925     0.044     2.396     2.421
   647   1 H      0.924     0.049     2.332     2.388
   648   6 C      2.771     0.274    22.366     7.746
   649   8 O      0.862    -0.472    23.180     6.455
   650   7 N      2.698    -0.163    24.517     7.354
   651   1 H      0.860     0.210     1.058     1.611
   652   6 C      3.806     0.017    20.289     6.412
   653   1 H      0.924     0.111     1.688     2.032
   654   6 C      3.814    -0.120    22.776     6.793
   655   1 H      0.924     0.093     1.850     2.127
   656   1 H      0.925     0.084     1.938     2.177
   657   6 C      2.744     0.288    22.116     7.700
   658   8 O      0.863    -0.485    23.459     6.494
   659   7 N      2.644    -0.287    27.415     7.776
   660   1 H      0.860     0.248     0.892     1.479
   661   1 H      0.860     0.227     0.977     1.548
   662   6 C      2.751     0.260    22.627     7.789
   663   8 O      0.862    -0.522    24.286     6.607
   664   7 N      2.704    -0.164    24.554     7.359
   665   1 H      0.860     0.227     0.978     1.549
   666   6 C      3.797     0.038    19.940     6.358
   667   1 H      0.925     0.085     1.931     2.173
   668   6 C      3.772    -0.134    23.098     6.849
   669   1 H      0.925     0.085     1.926     2.171
   670   1 H      0.924     0.062     2.171     2.304
   671   1 H      0.925     0.073     2.048     2.238
   672   6 C      2.755     0.269    22.453     7.759
   673   8 O      0.861    -0.528    24.404     6.623
   674   7 N      2.690    -0.196    25.252     7.463
   675   1 H      0.860     0.229     0.971     1.544
   676   6 C      3.787     0.030    20.090     6.384
   677   1 H      0.925     0.061     2.184     2.311
   678   6 C      3.761    -0.135    23.149     6.859
   679   1 H      0.924     0.078     2.002     2.213
   680   1 H      0.924     0.072     2.069     2.249
   681   1 H      0.925     0.080     1.977     2.199
   682   6 C      2.746     0.272    22.396     7.749
   683   8 O      0.863    -0.482    23.395     6.485
   684   7 N      2.675    -0.198    25.297     7.470
   685   1 H      0.860     0.234     0.946     1.524
   686   6 C      3.768    -0.001    20.632     6.473
   687   1 H      0.925     0.107     1.721     2.052
   688   6 C      3.807    -0.079    22.003     6.677
   689   1 H      0.925     0.052     2.292     2.367
   690   1 H      0.924     0.074     2.040     2.233
   691   6 C      3.806    -0.089    22.200     6.707
   692   1 H      0.925     0.089     1.893     2.152
   693   1 H      0.925     0.069     2.091     2.262
   694   6 C      3.810    -0.099    22.386     6.735
   695   1 H      0.925     0.069     2.100     2.266
   696   1 H      0.925     0.080     1.977     2.199
   697   6 C      3.729    -0.055    21.667     6.645
   698   1 H      0.924     0.127     1.561     1.954
   699   1 H      0.925     0.132     1.520     1.928
   700   7 N      3.485    -0.144    24.109     7.293
   701   1 H      0.860     0.289     0.747     1.354
   702   1 H      0.860     0.294     0.731     1.339
   703   1 H      0.860     0.303     0.703     1.314
   704   6 C      2.754     0.270    22.435     7.756
   705   8 O      0.858    -0.502    23.830     6.545
   706   7 N      2.685    -0.194    25.201     7.456
   707   1 H      0.860     0.238     0.933     1.513
   708   6 C      3.787     0.023    20.204     6.402
   709   1 H      0.925     0.077     2.010     2.217
   710   6 C      3.679     0.078    19.483     6.323
   711   1 H      0.925     0.045     2.379     2.412
   712   1 H      0.925     0.042     2.421     2.433
   713   8 O      1.657    -0.462    22.084     6.344
   714   1 H      0.806     0.356     0.574     1.190
   715   6 C      2.740     0.256    22.691     7.799
   716   8 O      0.860    -0.533    24.527     6.640
   717   7 N      2.683    -0.151    24.269     7.317
   718   1 H      0.860     0.219     1.016     1.579
   719   6 C      3.780     0.038    19.959     6.365
   720   1 H      0.925     0.068     2.110     2.272
   721   6 C      3.809    -0.048    21.418     6.588
   722   1 H      0.924     0.053     2.288     2.365
   723   1 H      0.925     0.045     2.379     2.412
   724   6 C      3.796    -0.093    22.279     6.721
   725   1 H      0.925     0.026     2.638     2.540
   726   1 H      0.925     0.024     2.666     2.553
   727   6 C      2.683     0.366    20.800     7.463
   728   8 O      0.856    -0.630    26.877     6.951
   729   8 O      0.856    -0.660    27.642     7.049
   730   6 C      2.748     0.257    22.677     7.797
   731   8 O      0.857    -0.500    23.788     6.539
   732   7 N      2.677    -0.177    24.841     7.402
   733   1 H      0.860     0.214     1.038     1.596
   734   6 C      3.777     0.017    20.313     6.421
   735   1 H      0.924     0.104     1.753     2.071
   736   6 C      3.801    -0.093    22.274     6.719
   737   1 H      0.925     0.055     2.254     2.348
   738   1 H      0.925     0.087     1.904     2.158
   739   6 C      3.852    -0.018    20.852     6.495
   740   1 H      0.924     0.017     2.777     2.606
   741   6 C      3.763    -0.133    23.090     6.849
   742   1 H      0.925     0.048     2.340     2.392
   743   1 H      0.925     0.030     2.585     2.514
   744   1 H      0.924     0.070     2.084     2.257
   745   6 C      3.770    -0.132    23.070     6.845
   746   1 H      0.925     0.066     2.125     2.280
   747   1 H      0.925     0.037     2.482     2.464
   748   1 H      0.925     0.084     1.936     2.176
   749   6 C      2.748     0.276    22.329     7.737
   750   8 O      0.857    -0.500    23.782     6.538
   751   7 N      2.678    -0.203    25.403     7.486
   752   1 H      0.860     0.230     0.966     1.539
   753   6 C      3.780     0.039    19.933     6.360
   754   1 H      0.925     0.073     2.051     2.240
   755   6 C      3.804    -0.090    22.205     6.709
   756   1 H      0.925     0.031     2.569     2.506
   757   1 H      0.924     0.046     2.365     2.405
   758   6 C      2.685     0.374    20.657     7.438
   759   8 O      0.857    -0.644    27.218     6.995
   760   8 O      0.856    -0.644    27.228     6.996
   761   6 C      2.750     0.285    22.167     7.709
   762   8 O      0.858    -0.490    23.565     6.508
   763   7 N      2.688    -0.199    25.316     7.473
   764   1 H      0.860     0.201     1.103     1.645
   765   6 C      3.788     0.034    20.016     6.372
   766   1 H      0.925     0.069     2.102     2.267
   767   6 C      3.806    -0.064    21.718     6.634
   768   1 H      0.924     0.033     2.545     2.495
   769   1 H      0.924     0.052     2.300     2.372
   770   6 C      3.804    -0.073    21.894     6.661
   771   1 H      0.924     0.067     2.123     2.279
   772   1 H      0.925     0.052     2.301     2.372
   773   6 C      3.790    -0.082    22.080     6.692
   774   1 H      0.925     0.067     2.123     2.279
   775   1 H      0.925     0.064     2.156     2.296
   776   6 C      3.718    -0.059    21.752     6.662
   777   1 H      0.925     0.126     1.567     1.957
   778   1 H      0.924     0.129     1.543     1.943
   779   7 N      3.487    -0.137    23.956     7.269
   780   1 H      0.860     0.288     0.749     1.355
   781   1 H      0.860     0.298     0.718     1.327
   782   1 H      0.860     0.312     0.678     1.290
   783   6 C      2.750     0.269    22.461     7.760
   784   8 O      0.860    -0.521    24.265     6.604
   785   7 N      2.682    -0.179    24.884     7.409
   786   1 H      0.860     0.218     1.019     1.582
   787   6 C      3.783     0.026    20.151     6.394
   788   1 H      0.925     0.074     2.042     2.234
   789   6 C      3.757    -0.137    23.181     6.865
   790   1 H      0.924     0.075     2.036     2.231
   791   1 H      0.924     0.078     1.999     2.211
   792   1 H      0.924     0.083     1.946     2.181
   793   6 C      2.748     0.284    22.190     7.713
   794   8 O      0.863    -0.484    23.437     6.491
   795   7 N      2.688    -0.200    25.335     7.476
   796   1 H      0.860     0.217     1.024     1.585
   797   6 C      3.800     0.023    20.183     6.396
   798   1 H      0.924     0.090     1.878     2.143
   799   6 C      3.843    -0.021    20.914     6.505
   800   1 H      0.925     0.026     2.645     2.544
   801   6 C      3.754    -0.118    22.822     6.812
   802   1 H      0.925     0.040     2.451     2.448
   803   1 H      0.924     0.064     2.152     2.294
   804   1 H      0.925     0.051     2.310     2.377
   805   6 C      3.803    -0.071    21.863     6.657
   806   1 H      0.925     0.067     2.115     2.274
   807   1 H      0.924     0.055     2.254     2.348
   808   6 C      3.751    -0.110    22.670     6.790
   809   1 H      0.924     0.026     2.647     2.544
   810   1 H      0.925     0.039     2.465     2.455
   811   1 H      0.925     0.061     2.183     2.310
   812   6 C      2.749     0.268    22.473     7.762
   813   8 O      0.858    -0.528    24.413     6.624
   814   7 N      2.690    -0.169    24.653     7.374
   815   1 H      0.860     0.211     1.049     1.605
   816   6 C      3.730    -0.025    21.119     6.560
   817   1 H      0.924     0.099     1.793     2.094
   818   1 H      0.924     0.080     1.982     2.202
   819   6 C      2.740     0.277    22.321     7.735
   820   8 O      0.859    -0.520    24.233     6.600
   821   7 N      2.683    -0.167    24.619     7.369
   822   1 H      0.860     0.199     1.109     1.649
   823   6 C      3.798     0.025    20.162     6.393
   824   1 H      0.925     0.077     2.011     2.218
   825   6 C      3.811    -0.075    21.925     6.665
   826   1 H      0.925     0.073     2.049     2.239
   827   1 H      0.924     0.074     2.044     2.236
   828   6 C      3.803    -0.073    21.891     6.661
   829   1 H      0.925     0.050     2.318     2.381
   830   1 H      0.925     0.055     2.259     2.351
   831   6 C      3.730    -0.016    20.951     6.534
   832   1 H      0.924     0.075     2.033     2.230
   833   1 H      0.925     0.075     2.028     2.227
   834   7 N      2.703    -0.175    24.794     7.395
   835   1 H      0.862     0.262     0.840     1.435
   836   6 C      2.734     0.246    22.873     7.830
   837   7 N      2.701    -0.239    26.242     7.608
   838   1 H      0.860     0.250     0.882     1.471
   839   1 H      0.860     0.233     0.952     1.529
   840   7 N      2.700    -0.294    27.574     7.799
   841   1 H      0.860     0.223     0.996     1.563
   842   1 H      0.860     0.241     0.920     1.503
   843   6 C      2.757     0.274    22.373     7.746
   844   8 O      0.859    -0.524    24.317     6.611
   845   7 N      2.691    -0.158    24.416     7.339
   846   1 H      0.860     0.225     0.987     1.556
   847   6 C      3.793     0.038    19.949     6.360
   848   1 H      0.925     0.072     2.067     2.248
   849   6 C      3.808    -0.110    22.603     6.768
   850   1 H      0.924     0.096     1.824     2.112
   851   1 H      0.925     0.081     1.965     2.192
   852   6 C      2.744     0.305    21.827     7.650
   853   8 O      0.880    -0.478    23.291     6.471
   854   7 N      2.657    -0.304    27.816     7.833
   855   1 H      0.860     0.250     0.883     1.472
   856   1 H      0.860     0.216     1.026     1.587
   857   6 C      2.746     0.274    22.360     7.743
   858   8 O      0.858    -0.476    23.257     6.466
   859   7 N      2.681    -0.148    24.210     7.308
   860   1 H      0.860     0.186     1.180     1.701
   861   6 C      3.823     0.012    20.364     6.422
   862   1 H      0.924     0.115     1.655     2.012
   863   6 C      3.798    -0.013    20.812     6.496
   864   1 H      0.925     0.104     1.746     2.067
   865   1 H      0.925     0.042     2.426     2.436
   866  16 S      1.931    -0.312   154.619    20.929
   867   1 H      0.923     0.199     1.105     1.644
   868   6 C      2.747     0.260    22.615     7.787
   869   8 O      0.859    -0.439    22.485     6.358
   870   7 N      2.683    -0.186    25.032     7.431
   871   1 H      0.860     0.187     1.177     1.699
   872   6 C      3.779     0.019    20.282     6.416
   873   1 H      0.925     0.086     1.917     2.165
   874   6 C      3.803    -0.104    22.486     6.751
   875   1 H      0.925     0.100     1.787     2.090
   876   1 H      0.925     0.064     2.148     2.292
   877   6 C      2.740     0.276    22.322     7.736
   878   8 O      0.858    -0.443    22.568     6.369
   879   7 N      2.635    -0.305    27.863     7.840
   880   1 H      0.860     0.260     0.846     1.441
   881   1 H      0.860     0.224     0.991     1.560
   882   6 C      2.740     0.270    22.444     7.757
   883   8 O      0.859    -0.424    22.163     6.312
   884   7 N      2.679    -0.167    24.609     7.368
   885   1 H      0.860     0.174     1.249     1.750
   886   6 C      3.733    -0.059    21.722     6.652
   887   1 H      0.925     0.137     1.486     1.906
   888   1 H      0.925     0.112     1.683     2.029
   889   6 C      2.745     0.253    22.744     7.809
   890   8 O      0.857    -0.479    23.321     6.475
   891   7 N      2.686    -0.146    24.153     7.299
   892   1 H      0.860     0.201     1.099     1.643
   893   6 C      3.796     0.000    20.583     6.460
   894   1 H      0.925     0.110     1.697     2.037
   895   6 C      3.854    -0.012    20.754     6.479
   896   1 H      0.925     0.039     2.462     2.454
   897   6 C      3.761    -0.127    22.982     6.834
   898   1 H      0.925     0.021     2.711     2.575
   899   1 H      0.925     0.051     2.311     2.377
   900   1 H      0.925     0.073     2.055     2.242
   901   6 C      3.756    -0.137    23.184     6.865
   902   1 H      0.925     0.066     2.131     2.283
   903   1 H      0.925     0.052     2.295     2.369
   904   1 H      0.924     0.071     2.076     2.253
   905   6 C      2.744     0.263    22.564     7.778
   906   8 O      0.857    -0.497    23.718     6.529
   907   7 N      2.678    -0.177    24.823     7.400
   908   1 H      0.860     0.228     0.974     1.546
   909   6 C      3.785     0.017    20.311     6.419
   910   1 H      0.924     0.075     2.030     2.228
   911   6 C      3.853    -0.025    20.984     6.515
   912   1 H      0.925     0.038     2.471     2.458
   913   6 C      3.753    -0.126    22.969     6.834
   914   1 H      0.924     0.036     2.509     2.477
   915   1 H      0.924     0.065     2.147     2.291
   916   1 H      0.925     0.059     2.214     2.327
   917   6 C      3.799    -0.073    21.898     6.663
   918   1 H      0.925     0.031     2.570     2.507
   919   1 H      0.925     0.051     2.310     2.377
   920   6 C      3.745    -0.130    23.063     6.850
   921   1 H      0.925     0.051     2.308     2.376
   922   1 H      0.925     0.064     2.157     2.296
   923   1 H      0.925     0.038     2.472     2.459
   924   6 C      2.746     0.263    22.563     7.778
   925   8 O      0.859    -0.466    23.044     6.436
   926   7 N      2.686    -0.176    24.808     7.397
   927   1 H      0.860     0.210     1.054     1.608
   928   6 C      3.792     0.001    20.572     6.459
   929   1 H      0.924     0.091     1.868     2.137
   930   6 C      3.728     0.106    18.929     6.211
   931   1 H      0.924     0.043     2.403     2.424
   932   6 C      3.752    -0.148    23.424     6.902
   933   1 H      0.925     0.078     2.002     2.213
   934   1 H      0.924     0.067     2.122     2.278
   935   1 H      0.925     0.055     2.256     2.349
   936   8 O      1.656    -0.505    22.999     6.474
   937   1 H      0.806     0.334     0.628     1.245
   938   6 C      2.757     0.266    22.511     7.770
   939   8 O      0.857    -0.497    23.710     6.528
   940   7 N      2.686    -0.174    24.772     7.392
   941   1 H      0.860     0.239     0.927     1.508
   942   6 C      3.787     0.009    20.435     6.438
   943   1 H      0.925     0.113     1.670     2.021
   944   6 C      3.805    -0.090    22.207     6.709
   945   1 H      0.924     0.075     2.037     2.232
   946   1 H      0.925     0.070     2.085     2.258
   947   6 C      3.804    -0.084    22.107     6.694
   948   1 H      0.924     0.076     2.020     2.222
   949   1 H      0.924     0.088     1.894     2.152
   950   6 C      3.795    -0.096    22.342     6.731
   951   1 H      0.925     0.069     2.093     2.262
   952   1 H      0.925     0.076     2.022     2.224
   953   6 C      3.718    -0.064    21.843     6.676
   954   1 H      0.925     0.133     1.516     1.925
   955   1 H      0.924     0.134     1.502     1.916
   956   7 N      3.481    -0.150    24.242     7.313
   957   1 H      0.860     0.307     0.693     1.304
   958   1 H      0.860     0.284     0.761     1.367
   959   1 H      0.860     0.295     0.729     1.338
   960   6 C      2.755     0.261    22.601     7.785
   961   8 O      0.858    -0.497    23.718     6.530
   962   7 N      2.686    -0.184    24.994     7.425
   963   1 H      0.860     0.202     1.097     1.641
   964   6 C      3.792     0.045    19.836     6.343
   965   1 H      0.924     0.080     1.984     2.203
   966   6 C      3.812    -0.102    22.442     6.743
   967   1 H      0.924     0.036     2.510     2.477
   968   1 H      0.925     0.042     2.428     2.437
   969   6 C      2.686     0.366    20.785     7.461
   970   8 O      0.859    -0.657    27.554     7.038
   971   8 O      0.860    -0.607    26.293     6.875
   972   6 C      2.758     0.279    22.275     7.729
   973   8 O      0.865    -0.508    23.954     6.562
   974   7 N      2.684    -0.169    24.659     7.375
   975   1 H      0.860     0.208     1.065     1.616
   976   6 C      3.795     0.021    20.230     6.405
   977   1 H      0.924     0.073     2.052     2.240
   978   6 C      3.819    -0.065    21.739     6.635
   979   1 H      0.924     0.069     2.099     2.266
   980   1 H      0.925     0.077     2.012     2.218
   981   6 C      3.805    -0.102    22.450     6.745
   982   1 H      0.925     0.045     2.389     2.417
   983   1 H      0.925     0.036     2.498     2.472
   984   6 C      2.681     0.360    20.889     7.479
   985   8 O      0.856    -0.586    25.778     6.807
   986   8 O      0.857    -0.582    25.687     6.795
   987   6 C      2.767     0.265    22.530     7.773
   988   8 O      0.859    -0.500    23.791     6.540
   989   7 N      2.687    -0.205    25.460     7.494
   990   1 H      0.860     0.234     0.946     1.524
   991   6 C      3.786     0.014    20.364     6.428
   992   1 H      0.924     0.090     1.878     2.143
   993   6 C      3.755    -0.136    23.168     6.863
   994   1 H      0.925     0.092     1.862     2.134
   995   1 H      0.924     0.088     1.901     2.156
   996   1 H      0.925     0.064     2.149     2.292
   997   6 C      2.752     0.265    22.527     7.772
   998   8 O      0.859    -0.509    23.980     6.566
   999   7 N      2.688    -0.160    24.459     7.345
  1000   1 H      0.860     0.205     1.082     1.629
  1001   6 C      3.802     0.018    20.265     6.409
  1002   1 H      0.925     0.087     1.911     2.162
  1003   6 C      3.811    -0.057    21.586     6.613
  1004   1 H      0.925     0.045     2.389     2.417
  1005   1 H      0.924     0.064     2.157     2.297
  1006   6 C      3.808    -0.090    22.212     6.709
  1007   1 H      0.924     0.036     2.500     2.472
  1008   1 H      0.924     0.024     2.672     2.556
  1009   6 C      2.694     0.369    20.749     7.455
  1010   8 O      0.857    -0.629    26.837     6.946
  1011   8 O      0.856    -0.632    26.927     6.957
  1012   6 C      2.754     0.264    22.550     7.776
  1013   8 O      0.861    -0.502    23.819     6.543
  1014   7 N      2.703    -0.171    24.694     7.380
  1015   1 H      0.860     0.225     0.987     1.557
  1016   6 C      3.805     0.020    20.231     6.403
  1017   1 H      0.925     0.084     1.934     2.175
  1018   6 C      3.825    -0.091    22.223     6.708
  1019   1 H      0.925     0.079     1.991     2.206
  1020   1 H      0.925     0.081     1.967     2.194
  1021   6 C      3.812    -0.096    22.328     6.726
  1022   1 H      0.924     0.053     2.286     2.364
  1023   1 H      0.925     0.075     2.035     2.231
  1024   6 C      3.816    -0.085    22.113     6.693
  1025   1 H      0.925     0.091     1.868     2.138
  1026   1 H      0.925     0.066     2.126     2.280
  1027   6 C      3.741    -0.045    21.465     6.610
  1028   1 H      0.925     0.120     1.616     1.988
  1029   1 H      0.925     0.104     1.751     2.069
  1030   7 N      3.491    -0.132    23.859     7.255
  1031   1 H      0.860     0.285     0.759     1.365
  1032   1 H      0.860     0.294     0.733     1.341
  1033   1 H      0.860     0.278     0.782     1.385
  1034   6 C      2.760     0.276    22.330     7.738
  1035   8 O      0.864    -0.507    23.937     6.560
  1036   7 N      2.683    -0.178    24.860     7.405
  1037   1 H      0.860     0.217     1.023     1.584
  1038   6 C      3.774     0.005    20.528     6.456
  1039   1 H      0.925     0.084     1.941     2.178
  1040   6 C      3.804    -0.086    22.144     6.699
  1041   1 H      0.925     0.065     2.141     2.288
  1042   1 H      0.924     0.093     1.847     2.125
  1043   6 C      3.836    -0.025    20.990     6.518
  1044   1 H      0.924     0.029     2.595     2.519
  1045   6 C      3.745    -0.126    22.991     6.840
  1046   1 H      0.925     0.049     2.332     2.388
  1047   1 H      0.925     0.064     2.148     2.292
  1048   1 H      0.925     0.023     2.693     2.566
  1049   6 C      3.746    -0.141    23.284     6.883
  1050   1 H      0.924     0.040     2.447     2.446
  1051   1 H      0.924     0.062     2.180     2.309
  1052   1 H      0.925     0.069     2.093     2.262
  1053   6 C      2.747     0.274    22.363     7.743
  1054   8 O      0.861    -0.494    23.652     6.520
  1055   7 N      2.689    -0.180    24.899     7.411
  1056   1 H      0.860     0.219     1.015     1.578
  1057   6 C      3.803     0.041    19.891     6.350
  1058   1 H      0.925     0.070     2.086     2.259
  1059   6 C      3.814    -0.082    22.045     6.683
  1060   1 H      0.924     0.066     2.133     2.284
  1061   1 H      0.925     0.076     2.016     2.220
  1062   6 C      2.953     0.000    28.019     8.682
  1063   6 C      2.915    -0.031    28.771     8.796
  1064   1 H      0.926     0.018     2.757     2.596
  1065   6 C      2.906    -0.030    28.757     8.793
  1066   1 H      0.926     0.043     2.412     2.428
  1067   6 C      2.907    -0.042    29.039     8.836
  1068   1 H      0.926     0.070     2.083     2.257
  1069   6 C      2.912    -0.035    28.868     8.810
  1070   1 H      0.926     0.045     2.386     2.415
  1071   6 C      2.908    -0.053    29.314     8.878
  1072   1 H      0.926     0.046     2.370     2.407
  1073   6 C      2.755     0.285    22.175     7.711
  1074   8 O      0.858    -0.478    23.313     6.474
  1075   7 N      2.675    -0.227    25.955     7.566
  1076   1 H      0.860     0.232     0.955     1.531
  1077   6 C      3.775     0.026    20.162     6.398
  1078   1 H      0.925     0.093     1.850     2.127
  1079   6 C      3.828    -0.104    22.460     6.743
  1080   1 H      0.925     0.073     2.055     2.242
  1081   1 H      0.924     0.098     1.804     2.101
  1082   6 C      2.747     0.291    22.065     7.691
  1083   8 O      0.860    -0.501    23.813     6.543
  1084   7 N      2.655    -0.276    27.139     7.737
  1085   1 H      0.860     0.247     0.895     1.482
  1086   1 H      0.860     0.227     0.976     1.548
  1087   6 C      2.738     0.277    22.309     7.733
  1088   8 O      0.859    -0.473    23.187     6.456
  1089   7 N      2.680    -0.204    25.440     7.491
  1090   1 H      0.860     0.213     1.042     1.599
  1091   6 C      3.779     0.021    20.250     6.411
  1092   1 H      0.924     0.077     2.007     2.215
  1093   6 C      3.801    -0.064    21.727     6.636
  1094   1 H      0.925     0.061     2.193     2.316
  1095   1 H      0.925     0.062     2.176     2.307
  1096   6 C      3.808    -0.106    22.519     6.755
  1097   1 H      0.925     0.072     2.061     2.245
  1098   1 H      0.924     0.067     2.116     2.275
  1099   6 C      2.741     0.295    21.988     7.678
  1100   8 O      0.860    -0.525    24.355     6.617
  1101   7 N      2.645    -0.279    27.211     7.747
  1102   1 H      0.860     0.220     1.008     1.573
  1103   1 H      0.860     0.239     0.927     1.508
  1104   6 C      2.742     0.271    22.420     7.753
  1105   8 O      0.859    -0.496    23.688     6.525
  1106   7 N      2.677    -0.171    24.708     7.383
  1107   1 H      0.860     0.200     1.107     1.648
  1108   6 C      3.771     0.034    20.036     6.379
  1109   1 H      0.925     0.080     1.983     2.202
  1110   6 C      3.798    -0.085    22.121     6.697
  1111   1 H      0.925     0.048     2.346     2.395
  1112   1 H      0.925     0.045     2.377     2.411
  1113   6 C      2.686     0.359    20.912     7.484
  1114   8 O      0.856    -0.608    26.324     6.879
  1115   8 O      0.856    -0.639    27.106     6.980
  1116   6 C      2.741     0.268    22.478     7.763
  1117   8 O      0.863    -0.504    23.860     6.549
  1118   7 N      2.684    -0.201    25.378     7.482
  1119   1 H      0.860     0.217     1.024     1.585
  1120   6 C      3.784     0.020    20.261     6.412
  1121   1 H      0.924     0.092     1.862     2.134
  1122   6 C      3.841    -0.018    20.859     6.497
  1123   1 H      0.925     0.037     2.484     2.465
  1124   6 C      3.756    -0.123    22.909     6.824
  1125   1 H      0.925     0.071     2.080     2.255
  1126   1 H      0.925     0.069     2.093     2.262
  1127   1 H      0.925     0.035     2.520     2.482
  1128   6 C      3.747    -0.124    22.940     6.832
  1129   1 H      0.924     0.037     2.490     2.468
  1130   1 H      0.925     0.066     2.127     2.281
  1131   1 H      0.925     0.056     2.249     2.345
  1132   6 C      2.751     0.288    22.123     7.702
  1133   8 O      0.867    -0.470    23.131     6.448
  1134   7 N      2.693    -0.205    25.452     7.493
  1135   1 H      0.860     0.205     1.081     1.628
  1136   6 C      3.800     0.051    19.727     6.324
  1137   1 H      0.924     0.056     2.241     2.341
  1138   6 C      3.800    -0.104    22.487     6.752
  1139   1 H      0.925     0.037     2.486     2.466
  1140   1 H      0.925     0.048     2.341     2.393
  1141   6 C      2.683     0.365    20.813     7.466
  1142   8 O      0.856    -0.607    26.298     6.875
  1143   8 O      0.856    -0.627    26.785     6.939
  1144   6 C      2.752     0.278    22.291     7.731
  1145   8 O      0.860    -0.483    23.420     6.489
  1146   7 N      2.695    -0.176    24.805     7.397
  1147   1 H      0.860     0.193     1.142     1.674
  1148   6 C      3.790     0.016    20.324     6.420
  1149   1 H      0.924     0.097     1.812     2.105
  1150   6 C      3.754    -0.129    23.045     6.845
  1151   1 H      0.925     0.076     2.020     2.223
  1152   1 H      0.924     0.080     1.978     2.200
  1153   1 H      0.925     0.047     2.359     2.402
  1154   6 C      2.751     0.260    22.626     7.789
  1155   8 O      0.858    -0.490    23.568     6.509
  1156   7 N      2.685    -0.165    24.575     7.363
  1157   1 H      0.860     0.195     1.131     1.666
  1158   6 C      3.777     0.009    20.459     6.444
  1159   1 H      0.924     0.098     1.808     2.102
  1160   6 C      3.747    -0.127    23.006     6.841
  1161   1 H      0.925     0.072     2.066     2.248
  1162   1 H      0.924     0.050     2.319     2.382
  1163   1 H      0.924     0.073     2.056     2.242
  1164   6 C      2.736     0.262    22.589     7.782
  1165   8 O      0.859    -0.472    23.183     6.456
  1166   7 N      2.678    -0.190    25.132     7.446
  1167   1 H      0.860     0.215     1.035     1.594
  1168   6 C      3.777     0.001    20.590     6.465
  1169   1 H      0.924     0.097     1.812     2.105
  1170   6 C      3.847    -0.012    20.766     6.482
  1171   1 H      0.925     0.031     2.566     2.505
  1172   6 C      3.755    -0.121    22.872     6.819
  1173   1 H      0.925     0.057     2.236     2.338
  1174   1 H      0.925     0.075     2.026     2.226
  1175   1 H      0.925     0.036     2.507     2.476
  1176   6 C      3.762    -0.128    23.003     6.837
  1177   1 H      0.925     0.047     2.360     2.402
  1178   1 H      0.925     0.068     2.110     2.272
  1179   1 H      0.924     0.046     2.367     2.406
  1180   6 C      2.745     0.274    22.365     7.743
  1181   8 O      0.864    -0.478    23.306     6.473
  1182   7 N      2.688    -0.162    24.507     7.352
  1183   1 H      0.860     0.196     1.126     1.663
  1184   6 C      3.792     0.009    20.444     6.439
  1185   1 H      0.924     0.094     1.839     2.120
  1186   6 C      3.794    -0.083    22.100     6.694
  1187   1 H      0.925     0.068     2.107     2.270
  1188   1 H      0.924     0.084     1.935     2.175
  1189   6 C      3.790    -0.088    22.183     6.708
  1190   1 H      0.925     0.080     1.975     2.198
  1191   1 H      0.925     0.058     2.223     2.332
  1192   6 C      3.731    -0.026    21.134     6.562
  1193   1 H      0.925     0.091     1.867     2.137
  1194   1 H      0.925     0.087     1.913     2.163
  1195   7 N      2.712    -0.155    24.351     7.329
  1196   1 H      0.860     0.218     1.019     1.581
  1197   6 C      2.735     0.246    22.867     7.829
  1198   7 N      2.698    -0.275    27.109     7.733
  1199   1 H      0.860     0.246     0.898     1.485
  1200   1 H      0.860     0.251     0.878     1.468
  1201   7 N      2.697    -0.252    26.547     7.652
  1202   1 H      0.860     0.249     0.888     1.476
  1203   1 H      0.860     0.233     0.952     1.528
  1204   6 C      2.744     0.269    22.455     7.759
  1205   8 O      0.860    -0.480    23.338     6.477
  1206   7 N      2.683    -0.150    24.248     7.313
  1207   1 H      0.860     0.192     1.150     1.680
  1208   6 C      3.733    -0.050    21.563     6.628
  1209   1 H      0.925     0.110     1.698     2.038
  1210   1 H      0.925     0.117     1.641     2.003
  1211   6 C      2.745     0.264    22.541     7.774
  1212   8 O      0.858    -0.469    23.104     6.444
  1213   7 N      2.681    -0.191    25.142     7.447
  1214   1 H      0.860     0.220     1.011     1.575
  1215   6 C      3.805     0.017    20.289     6.412
[...]
  2283  H   0.988        C 2281 0.945
  2284  C   3.959        O 2285 1.622    N 2286 1.343    C 2281 0.968
  2285  O   1.935        C 2284 1.622    N 2286 0.205
  2286  N   3.420        C 2284 1.343    H 2288 0.926    H 2287 0.912    O 2285 0.205
  2287  H   0.937        N 2286 0.912
  2288  H   0.949        N 2286 0.926
  2289  C   3.955        O 2290 1.644    N 2291 1.287    C 2279 0.956
  2290  O   1.983        C 2289 1.644    N 2291 0.201
  2291  N   3.449        C 2289 1.287    C 2293 0.950    H 2292 0.927    O 2290 0.201
  2292  H   0.961        N 2291 0.927
  2293  C   3.956        C 2295 0.993    N 2291 0.950    C 2313 0.949    H 2294 0.947
  2294  H   0.989        C 2293 0.947
  2295  C   3.985        C 2298 1.002    C 2293 0.993    H 2297 0.968    H 2296 0.962
  2296  H   0.996        C 2295 0.962
  2297  H   0.997        C 2295 0.968
  2298  C   3.986        C 2301 1.013    C 2295 1.002    H 2300 0.970    H 2299 0.968
  2299  H   0.996        C 2298 0.968
  2300  H   0.994        C 2298 0.970
  2301  C   3.955        C 2298 1.013    N 2304 0.968    H 2302 0.962    H 2303 0.958
  2302  H   0.993        C 2301 0.962
  2303  H   0.997        C 2301 0.958
  2304  N   3.439        C 2306 1.311    C 2301 0.968    H 2305 0.894    N 2307 0.101
  2305  H   0.939        N 2304 0.894
  2306  C   3.977        N 2307 1.333    N 2304 1.311    N 2310 1.306
  2307  N   3.416        C 2306 1.333    H 2309 0.925    H 2308 0.907    N 2310 0.104    N 2304 0.101
  2308  H   0.944        N 2307 0.907
  2309  H   0.952        N 2307 0.925
  2310  N   3.374        C 2306 1.306    H 2311 0.922    H 2312 0.881    N 2307 0.104
  2311  H   0.951        N 2310 0.922
  2312  H   0.925        N 2310 0.881
  2313  C   3.960        O 2314 1.585    N 2315 1.352    C 2293 0.949
  2314  O   1.928        C 2313 1.585    N 2315 0.204
  2315  N   3.512        C 2313 1.352    C 2317 0.974    H 2316 0.903    O 2314 0.204
  2316  H   0.949        N 2315 0.903
  2317  C   3.955        C 2319 0.996    N 2315 0.974    H 2318 0.944    C 2323 0.920
  2318  H   0.991        C 2317 0.944
  2319  C   3.979        C 2317 0.996    H 2320 0.980    H 2321 0.978    H 2322 0.975
  2320  H   0.997        C 2319 0.980
  2321  H   0.996        C 2319 0.978
  2322  H   0.994        C 2319 0.975
  2323  C   3.949        O 2324 1.628    N 2325 1.317    C 2317 0.920
  2324  O   1.976        C 2323 1.628    N 2325 0.196
  2325  N   3.474        C 2323 1.317    C 2327 0.977    H 2326 0.889    O 2324 0.196
  2326  H   0.950        N 2325 0.889
  2327  C   3.956        C 2329 0.985    N 2325 0.977    H 2328 0.946    C 2345 0.920
  2328  H   0.991        C 2327 0.946
  2329  C   3.981        C 2332 0.992    C 2327 0.985    H 2330 0.970    H 2331 0.965
  2330  H   0.995        C 2329 0.970
  2331  H   0.992        C 2329 0.965
  2332  C   3.990        C 2335 1.014    C 2329 0.992    H 2334 0.979    H 2333 0.973
  2333  H   0.995        C 2332 0.973
  2334  H   0.997        C 2332 0.979
  2335  C   3.984        C 2332 1.014    C 2338 0.991    H 2336 0.973    H 2337 0.972
  2336  H   0.993        C 2335 0.973
  2337  H   0.993        C 2335 0.972
  2338  C   3.910        C 2335 0.991    N 2341 0.971    H 2339 0.963    H 2340 0.957
  2339  H   0.984        C 2338 0.963
  2340  H   0.986        C 2338 0.957
  2341  N   3.655        C 2338 0.971    H 2344 0.892    H 2343 0.888    H 2342 0.887
  2342  H   0.911        N 2341 0.887
  2343  H   0.914        N 2341 0.888
  2344  H   0.908        N 2341 0.892
  2345  C   3.938        O 2346 1.571    N 2347 1.354    C 2327 0.920
  2346  O   1.938        C 2345 1.571    N 2347 0.187
  2347  N   3.493        C 2345 1.354    C 2349 0.970    H 2348 0.894    O 2346 0.187
  2348  H   0.942        N 2347 0.894
  2349  C   3.962        C 2351 0.974    N 2347 0.970    H 2350 0.942    C 2369 0.933
  2350  H   0.993        C 2349 0.942
  2351  C   3.985        C 2354 1.013    C 2349 0.974    H 2353 0.972    H 2352 0.965
  2352  H   0.996        C 2351 0.965
  2353  H   0.995        C 2351 0.972
  2354  C   3.987        C 2351 1.013    C 2357 0.999    H 2356 0.966    H 2355 0.963
  2355  H   0.992        C 2354 0.963
  2356  H   0.995        C 2354 0.966
  2357  C   3.955        C 2354 0.999    N 2360 0.976    H 2359 0.959    H 2358 0.955
  2358  H   0.994        C 2357 0.955
  2359  H   0.995        C 2357 0.959
  2360  N   3.431        C 2362 1.285    C 2357 0.976    H 2361 0.897
  2361  H   0.948        N 2360 0.897
  2362  C   3.979        N 2363 1.343    N 2366 1.326    N 2360 1.285
  2363  N   3.406        C 2362 1.343    H 2364 0.914    H 2365 0.899    N 2366 0.107
  2364  H   0.938        N 2363 0.914
  2365  H   0.938        N 2363 0.899
  2366  N   3.386        C 2362 1.326    H 2367 0.925    H 2368 0.844    N 2363 0.107
  2367  H   0.949        N 2366 0.925
  2368  H   0.935        N 2366 0.844
  2369  C   3.948        O 2370 1.619    N 2371 1.298    C 2349 0.933
  2370  O   2.003        C 2369 1.619    N 2371 0.198
  2371  N   3.479        C 2369 1.298    C 2373 0.995    H 2372 0.895    O 2370 0.198
  2372  H   0.946        N 2371 0.895
  2373  C   3.958        N 2371 0.995    C 2375 0.961    H 2374 0.945    C 2385 0.921
  2374  H   0.994        C 2373 0.945
  2375  C   3.984        C 2377 1.014    C 2381 0.998    H 2376 0.962    C 2373 0.961
  2376  H   0.996        C 2375 0.962
  2377  C   3.991        C 2375 1.014    H 2378 0.980    H 2380 0.976    H 2379 0.976
  2378  H   0.998        C 2377 0.980
  2379  H   0.995        C 2377 0.976
  2380  H   0.998        C 2377 0.976
  2381  C   3.990        C 2375 0.998    H 2382 0.984    H 2384 0.984    H 2383 0.982
  2382  H   0.997        C 2381 0.984
  2383  H   0.997        C 2381 0.982
  2384  H   0.997        C 2381 0.984
  2385  C   3.951        O 2386 1.614    N 2387 1.330    C 2373 0.921
  2386  O   1.943        C 2385 1.614    N 2387 0.199
  2387  N   3.478        C 2385 1.330    C 2389 0.969    H 2388 0.892    O 2386 0.199
  2388  H   0.950        N 2387 0.892
  2389  C   3.950        N 2387 0.969    C 2391 0.944    H 2390 0.944    C 2404 0.944
  2390  H   0.991        C 2389 0.944
  2391  C   3.977        C 2393 1.007    C 2397 1.000    H 2392 0.959    C 2389 0.944
  2392  H   0.996        C 2391 0.959
  2393  C   3.992        C 2391 1.007    H 2395 0.987    H 2394 0.985    H 2396 0.978
  2394  H   0.998        C 2393 0.985
  2395  H   0.998        C 2393 0.987
  2396  H   0.995        C 2393 0.978
  2397  C   3.994        C 2400 1.020    C 2391 1.000    H 2399 0.972    H 2398 0.968
  2398  H   0.998        C 2397 0.968
  2399  H   0.997        C 2397 0.972
  2400  C   3.993        C 2397 1.020    H 2402 0.981    H 2401 0.980    H 2403 0.979
  2401  H   0.997        C 2400 0.980
  2402  H   0.997        C 2400 0.981
  2403  H   0.998        C 2400 0.979
  2404  C   3.946        O 2405 1.629    N 2406 1.299    C 2389 0.944
  2405  O   1.950        C 2404 1.629    N 2406 0.190
  2406  N   3.453        C 2404 1.299    C 2408 0.965    H 2407 0.901    O 2405 0.190
  2407  H   0.959        N 2406 0.901
  2408  C   3.958        N 2406 0.965    C 2410 0.952    H 2409 0.948    C 2418 0.936
  2409  H   0.990        C 2408 0.948
  2410  C   3.964        C 2412 1.011    O 2416 0.999    H 2411 0.957    C 2408 0.952
  2411  H   0.999        C 2410 0.957
  2412  C   3.988        C 2410 1.011    H 2415 0.981    H 2413 0.979    H 2414 0.978
  2413  H   0.998        C 2412 0.979
  2414  H   0.995        C 2412 0.978
  2415  H   0.995        C 2412 0.981
  2416  O   1.940        C 2410 0.999    H 2417 0.843
  2417  H   0.887        O 2416 0.843
  2418  C   3.948        O 2419 1.614    N 2420 1.312    C 2408 0.936
  2419  O   1.973        C 2418 1.614    N 2420 0.197
  2420  N   3.468        C 2418 1.312    C 2422 0.973    H 2421 0.885    O 2419 0.197
  2421  H   0.948        N 2420 0.885
  2422  C   3.960        N 2420 0.973    C 2424 0.970    H 2423 0.946    C 2432 0.937
  2423  H   0.990        C 2422 0.946
  2424  C   3.951        C 2426 1.000    O 2430 0.972    C 2422 0.970    H 2425 0.961
  2425  H   0.997        C 2424 0.961
  2426  C   3.985        C 2424 1.000    H 2428 0.980    H 2429 0.978    H 2427 0.976
  2427  H   0.995        C 2426 0.976
  2428  H   0.997        C 2426 0.980
  2429  H   0.994        C 2426 0.978
  2430  O   1.921        C 2424 0.972    H 2431 0.867
  2431  H   0.902        O 2430 0.867
  2432  C   3.953        O 2433 1.605    N 2434 1.322    C 2422 0.937
  2433  O   1.941        C 2432 1.605    N 2434 0.197
  2434  N   3.488        C 2432 1.322    C 2436 0.975    H 2435 0.905    O 2433 0.197
  2435  H   0.952        N 2434 0.905
  2436  C   3.957        C 2438 0.975    N 2434 0.975    C 2452 0.950    H 2437 0.930
  2437  H   0.991        C 2436 0.930
  2438  C   3.981        C 2441 1.000    C 2436 0.975    H 2440 0.959    H 2439 0.952
  2439  H   0.992        C 2438 0.952
  2440  H   0.994        C 2438 0.959
  2441  C   3.987        C 2450 1.442    C 2442 1.396    C 2438 1.000    C 2446 0.104
  2442  C   3.988        C 2444 1.464    C 2441 1.396    H 2443 0.963    C 2448 0.108
  2443  H   0.998        C 2442 0.963
  2444  C   3.987        C 2442 1.464    C 2446 1.399    H 2445 0.970    C 2450 0.120
  2445  H   0.997        C 2444 0.970
  2446  C   3.989        C 2448 1.483    C 2444 1.399    H 2447 0.968    C 2441 0.104
  2447  H   0.997        C 2446 0.968
  2448  C   3.991        C 2446 1.483    C 2450 1.405    H 2449 0.968    C 2442 0.108
  2449  H   0.998        C 2448 0.968
  2450  C   3.991        C 2441 1.442    C 2448 1.405    H 2451 0.963    C 2444 0.120
  2451  H   0.999        C 2450 0.963
  2452  C   3.953        O 2453 1.630    N 2454 1.288    C 2436 0.950
  2453  O   1.990        C 2452 1.630    N 2454 0.195
  2454  N   3.465        C 2452 1.288    C 2456 0.970    H 2455 0.915    O 2453 0.195
  2455  H   0.955        N 2454 0.915
  2456  C   3.964        C 2458 0.989    N 2454 0.970    H 2457 0.952    C 2476 0.937
  2457  H   0.991        C 2456 0.952
  2458  C   3.985        C 2461 1.007    C 2456 0.989    H 2459 0.968    H 2460 0.961
  2459  H   0.995        C 2458 0.968
  2460  H   0.995        C 2458 0.961
  2461  C   3.985        C 2458 1.007    C 2464 0.985    H 2463 0.972    H 2462 0.971
  2462  H   0.992        C 2461 0.971
  2463  H   0.996        C 2461 0.972
  2464  C   3.941        C 2461 0.985    N 2467 0.971    H 2466 0.970    H 2465 0.967
  2465  H   0.992        C 2464 0.967
  2466  H   0.991        C 2464 0.970
  2467  N   3.441        C 2469 1.302    C 2464 0.971    H 2468 0.916    N 2470 0.107
  2468  H   0.942        N 2467 0.916
  2469  C   3.974        N 2470 1.361    N 2467 1.302    N 2473 1.286
  2470  N   3.437        C 2469 1.361    H 2472 0.919    H 2471 0.881    N 2467 0.107    N 2473 0.104
  2471  H   0.938        N 2470 0.881
  2472  H   0.947        N 2470 0.919
  2473  N   3.367        C 2469 1.286    H 2474 0.924    H 2475 0.919    N 2470 0.104
  2474  H   0.945        N 2473 0.924
  2475  H   0.940        N 2473 0.919
  2476  C   3.947        O 2477 1.632    N 2478 1.308    C 2456 0.937
  2477  O   1.950        C 2476 1.632    N 2478 0.198
  2478  N   3.452        C 2476 1.308    C 2480 0.962    H 2479 0.884    O 2477 0.198
  2479  H   0.942        N 2478 0.884
  2480  C   3.970        C 2490 0.962    N 2478 0.962    C 2482 0.955    H 2481 0.951
  2481  H   0.993        C 2480 0.951
  2482  C   3.962        O 2488 1.006    C 2484 0.989    H 2483 0.959    C 2480 0.955
  2483  H   0.999        C 2482 0.959
  2484  C   3.989        C 2482 0.989    H 2487 0.987    H 2486 0.983    H 2485 0.983
  2485  H   0.996        C 2484 0.983
  2486  H   0.995        C 2484 0.983
  2487  H   0.998        C 2484 0.987
  2488  O   1.957        C 2482 1.006    H 2489 0.863
  2489  H   0.893        O 2488 0.863
  2490  C   3.954        O 2491 1.613    N 2492 1.306    C 2480 0.962
  2491  O   1.924        C 2490 1.613    N 2492 0.195
  2492  N   3.464        C 2490 1.306    C 2494 0.980    H 2493 0.909    O 2491 0.195
  2493  H   0.952        N 2492 0.909
  2494  C   3.953        N 2492 0.980    H 2495 0.962    H 2496 0.956    C 2497 0.930
  2495  H   0.990        C 2494 0.962
  2496  H   0.990        C 2494 0.956
  2497  C   3.948        O 2498 1.652    N 2499 1.311    C 2494 0.930
  2498  O   1.967        C 2497 1.652    N 2499 0.195
  2499  N   3.462        C 2497 1.311    C 2501 0.976    H 2500 0.910    O 2498 0.195
  2500  H   0.955        N 2499 0.910
  2501  C   3.966        N 2499 0.976    C 2503 0.951    H 2502 0.945    C 2511 0.934
  2502  H   0.993        C 2501 0.945
  2503  C   3.949        C 2505 0.994    O 2509 0.986    H 2504 0.962    C 2501 0.951
  2504  H   0.997        C 2503 0.962
  2505  C   3.986        C 2503 0.994    H 2508 0.983    H 2507 0.983    H 2506 0.981
  2506  H   0.997        C 2505 0.981
  2507  H   0.996        C 2505 0.983
  2508  H   0.996        C 2505 0.983
  2509  O   1.951        C 2503 0.986    H 2510 0.870
  2510  H   0.892        O 2509 0.870
  2511  C   3.962        O 2512 1.629    N 2513 1.325    C 2501 0.934
  2512  O   1.969        C 2511 1.629    N 2513 0.197
  2513  N   3.482        C 2511 1.325    C 2515 0.977    H 2514 0.912    O 2512 0.197
  2514  H   0.955        N 2513 0.912
  2515  C   3.946        C 2517 0.981    N 2513 0.977    H 2516 0.939    C 2535 0.897
  2516  H   0.989        C 2515 0.939
  2517  C   3.981        C 2520 1.000    C 2515 0.981    H 2519 0.967    H 2518 0.958
  2518  H   0.994        C 2517 0.958
  2519  H   0.995        C 2517 0.967
  2520  C   3.967        C 2521 1.604    C 2534 1.178    C 2517 1.000
  2521  C   3.956        C 2520 1.604    N 2523 1.208    H 2522 0.959
  2522  H   0.995        C 2521 0.959
  2523  N   3.527        C 2521 1.208    C 2525 1.148    H 2524 0.938
  2524  H   0.963        N 2523 0.938
  2525  C   3.958        C 2526 1.306    C 2534 1.296    N 2523 1.148
  2526  C   3.989        C 2528 1.532    C 2525 1.306    H 2527 0.964    C 2532 0.116
  2527  H   0.997        C 2526 0.964
  2528  C   3.988        C 2526 1.532    C 2530 1.343    H 2529 0.964
  2529  H   0.998        C 2528 0.964
  2530  C   3.988        C 2532 1.519    C 2528 1.343    H 2531 0.971
  2531  H   0.999        C 2530 0.971
  2532  C   3.990        C 2530 1.519    C 2534 1.313    H 2533 0.971    C 2526 0.116
  2533  H   0.999        C 2532 0.971
  2534  C   3.984        C 2532 1.313    C 2525 1.296    C 2520 1.178
  2535  C   3.934        O 2536 1.622    N 2537 1.326    C 2515 0.897
  2536  O   1.971        C 2535 1.622    N 2537 0.189
  2537  N   3.473        C 2535 1.326    C 2539 0.961    H 2538 0.910    O 2536 0.189
  2538  H   0.953        N 2537 0.910
  2539  C   3.964        C 2541 0.980    N 2537 0.961    H 2540 0.949    C 2547 0.940
  2540  H   0.994        C 2539 0.949
  2541  C   3.984        C 2539 0.980    H 2542 0.975    H 2543 0.962    C 2544 0.926
  2542  H   0.998        C 2541 0.975
  2543  H   0.995        C 2541 0.962
  2544  C   3.937        O 2545 1.523    O 2546 1.462    C 2541 0.926
  2545  O   1.813        C 2544 1.523    O 2546 0.217
  2546  O   1.804        C 2544 1.462    O 2545 0.217
  2547  C   3.944        O 2548 1.647    N 2549 1.280    C 2539 0.940
  2548  O   1.965        C 2547 1.647    N 2549 0.191
  2549  N   3.449        C 2547 1.280    C 2551 0.984    H 2550 0.917    O 2548 0.191
  2550  H   0.954        N 2549 0.917
  2551  C   3.961        C 2553 0.993    N 2549 0.984    H 2552 0.954    C 2557 0.923
  2552  H   0.993        C 2551 0.954
  2553  C   3.976        C 2551 0.993    H 2555 0.979    H 2554 0.969    H 2556 0.966
  2554  H   0.993        C 2553 0.969
  2555  H   0.994        C 2553 0.979
  2556  H   0.994        C 2553 0.966
  2557  C   3.935        O 2558 1.675    N 2559 1.244    C 2551 0.923
  2558  O   1.978        C 2557 1.675    N 2559 0.189
  2559  N   3.430        C 2557 1.244    C 2561 0.995    H 2560 0.899    O 2558 0.189
  2560  H   0.955        N 2559 0.899
  2561  C   3.962        N 2559 0.995    C 2563 0.972    H 2562 0.941    C 2578 0.927
  2562  H   0.994        C 2561 0.941
  2563  C   3.984        C 2566 0.994    C 2561 0.972    H 2564 0.971    H 2565 0.969
  2564  H   0.997        C 2563 0.971
  2565  H   0.997        C 2563 0.969
  2566  C   3.980        C 2567 1.405    C 2576 1.404    C 2563 0.994
  2567  C   3.987        C 2569 1.454    C 2566 1.405    H 2568 0.967    C 2574 0.104
  2568  H   0.997        C 2567 0.967
  2569  C   3.976        C 2567 1.454    C 2571 1.327    H 2570 0.966
  2570  H   0.995        C 2569 0.966
  2571  C   3.943        C 2569 1.327    C 2574 1.325    O 2572 1.151
  2572  O   2.165        C 2571 1.151    H 2573 0.790
  2573  H   0.877        O 2572 0.790
  2574  C   3.982        C 2576 1.468    C 2571 1.325    H 2575 0.963    C 2567 0.104
  2575  H   0.998        C 2574 0.963
  2576  C   3.990        C 2574 1.468    C 2566 1.404    H 2577 0.965
  2577  H   0.999        C 2576 0.965
  2578  C   3.937        O 2579 1.583    N 2580 1.331    C 2561 0.927
  2579  O   1.889        C 2578 1.583    N 2580 0.190
  2580  N   3.476        C 2578 1.331    C 2582 0.951    H 2581 0.924    O 2579 0.190
  2581  H   0.963        N 2580 0.924
  2582  C   3.949        C 2584 0.990    H 2583 0.964    N 2580 0.951    C 2600 0.906
  2583  H   0.997        C 2582 0.964
  2584  C   3.989        C 2582 0.990    C 2587 0.983    H 2585 0.976    H 2586 0.975
  2585  H   0.998        C 2584 0.976
  2586  H   0.998        C 2584 0.975
  2587  C   3.992        C 2590 1.019    C 2584 0.983    H 2589 0.976    H 2588 0.974
  2588  H   0.998        C 2587 0.974
  2589  H   0.997        C 2587 0.976
  2590  C   3.991        C 2587 1.019    C 2593 1.004    H 2591 0.969    H 2592 0.968
  2591  H   0.995        C 2590 0.969
  2592  H   0.997        C 2590 0.968
  2593  C   3.918        C 2590 1.004    H 2594 0.964    N 2596 0.962    H 2595 0.961
  2594  H   0.990        C 2593 0.964
  2595  H   0.984        C 2593 0.961
  2596  N   3.654        C 2593 0.962    H 2598 0.899    H 2597 0.894    H 2599 0.853
  2597  H   0.907        N 2596 0.894
  2598  H   0.918        N 2596 0.899
  2599  H   0.910        N 2596 0.853
  2600  C   3.938        O 2601 1.529    O 2602 1.461    C 2582 0.906
  2601  O   1.827        C 2600 1.529    O 2602 0.222
  2602  O   1.763        C 2600 1.461    O 2601 0.222

molecular dipole:
                 x           y           z       tot (Debye)
 q only:      610.562     658.342     674.976
   full:      610.822     658.727     682.168    2867.084
molecular quadrupole (traceless):
                xx          xy          yy          xz          yz          zz
 q only:    -8430.595   70603.442    3022.488   73848.913   80731.363    5408.107
  q+dip:    -9118.953   70312.517    2407.217   74454.446   81518.705    6711.736
   full:    -9112.454   70307.308    2394.406   74454.429   81520.330    6718.048


           -------------------------------------------------
          | TOTAL ENERGY            -4085.364479028679 Eh   |
          | GRADIENT NORM               1.311994431041 Eh/α |
          | HOMO-LUMO GAP               1.841676494991 eV   |
           -------------------------------------------------
########################################################################
[WARNING] Runtime exception occurred
-2- restart_readRestart: Dimension missmatch in restart file.
-1- restart_readRestart: Number of electron missmatch in restart file.
########################################################################

------------------------------------------------------------------------
 * finished run on 2020/06/09 at 08:43:25.407     
------------------------------------------------------------------------
 total:
 * wall-time:     0 d,  0 h,  7 min, 19.827 sec
 *  cpu-time:     0 d,  5 h, 33 min, 45.298 sec
 * ratio c/w:    45.530 speedup
 SCF:
 * wall-time:     0 d,  0 h,  6 min, 52.014 sec
 *  cpu-time:     0 d,  5 h, 25 min,  2.974 sec
 * ratio c/w:    47.336 speedup

