 +---------------------------------------------------------------+
 |                                                               |
 |        ####### #     # ####### ####### ####### ######         |
 |        #     # ##    # #          #    #       #     #        |
 |        #     # # #   # #          #    #       #     #        |
 |        #     # #  #  # #####      #    #####   ######         |
 |        #     # #   # # #          #    #       #              |
 |        #     # #    ## #          #    #       #              |
 |        ####### #     # #######    #    ####### #              |
 |                                                               |
 |        Linear-Scaling Ab Initio Total Energy Program          |
 |                                                               |
 |          Release for academic collaborators of ODG            |
 |                                             Version 5.3.2.6.  |
 |                                                               |
 +---------------------------------------------------------------+
 |                                                               |
 |  Authors:                                                     |
 |  Jacek Dziedzic, Peter D. Haynes, Nicholas D. M. Hine,        |
 |  Arash. A. Mostofi, Mike C. Payne and Chris-Kriton Skylaris   |
 |                                                               |
 |  Contributors:                                                |
 |  J. Aarons, L. Andrinopoulos, P. W. Avraam, R. A. Bell,       |
 |  A. Bhandari, G. A. Bramley, R. J. Charlton, S. J. Clark,     |
 |  R. J. Clements, G. C. Constantinescu, F. Corsetti,           |
 |  N. Corsini, O. Dieguez, S. M. M. Dubois, K. K. B. Duff,      |
 |  J. M. Escartin, A. Greco, H. Helal, Q. O. Hill, L. P. Lee,   |
 |  J.-H. Li, E. B. Linscott, G. Moynihan, D. D. O`Regan,        |
 |  O. K. Okan, M. J. S. Phipps, C. J. Pickard,                  |
 |  J. C. A. Prentice, M. I. J. Probert, L. E. Ratcliff,         |
 |  M. Robinson, A. Ruiz Serrano, J. S. Spencer, E. W. Tait,     |
 |  G. Teobaldi, D. Turban, V. Vitale, K. A. Wilkinson,          |
 |  C. Weber, J. C. Womack, N. Yeung and T. J. Zuehlsdorff       |
 |                                                               |
 |                                   Copyright (c) 2004-2019     |
 |                                                               |
 |  Please cite:                                                 |
 |  "Introducing ONETEP: Linear-scaling density functional       |
 |   simulations on parallel computers".                         |
 |   C.-K. Skylaris, P. D. Haynes, A. A. Mostofi, M. C. Payne.   |
 |   J. Chem. Phys. 122 084119 (2005).                           |
 |                                                               |
 |          in all publications arising from your use of ONETEP. |
 |                                                               |
 +---------------------------------------------------------------+
 |                                                               |
 |   ONETEP is based on developments described in the following  |
 |   publications:                                               |
 |                                                               |
 |  "Nonorthogonal generalized Wannier function pseudopotential  |
 |   plane-wave method".                                         |
 |   C.-K. Skylaris, A. A. Mostofi, P. D. Haynes, O. Dieguez,    |
 |   M. C. Payne.                                                |
 |   Phys. Rev. B 66 035119 (2002).                              |
 |                                                               |
 |  "Preconditioned iterative minimization for linear-scaling    |
 |   electronic structure calculations".                         |
 |   A. A. Mostofi, P. D. Haynes, C.-K. Skylaris, M. C. Payne.   |
 |   J. Chem. Phys. 119(17), pp.8842-8848 (2003).                |
 |                                                               |
 |  "Total-energy calculations on a real space grid with         |
 |   localized functions and a plane-wave basis".                |
 |   A. A. Mostofi, C.-K. Skylaris, P. D. Haynes, M. C. Payne.   |
 |   Comput. Phys. Commun. 147, pp.788-802 (2002).               |
 |                                                               |
 |  "Accurate kinetic energy evaluation in electronic structure  |
 |   calculations with localized functions on real space grids"  |
 |   C.-K. Skylaris, A. A. Mostofi, P. D. Haynes, C. J. Pickard, |
 |   M. C. Payne.                                                |
 |   Comput. Phys. Commun. 140, pp.315-322 (2001).               |
 |                                                               |
 |  "Accurate ionic forces and geometry optimization in linear-  |
 |   scaling density-functional theory with local orbitals"      |
 |   N. D. M. Hine, M. Robinson, P. D. Haynes, C.-K. Skylaris,   |
 |   M. C. Payne, and A. A. Mostofi.                             |
 |   Phys. Rev. B 83 195102 (2011).                              |
 |                                                               |
 +---------------------------------------------------------------+

Job started: 22-02-2020 02:06 (-0000)
 
Reading parameters from file "complex_26321.dat" ...... done

If your calculation crashes here, before "Checking processes and threads..."
is displayed, then your stack size is insufficient.
If so, use "ulimit -s unlimited" at runtime.
You can disable this check with "check_stack_size F".

Checking processes and threads...
   Determining the default number of threads...
      No default threads set at compilation time: defaulting to 1.
      OpenMP library call suggests 4 threads.
      Hybrid MPI-OpenMP compilation detected.
      Number of MPI processes > 1.
      OMP_NUM_THREADS environment variable present and
      its value matches the one obtained from the OpenMP library call.
      Using this value as default.
      Default threads: 4
      Default applies to threads_max and threads_num_fftboxes.
      Settings in the input file override this default.
   ... done

   Running with 30 MPI processes.
   There are 4 MPI processes running on the same node as the root process.
   Each MPI process is using: 
               1 threads for simulation cell FFTs.
               1 threads for parallel FFT box operations.
               4 threads for loops over batched FFT box operations.
               4 threads in other parallel regions.
... done

Basic input checks...... done

Reading geometry and species blocks from file "complex_26321.dat" ...
  <species_atomic_set> block not found: NGWF initialisation set to SOLVE
IS: Dielectric excluded regions:
    - NONE.
    
  Number of PPD points along a3 set to 1.  This is 
  the default value, it may have been provided also in the input file.
... done
 Writing xyz coordinates to file "complex_26321.xyz" ... done


--------------------------------------------------------------------------------
---------------------------------- INPUT FILE ----------------------------------
--------------------------------------------------------------------------------

cutoff_energy       : 800 eV                                                    
xc_functional VV10                                                              
task SINGLEPOINT                                                                
write_xyz true                                                                  
output_detail VERBOSE                                                           
ngwf_threshold_orig : 0.000002                                                  
kernel_cutoff       : 1000                                                      
k_zero              : 3.5                                                       
elec_cg_max 0                                                                   
occ_mix 1.0                                                                     
dispersion 0                                                                    
maxit_ngwf_cg 40                                                                
minit_lnv 10                                                                    
maxit_lnv 10                                                                    
write_denskern T                                                                
write_tightbox_ngwfs T                                                          
charge 9                                                                        
is_implicit_solvent T                                                           
is_auto_solvation T                                                             
is_include_apolar T                                                             
is_smeared_ion_rep T                                                            
is_solvent_surf_tension 4.7624E-5 Ha/bohr**2                                    
is_apolar_scaling_factor 0.281075                                               
is_solvation_beta 1.3                                                           
is_density_threshold 0.00035                                                    
is_bulk_permittivity 78.54                                                      
is_dielectric_model fix_initial                                                 
is_smeared_ion_width 0.8                                                        
mg_defco_fd_order 8                                                             
is_bc_coarseness 10                                                             
is_bc_surface_coarseness 1                                                      
fine_grid_scale 2.0                                                             
%block species                                                                  
N   N   7 4 8.0                                                                 
H   H   1 1 8.0                                                                 
C   C   6 4 8.0                                                                 
S   S  16 9 8.0                                                                 
O   O   8 4 8.0                                                                 
%endblock species                                                               
%block species_pot                                                              
N   N_00.recpot                                                                 
H   H_04.recpot                                                                 
C   C_01.recpot                                                                 
S   S_00.recpot                                                                 
O   O_02.recpot                                                                 
%endblock species_pot                                                           
%block lattice_cart                                                             
137.614   0.000   0.000                                                         
0.000 142.646   0.000                                                           
0.000   0.000   160.855                                                         
%endblock lattice_cart                                                          
%block positions_abs                                                            
     Hash =  -000000858661754769293198
%endblock positions_abs                                                         

--------------------------------------------------------------------------------
-------------------------------- END INPUT FILE --------------------------------
--------------------------------------------------------------------------------


 
 ESDF WARNING(1): "kernelcutoff" (esdf_physical) has no units. Assume "bohr".
 ESDF WARNING(2): "kzero" (esdf_physical) has no units. Assume "1/bohr".
 ESDF WARNING(3
 ): "issmearedionwidth" (esdf_physical) has no units. Assume "bohr".
<<<<<<<<<<<<<<<<<<<<<<<<<<<<<<<<< Full system >>>>>>>>>>>>>>>>>>>>>>>>>>>>>>>>>>
<<<<<<<<<<<<<<<<<<<<<<<<< Pseudopotential information >>>>>>>>>>>>>>>>>>>>>>>>>>
File: N_00.recpot [ 2001 points up to Gmax=  52.9 (1/bohr)]
  Atomic number:  7;  ionic charge:  5.000000
    Shell 1: l = 0; rc = 1.48 bohr
File: H_04.recpot [ 2001 points up to Gmax=  52.9 (1/bohr)]
  Atomic number:  1;  ionic charge:  1.000000
    Local potential
File: C_01.recpot [ 2001 points up to Gmax=  52.9 (1/bohr)]
  Atomic number:  6;  ionic charge:  4.000000
    Shell 1: l = 0; rc = 1.48 bohr
File: S_00.recpot [ 2001 points up to Gmax=  52.9 (1/bohr)]
  Atomic number: 16;  ionic charge:  6.000000
    Shell 1: l = 0; rc = 1.90 bohr
    Shell 2: l = 2; rc = 1.84 bohr
File: O_02.recpot [ 2001 points up to Gmax=  52.9 (1/bohr)]
  Atomic number:  8;  ionic charge:  6.000000
    Shell 1: l = 0; rc = 1.31 bohr
<<<<<<<<<<<<<<<<<<<<<<<<<<<<<<<<<<<<<<<<>>>>>>>>>>>>>>>>>>>>>>>>>>>>>>>>>>>>>>>>

-------------------------- Atom counting information ---------------------------
Symbol    Natoms    Nngwfs    Nprojs
  N        236       944       236
  H       1319      1319         0
  C        817      3268       817
  S          6        54        36
  O        240       960       240
.......   ......    ......    ......
Totals:   2618      6545      1329
--------------------------------------------------------------------------------

=============================== PSINC grid sizes ===============================
                      Simulation cell:  273 x 286 x 320
                              FFT-box:   99 x 105 x  99
                                  PPD:    7 x  11 x   1
Grid space d1=  0.504080586081a0 (KE cutoff=  29.89538Eh = 813.49465eV)
Grid space d2=  0.498762237762a0 (KE cutoff=  30.53633Eh = 830.93588eV)
Grid space d3=  0.502671875000a0 (KE cutoff=  30.06317Eh = 818.06059eV)
================================================================================

********************* Fourier parallelisation information **********************
       Coarse grid (whole simulation cell) dimensions:    273   286   320
          Real-space ('12') slabs/node (min max mean):     10    11    10
         Recip-space ('23') slabs/node (min max mean):      4     5     4
********************************************************************************

********************* Fourier parallelisation information **********************
       Double grid (whole simulation cell) dimensions:    546   572   640
          Real-space ('12') slabs/node (min max mean):     21    22    21
         Recip-space ('23') slabs/node (min max mean):      9    10     9
********************************************************************************
ONETEP fine grid is 546 x 572 x 640 gridpoints, 137.6140 x 142.6460 x 160.8550 bohr.
FD multigrid is     545 x 569 x 633 gridpoints, 137.3620 x 141.8979 x 159.0956 bohr.


Calculating local pseudopotential in open BC on a radial grid ...
Discrepancy between calculated realspace psloc and -Z/x on [5a0,255.264a0]:
max |rel. diff| # avg |rel. diff| #  avg rel. diff #  f # pseudopotential file
 0.000296759711    0.000009439468   0.000000085927   54  'N_00.recpot'
 0.000490027943    0.000021572324  -0.000000031900   54  'H_04.recpot'
 0.000320795249    0.000014598087   0.000000111901   54  'C_01.recpot'
 0.000388730920    0.000016096375   0.000000514750   54  'S_00.recpot'
 0.000828383344    0.000035421288   0.000000087443   54  'O_02.recpot'
... done

Atom SCF Calculation for N  : Z (AE atom) =   7 : Z (PS atom) =   5
Config String:
Orbitals (num,occ):  2     2.00 3.00
Orbitals   (num,l):  2        0    1
Real-space Grid (nr,dr,rmax): 1203    0.0066555740    8.0000000000
Spherical Bessel Basis (nsws,lmax,cutoff):   47    1  176.3951722778
Confining potential (l,width,scale):  0    3.0000000000  100.0000000000
Confining potential (l,width,scale):  1    3.0000000000  100.0000000000
  1         -4.7366890484   -3.4501654188    7.0523828109   -1.9619316308
  2         -9.7225420322   -2.0763080851    8.3068355706   -2.2908832437
  3         -9.7134243553   -2.1270543915    8.2534567806   -2.2819809971
  4         -9.7235185949   -2.1427582218    8.2369947390   -2.2802814234
  5         -9.7258373845   -2.1477905863    8.2317116314   -2.2798536235
  6         -9.7268932325   -2.1503512400    8.2290229806   -2.2796830099
  7         -9.7273189469   -2.1516634231    8.2276451699   -2.2796169657
  8         -9.7274675212   -2.1523365544    8.2269384796   -2.2795940092
  9         -9.7275041773   -2.1526817003    8.2265762312   -2.2795881371
 10         -9.7275008637   -2.1528585007    8.2263907413   -2.2795884060
 11         -9.7274868305   -2.1529489544    8.2262958841   -2.2795903922
 12         -9.7274755655   -2.1529859230    8.2262571347   -2.2795920452
 13         -9.7274662327   -2.1530083995    8.2262335832   -2.2795934369
 14         -9.7274589439   -2.1530220534    8.2262192809   -2.2795945372
 15         -9.7274534633   -2.1530303399    8.2262106039   -2.2795953734
 16         -9.7274494492   -2.1530353634    8.2262053452   -2.2795959920
 17         -9.7274465654   -2.1530384053    8.2262021621   -2.2795964406
 18         -9.7274445237   -2.1530402447    8.2262002378   -2.2795967611
 19         -9.7274430947   -2.1530413553    8.2261990762   -2.2795969874
 20         -9.7274421038   -2.1530420249    8.2261983762   -2.2795971458
 21         -9.7274414219   -2.1530424277    8.2261979551   -2.2795972557
 22         -9.7274409555   -2.1530426696    8.2261977024   -2.2795973315
 23         -9.7274406382   -2.1530428144    8.2261975510   -2.2795973835
 24         -9.7274404232   -2.1530429010    8.2261974606   -2.2795974190
 25         -9.7274402783   -2.1530429525    8.2261974067   -2.2795974432
 26         -9.7274401808   -2.1530429831    8.2261973748   -2.2795974596
Atom SCF converged after  26 iterations to a total energy of     -9.72744018

Atom SCF Calculation for H  : Z (AE atom) =   1 : Z (PS atom) =   1
Config String:
Orbitals (num,occ):  1     1.00
Orbitals   (num,l):  1        0
Real-space Grid (nr,dr,rmax): 1203    0.0066555740    8.0000000000
Spherical Bessel Basis (nsws,lmax,cutoff):   47    0  176.3951722778
Confining potential (l,width,scale):  0    3.0000000000  100.0000000000
  1         -0.3178661827   -0.2469879004    0.2820953124   -0.2487802071
  2         -0.3961824611   -0.2455070831    0.2902209900   -0.2567664324
  3         -0.4406462424   -0.2424227551    0.2948173255   -0.2622129794
  4         -0.4569739054   -0.2416771342    0.2960118236   -0.2639986016
  5         -0.4627745219   -0.2416114401    0.2961916694   -0.2644992007
  6         -0.4648634749   -0.2416666130    0.2961598921   -0.2646237065
  7         -0.4656347011   -0.2417155160    0.2961132802   -0.2646490719
  8         -0.4659271144   -0.2417438448    0.2960836537   -0.2646515522
  9         -0.4660407254   -0.2417580788    0.2960682004   -0.2646501482
 10         -0.4660857867   -0.2417647566    0.2960608087   -0.2646488305
 11         -0.4661039568   -0.2417677717    0.2960574330   -0.2646480606
 12         -0.4661113773   -0.2417691018    0.2960559329   -0.2646476727
 13         -0.4661144368   -0.2417696800    0.2960552775   -0.2646474903
 14         -0.4661157072   -0.2417699291    0.2960549942   -0.2646474079
 15         -0.4661162374   -0.2417700356    0.2960548727   -0.2646473715
 16         -0.4661164596   -0.2417700810    0.2960548208   -0.2646473556
 17         -0.4661165529   -0.2417701003    0.2960547987   -0.2646473488
Atom SCF converged after  17 iterations to a total energy of     -0.46611655

Atom SCF Calculation for C  : Z (AE atom) =   6 : Z (PS atom) =   4
Config String:
Orbitals (num,occ):  2     2.00 2.00
Orbitals   (num,l):  2        0    1
Real-space Grid (nr,dr,rmax): 1203    0.0066555740    8.0000000000
Spherical Bessel Basis (nsws,lmax,cutoff):   47    1  176.3951722778
Confining potential (l,width,scale):  0    3.0000000000  100.0000000000
Confining potential (l,width,scale):  1    3.0000000000  100.0000000000
  1         -5.2812238291   -1.3293161250    4.5135249990   -1.4716766231
  2         -5.3996591362   -1.3542148509    4.4876064308   -1.4645117417
  3         -5.4111847148   -1.3757224423    4.4645718036   -1.4593107263
  4         -5.4199203659   -1.3833334895    4.4563636676   -1.4579885221
  5         -5.4226876204   -1.3865104950    4.4529090432   -1.4575385943
  6         -5.4235070726   -1.3878131251    4.4514866831   -1.4573882877
  7         -5.4237271252   -1.3883401868    4.4509094528   -1.4573411661
  8         -5.4237693051   -1.3885521813    4.4506766230   -1.4573281030
  9         -5.4237656430   -1.3886371046    4.4505830704   -1.4573255254
 10         -5.4237547927   -1.3886709976    4.4505456041   -1.4573257244
 11         -5.4237478594   -1.3886817763    4.4505336403   -1.4573262476
 12         -5.4237429748   -1.3886873440    4.4505274417   -1.4573266921
 13         -5.4237397042   -1.3886902144    4.4505242350   -1.4573270222
 14         -5.4237375865   -1.3886916908    4.4505225792   -1.4573272507
 15         -5.4237362473   -1.3886924482    4.4505217259   -1.4573274021
 16         -5.4237354152   -1.3886928356    4.4505212873   -1.4573274996
 17         -5.4237349050   -1.3886930331    4.4505210623   -1.4573275610
 18         -5.4237345954   -1.3886931333    4.4505209473   -1.4573275991
 19         -5.4237344092   -1.3886931840    4.4505208887   -1.4573276224
 20         -5.4237342980   -1.3886932094    4.4505208590   -1.4573276366
 21         -5.4237342320   -1.3886932221    4.4505208440   -1.4573276451
Atom SCF converged after  21 iterations to a total energy of     -5.42373423

Atom SCF Calculation for S  : Z (AE atom) =  16 : Z (PS atom) =   6
Config String:
Orbitals (num,occ):  3     2.00 4.00 0.00
Orbitals   (num,l):  3        0    1    2
Real-space Grid (nr,dr,rmax): 1203    0.0066555740    8.0000000000
Spherical Bessel Basis (nsws,lmax,cutoff):   47    2  176.3951722778
Confining potential (l,width,scale):  0    3.0000000000  100.0000000000
Confining potential (l,width,scale):  1    3.0000000000  100.0000000000
Confining potential (l,width,scale):  2    3.0000000000  100.0000000000
  1        -12.4916237786   -1.0485914554   10.1554312477   -2.4822447765
  2         -9.9747083603   -2.4807597367    8.3138131863   -2.0618837268
  3        -10.1811370131   -2.3153496392    8.4906092179   -2.1137756843
  4        -10.1856385898   -2.2984912006    8.5093862195   -2.1218167101
  5        -10.1891317560   -2.2894783333    8.5195006030   -2.1261392389
  6        -10.1911142562   -2.2849160124    8.5246320974   -2.1283733378
  7        -10.1921506977   -2.2826473329    8.5271859473   -2.1295140514
  8        -10.1926851273   -2.2815219985    8.5284534218   -2.1300957983
  9        -10.1929632671   -2.2809620806    8.5290843811   -2.1303933136
 10        -10.1931100895   -2.2806822783    8.5293998452   -2.1305460626
 11        -10.1931885828   -2.2805418782    8.5295582201   -2.1306248009
 12        -10.1932309625   -2.2804711729    8.5296380158   -2.1306655459
 13        -10.1932540142   -2.2804354512    8.5296783476   -2.1306867097
 14        -10.1932666242   -2.2804173494    8.5296987927   -2.1306977435
 15        -10.1932735535   -2.2804081489    8.5297091868   -2.1307035175
 16        -10.1932773756   -2.2804034581    8.5297144867   -2.1307065505
 17        -10.1932794908   -2.2804010586    8.5297171976   -2.1307081499
 18        -10.1932806648   -2.2803998268    8.5297185890   -2.1307089965
 19        -10.1932813181   -2.2803991920    8.5297193057   -2.1307094466
 20        -10.1932816826   -2.2803988634    8.5297196763   -2.1307096867
 21        -10.1932818864   -2.2803986926    8.5297198688   -2.1307098154
 22        -10.1932820006   -2.2803986034    8.5297199692   -2.1307098847
 23        -10.1932820648   -2.2803985565    8.5297200219   -2.1307099221
Atom SCF converged after  23 iterations to a total energy of    -10.19328206

Atom SCF Calculation for O  : Z (AE atom) =   8 : Z (PS atom) =   6
Config String:
Orbitals (num,occ):  2     2.00 4.00
Orbitals   (num,l):  2        0    1
Real-space Grid (nr,dr,rmax): 1203    0.0066555740    8.0000000000
Spherical Bessel Basis (nsws,lmax,cutoff):   47    1  176.3951722778
Confining potential (l,width,scale):  0    3.0000000000  100.0000000000
Confining potential (l,width,scale):  1    3.0000000000  100.0000000000
  1         -1.9497477053   -7.5870966769   10.1554312477   -2.4822447765
  2        -15.9466298225   -3.1778351734   13.6353006614   -3.2931224232
  3        -16.0387051750   -3.0909030611   13.7305651010   -3.3194522996
  4        -15.9025031450   -3.1083023605   13.7128101414   -3.3180850501
  5        -15.8912953362   -3.1033022259   13.7185404266   -3.3206942093
  6        -15.8793912992   -3.1043100674   13.7175820250   -3.3209366960
  7        -15.8748748605   -3.1043975610   13.7175531476   -3.3211845618
  8        -15.8725354084   -3.1044655610   13.7175148333   -3.3213149154
  9        -15.8713193866   -3.1045129589   13.7174824743   -3.3213832909
 10        -15.8706863385   -3.1045436851   13.7174593895   -3.3214192053
 11        -15.8703562731   -3.1045627330   13.7174442347   -3.3214381098
 12        -15.8701839150   -3.1045741887   13.7174347673   -3.3214480859
 13        -15.8700937727   -3.1045809294   13.7174290448   -3.3214533647
 14        -15.8700465571   -3.1045848305   13.7174256662   -3.3214561658
 15        -15.8700217888   -3.1045870593   13.7174237063   -3.3214576563
 16        -15.8700087767   -3.1045883194   13.7174225849   -3.3214584516
 17        -15.8700019307   -3.1045890258   13.7174219502   -3.3214588771
 18        -15.8699983237   -3.1045894190   13.7174215942   -3.3214591053
 19        -15.8699964206   -3.1045896366   13.7174213960   -3.3214592281
 20        -15.8699954151   -3.1045897563   13.7174212864   -3.3214592942
 21        -15.8699948832   -3.1045898219   13.7174212260   -3.3214593299
 22        -15.8699946014   -3.1045898577   13.7174211930   -3.3214593493
 23        -15.8699944520   -3.1045898771   13.7174211750   -3.3214593597
 24        -15.8699943726   -3.1045898877   13.7174211652   -3.3214593654
Atom SCF converged after  24 iterations to a total energy of    -15.86999437

========================== Calculation in vacuum ==============================
= Adjusting the following parameters: 
= is_implicit_solvent: F
= is_include_apolar: F
= write_denskern: T
= write_tightbox_ngwfs: T
= restart read filename prefix: ""
= restart write filename prefix: "vacuum_"
===============================================================================

Determining parallel strategy ...
... using space-filling curve
... NGWF load balancing: max    219;  min    218;  average    218
... Projector load balancing: max     47;  min     43;  average     44
... done
Calculating direct Ion-Ion energy ...
Ion-Ion Energy        :    838336.43206134019420
Basis initialisation ...... NGWF spheres initialised
... Projector spheres initialised
... NGWF tight boxes initialised
... Tight-boxes gathered
... NGWF basis size (local,global):    1306606  39252763
... Nonlocal pseudopotential projector initialisation
... done

========================== Sparse matrix information ===========================
                        Overlap matrix filling:   6.79%
                        Density kernel filling: 100.00%
              NGWF-Proj overlap matrix filling:   1.77%
                    Hamiltonian matrix filling:   7.68%
                  NGWF diagonal matrix filling:   0.05%
                             KS matrix filling: 100.00% 
                           KSKS matrix filling: 100.00% 
================================================================================

Sparse matrix initialisation ... done

Generating smeared ion density ... done
Smeared ion self correction:     -14534.963309
Smeared ion non-self correction: -838288.360928
NGWF initialisation ...... done
============ Calculation of NGWF S^-1 using Hotelling algorithm ================ 
         Iteration  |  Frobenius norm and Maximum abs value    (of I-S*S_n^-1)   
               1       0.78762876E+02     0.98301136E+00
               2       0.76933560E+02     0.96643444E+00
               3       0.73956604E+02     0.93444586E+00
               4       0.69700808E+02     0.87471110E+00
               5       0.64379820E+02     0.77216420E+00
               6       0.58391626E+02     0.70472909E+00
               7       0.52359046E+02     0.67163377E+00
               8       0.46778811E+02     0.64474216E+00
               9       0.40709021E+02     0.60588330E+00
              10       0.32458889E+02     0.53695018E+00
              11       0.21888241E+02     0.42428093E+00
              12       0.11253013E+02     0.28345798E+00
              13       0.37599820E+01     0.13712907E+00
              14       0.61544978E+00     0.35469099E-01
              15       0.32625144E-01     0.36256867E-02
              16       0.22836797E-03     0.41813485E-04
              17       0.21579083E-07     0.57189951E-08
              18       0.99171797E-13     0.52180482E-14
================================================================================
Calculating local pseudopotential in open BC on the fine real space grid ...
... done

MG BCs: +ve charge blocks (gridpoints):     20650 (   16202158).
MG BCs: -ve charge blocks (gridpoints):      8153 (    1103403).
MG BCs:     Elided blocks (gridpoints):    179990 (  178990904).
MG BCs: Computational effort saved:  99.9853%.
MG BCs: Charge after coarse-graining:           -9.0002337.
MG DL_MG: Calling solver with defect correction order = 8
MG DL_MG: Solver finished
MG Hartree energy from (\int phi*rho dr):              1461.642104
MG Hartree energy from (\int eps (grad phi)^2 dr):     1461.027071
MG Discrepancy due to finite box and discretization:     -0.615033 (  -0.04208%)
MG Correction to account for finite box:                  0.464405
MG Remaining discrepancy, due to discretization:         -0.150628 (  -0.01031%)
Up spin density kernel initialisation ... 
======= Optimisation of K by Palser-Manolopoulos canonical purification ======== 
         Iteration  |  Band structure energy |    c_n   
               1       -2597.70155578865524    0.5264022
               2       -2774.70176788028857    0.5169204
               3       -2955.43700819282276    0.5160591
               4       -3105.23007674724840    0.5311077
               5       -3196.12230811643212    0.5693046
               6       -3233.55998603138369    0.6142360
               7       -3246.35505080239318    0.6238171
               8       -3252.06301182496736    0.6222018
               9       -3254.85639865811436    0.6367264
              10       -3256.02026017312164    0.6595650
              11       -3256.48295614279914    0.6745497
              12       -3256.68771672425464    0.6734613
              13       -3256.79043181283669    0.6362489
              14       -3256.85194422610766    0.5773510
              15       -3256.88670033395192    0.5310786
              16       -3256.89902554570017    0.5182650
              17       -3256.90125558506043    0.5139884
              18       -3256.90170560803699    0.5025243
              19       -3256.90195596702370    0.5000430
              20       -3256.90219734830771    0.5000000
              21       -3256.90236378330246    0.5000000
              22       -3256.90241419635367    0.5000000
              23       -3256.90241753665487    0.5000002
              24       -3256.90241754987437    0.5000002
Termination criterion satisfied: band energy change below threshold.
Final occupancy bounds: [    0.00000000000001:    1.00000000000000]
Closest occupancy to 0.5:     1.00000000000000
================================================================================
... done

Writing density kernel to file "complex_26321.vacuum_dkn" ... done

>>> Optimising kernel for current NGWFs:
   Initial electron number for spin 1:    7234.00000000
     Final electron number for spin 1:    7234.00000000

=================== Penalty functional idempotency correction ==================
 RMS occupancy error at iteration   1:  0.000000 (step -0.5000 Ne1=   7234.0000)
            Final RMS occupancy error   :  0.000000 (Ne1=   7234.0000)
               Final occupancy bounds   : [  0.0000,  1.0000]
================================================================================

................................................................................
<<<<<<<<<<<<<< LNV (Original version) density kernel optimisation >>>>>>>>>>>>>>
~~~~~~~~~~~~~~~~~~~~~~~~~~~~~~~~~~~~~~~~~~~~~~~~~~~~~~~~~~~~~~~~~~~~~~~~~~~~~~~~
   iter  |      energy (Eh)       | rms gradient |  commutator  |   dE (Eh)
MG BCs: +ve charge blocks (gridpoints):     31139 (   17305711).
MG BCs: -ve charge blocks (gridpoints):      8438 (    1131932).
MG BCs:     Elided blocks (gridpoints):    169497 (  177858822).
MG BCs: Computational effort saved:  99.9798%.
MG BCs: Charge after coarse-graining:           -9.0009937.
MG DL_MG: Calling solver with defect correction order = 8
MG DL_MG: Solver finished
MG Hartree energy from (\int phi*rho dr):              1424.146597
MG Hartree energy from (\int eps (grad phi)^2 dr):     1423.484443
MG Discrepancy due to finite box and discretization:     -0.662153 (  -0.04649%)
MG Correction to account for finite box:                  0.469796
MG Remaining discrepancy, due to discretization:         -0.192358 (  -0.01351%)
      ideal mu1:      -0.716067688259
             Q0:  -11587.235821071779
             G0:    -148.118708061087
   RMS gradient:       0.001859496250
MG BCs: +ve charge blocks (gridpoints):     31151 (   17384606).
MG BCs: -ve charge blocks (gridpoints):      8350 (    1114862).
MG BCs:     Elided blocks (gridpoints):    169485 (  177796997).
MG BCs: Computational effort saved:  99.9799%.
MG BCs: Charge after coarse-graining:           -9.0010163.
MG DL_MG: Calling solver with defect correction order = 8
MG DL_MG: Solver finished
MG Hartree energy from (\int phi*rho dr):              1444.333900
MG Hartree energy from (\int eps (grad phi)^2 dr):     1443.688889
MG Discrepancy due to finite box and discretization:     -0.645010 (  -0.04466%)
MG Correction to account for finite box:                  0.468779
MG Remaining discrepancy, due to discretization:         -0.176232 (  -0.01220%)
     Trial step:       0.500000000000
             Q1:  -11598.682593588135
 Quadratic coef:      62.612581514188
 Linear coef   :     -74.059354030544
           Qmin:  -11609.135524720712
Quadratic minimum step length (  0.295704761885) accepted
    Initial Ne1:    7234.00000000
      Final Ne1:    7234.00000000

=================== Penalty functional idempotency correction ==================
 RMS occupancy error at iteration   1:  0.003527 (step -0.4879 Ne1=   7234.0000)
 RMS occupancy error at iteration   2:  0.000027 (step -0.5000 Ne1=   7234.0000)
            Final RMS occupancy error   :  0.000000 (Ne1=   7234.0000)
               Final occupancy bounds   : [  0.0000,  1.0000]
================================================================================

    1        -1.158723582107E+04     1.8595E-03     1.6824E-03
MG BCs: +ve charge blocks (gridpoints):     31139 (   17352910).
MG BCs: -ve charge blocks (gridpoints):      8398 (    1122366).
MG BCs:     Elided blocks (gridpoints):    169497 (  177821189).
MG BCs: Computational effort saved:  99.9799%.
MG BCs: Charge after coarse-graining:           -9.0010077.
MG DL_MG: Calling solver with defect correction order = 8
MG DL_MG: Solver finished
MG Hartree energy from (\int phi*rho dr):              1427.857400
MG Hartree energy from (\int eps (grad phi)^2 dr):     1427.206370
MG Discrepancy due to finite box and discretization:     -0.651030 (  -0.04559%)
MG Correction to account for finite box:                  0.469089
MG Remaining discrepancy, due to discretization:         -0.181942 (  -0.01274%)
      ideal mu1:      -0.755739150566
             Q0:  -11609.582363691181
             G0:     -11.889276691247
   RMS gradient:       0.000523002525
MG BCs: +ve charge blocks (gridpoints):     31155 (   17370387).
MG BCs: -ve charge blocks (gridpoints):      8369 (    1117563).
MG BCs:     Elided blocks (gridpoints):    169481 (  177808515).
MG BCs: Computational effort saved:  99.9799%.
MG BCs: Charge after coarse-graining:           -9.0010115.
MG DL_MG: Calling solver with defect correction order = 8
MG DL_MG: Solver finished
MG Hartree energy from (\int phi*rho dr):              1432.381365
MG Hartree energy from (\int eps (grad phi)^2 dr):     1431.734127
MG Discrepancy due to finite box and discretization:     -0.647238 (  -0.04519%)
MG Correction to account for finite box:                  0.468535
MG Remaining discrepancy, due to discretization:         -0.178703 (  -0.01248%)
     Trial step:       0.384515774634
             Q1:  -11612.405726567842
 Quadratic coef:       1.748251560111
 Linear coef   :      -4.571614436772
           Qmin:  -11612.571015186675
Quadratic minimum step length (  0.502747403918) accepted
    Initial Ne1:    7233.99989866
      Final Ne1:    7234.00000000

=================== Penalty functional idempotency correction ==================
 RMS occupancy error at iteration   1:  0.001864 (step -0.4928 Ne1=   7234.0000)
 RMS occupancy error at iteration   2:  0.000011 (step -0.5001 Ne1=   7234.0000)
            Final RMS occupancy error   :  0.000000 (Ne1=   7234.0000)
               Final occupancy bounds   : [  0.0000,  1.0000]
================================================================================

    2        -1.160958236369E+04     5.2300E-04     4.7319E-04    -2.2347E+01
MG BCs: +ve charge blocks (gridpoints):     31155 (   17375802).
MG BCs: -ve charge blocks (gridpoints):      8363 (    1116140).
MG BCs:     Elided blocks (gridpoints):    169481 (  177804523).
MG BCs: Computational effort saved:  99.9799%.
MG BCs: Charge after coarse-graining:           -9.0010126.
MG DL_MG: Calling solver with defect correction order = 8
MG DL_MG: Solver finished
MG Hartree energy from (\int phi*rho dr):              1433.815324
MG Hartree energy from (\int eps (grad phi)^2 dr):     1433.169166
MG Discrepancy due to finite box and discretization:     -0.646157 (  -0.04507%)
MG Correction to account for finite box:                  0.468379
MG Remaining discrepancy, due to discretization:         -0.177778 (  -0.01240%)
      ideal mu1:      -0.777758884874
             Q0:  -11612.607712179190
             G0:      -1.886862064497
   RMS gradient:       0.000208638322
MG BCs: +ve charge blocks (gridpoints):     31162 (   17375631).
MG BCs: -ve charge blocks (gridpoints):      8363 (    1116996).
MG BCs:     Elided blocks (gridpoints):    169474 (  177803838).
MG BCs: Computational effort saved:  99.9799%.
MG BCs: Charge after coarse-graining:           -9.0010121.
MG DL_MG: Calling solver with defect correction order = 8
MG DL_MG: Solver finished
MG Hartree energy from (\int phi*rho dr):              1432.191967
MG Hartree energy from (\int eps (grad phi)^2 dr):     1431.546135
MG Discrepancy due to finite box and discretization:     -0.645832 (  -0.04509%)
MG Correction to account for finite box:                  0.468151
MG Remaining discrepancy, due to discretization:         -0.177682 (  -0.01241%)
     Trial step:       0.439675229531
             Q1:  -11613.085109487060
 Quadratic coef:       0.352209203431
 Linear coef   :      -0.829606511300
           Qmin:  -11613.096233601180
Quadratic minimum step length (  0.517813602999) accepted
    Initial Ne1:    7233.99995414
      Final Ne1:    7234.00000000

=================== Penalty functional idempotency correction ==================
 RMS occupancy error at iteration   1:  0.000617 (step -0.4975 Ne1=   7234.0000)
 RMS occupancy error at iteration   2:  0.000001 (step -0.5000 Ne1=   7234.0000)
            Final RMS occupancy error   :  0.000000 (Ne1=   7234.0000)
               Final occupancy bounds   : [  0.0000,  1.0000]
================================================================================

    3        -1.161260771218E+04     2.0864E-04     1.8877E-04    -3.0253E+00
MG BCs: +ve charge blocks (gridpoints):     31162 (   17375547).
MG BCs: -ve charge blocks (gridpoints):      8363 (    1117131).
MG BCs:     Elided blocks (gridpoints):    169474 (  177803787).
MG BCs: Computational effort saved:  99.9799%.
MG BCs: Charge after coarse-graining:           -9.0010121.
MG DL_MG: Calling solver with defect correction order = 8
MG DL_MG: Solver finished
MG Hartree energy from (\int phi*rho dr):              1431.909998
MG Hartree energy from (\int eps (grad phi)^2 dr):     1431.264213
MG Discrepancy due to finite box and discretization:     -0.645784 (  -0.04510%)
MG Correction to account for finite box:                  0.468111
MG Remaining discrepancy, due to discretization:         -0.177674 (  -0.01241%)
      ideal mu1:      -0.779105342123
             Q0:  -11613.101070028264
             G0:      -0.465685818681
   RMS gradient:       0.000103677979
MG BCs: +ve charge blocks (gridpoints):     31159 (   17376446).
MG BCs: -ve charge blocks (gridpoints):      8362 (    1116931).
MG BCs:     Elided blocks (gridpoints):    169477 (  177803088).
MG BCs: Computational effort saved:  99.9799%.
MG BCs: Charge after coarse-graining:           -9.0010123.
MG DL_MG: Calling solver with defect correction order = 8
MG DL_MG: Solver finished
MG Hartree energy from (\int phi*rho dr):              1432.913041
MG Hartree energy from (\int eps (grad phi)^2 dr):     1432.267248
MG Discrepancy due to finite box and discretization:     -0.645793 (  -0.04507%)
MG Correction to account for finite box:                  0.468030
MG Remaining discrepancy, due to discretization:         -0.177763 (  -0.01241%)
     Trial step:       0.477147581732
             Q1:  -11613.204698885791
 Quadratic coef:       0.118572004703
 Linear coef   :      -0.222200862230
           Qmin:  -11613.205169691797
Quadratic minimum step length (  0.447081097841) accepted
    Initial Ne1:    7233.99999006
      Final Ne1:    7234.00000000

=================== Penalty functional idempotency correction ==================
 RMS occupancy error at iteration   1:  0.000201 (step -0.4991 Ne1=   7234.0000)
 RMS occupancy error at iteration   2:  0.000000 (step -0.5000 Ne1=   7234.0000)
            Final RMS occupancy error   :  0.000000 (Ne1=   7234.0000)
               Final occupancy bounds   : [  0.0000,  1.0000]
================================================================================

    4        -1.161310107003E+04     1.0368E-04     9.3803E-05    -4.9336E-01
MG BCs: +ve charge blocks (gridpoints):     31160 (   17376353).
MG BCs: -ve charge blocks (gridpoints):      8363 (    1116978).
MG BCs:     Elided blocks (gridpoints):    169476 (  177803134).
MG BCs: Computational effort saved:  99.9799%.
MG BCs: Charge after coarse-graining:           -9.0010123.
MG DL_MG: Calling solver with defect correction order = 8
MG DL_MG: Solver finished
MG Hartree energy from (\int phi*rho dr):              1432.849655
MG Hartree energy from (\int eps (grad phi)^2 dr):     1432.203863
MG Discrepancy due to finite box and discretization:     -0.645792 (  -0.04507%)
MG Correction to account for finite box:                  0.468035
MG Remaining discrepancy, due to discretization:         -0.177757 (  -0.01241%)
      ideal mu1:      -0.779190571839
             Q0:  -11613.205681168241
             G0:      -0.107021863931
   RMS gradient:       0.000049867603
MG BCs: +ve charge blocks (gridpoints):     31158 (   17376633).
MG BCs: -ve charge blocks (gridpoints):      8358 (    1116735).
MG BCs:     Elided blocks (gridpoints):    169478 (  177803097).
MG BCs: Computational effort saved:  99.9799%.
MG BCs: Charge after coarse-graining:           -9.0010122.
MG DL_MG: Calling solver with defect correction order = 8
MG DL_MG: Solver finished
MG Hartree energy from (\int phi*rho dr):              1433.241330
MG Hartree energy from (\int eps (grad phi)^2 dr):     1432.595395
MG Discrepancy due to finite box and discretization:     -0.645935 (  -0.04507%)
MG Correction to account for finite box:                  0.468026
MG Remaining discrepancy, due to discretization:         -0.177909 (  -0.01241%)
     Trial step:       0.461869748601
             Q1:  -11613.231998971431
 Quadratic coef:       0.023112358200
 Linear coef   :      -0.049430161389
           Qmin:  -11613.232110111945
Quadratic minimum step length (  0.493898026688) accepted
    Initial Ne1:    7233.99999746
      Final Ne1:    7234.00000000

=================== Penalty functional idempotency correction ==================
 RMS occupancy error at iteration   1:  0.000069 (step -0.4997 Ne1=   7234.0000)
            Final RMS occupancy error   :  0.000000 (Ne1=   7234.0000)
               Final occupancy bounds   : [ -0.0000,  1.0000]
================================================================================

    5        -1.161320568117E+04     4.9868E-05     4.5118E-05    -1.0461E-01
MG BCs: +ve charge blocks (gridpoints):     31158 (   17376624).
MG BCs: -ve charge blocks (gridpoints):      8357 (    1116732).
MG BCs:     Elided blocks (gridpoints):    169478 (  177803109).
MG BCs: Computational effort saved:  99.9799%.
MG BCs: Charge after coarse-graining:           -9.0010122.
MG DL_MG: Calling solver with defect correction order = 8
MG DL_MG: Solver finished
MG Hartree energy from (\int phi*rho dr):              1433.268508
MG Hartree energy from (\int eps (grad phi)^2 dr):     1432.622563
MG Discrepancy due to finite box and discretization:     -0.645944 (  -0.04507%)
MG Correction to account for finite box:                  0.468025
MG Remaining discrepancy, due to discretization:         -0.177920 (  -0.01241%)
      ideal mu1:      -0.779054690627
             Q0:  -11613.232166187023
             G0:      -0.030321034065
   RMS gradient:       0.000026568418
MG BCs: +ve charge blocks (gridpoints):     31161 (   17376110).
MG BCs: -ve charge blocks (gridpoints):      8359 (    1116963).
MG BCs:     Elided blocks (gridpoints):    169475 (  177803392).
MG BCs: Computational effort saved:  99.9799%.
MG BCs: Charge after coarse-graining:           -9.0010121.
MG DL_MG: Calling solver with defect correction order = 8
MG DL_MG: Solver finished
MG Hartree energy from (\int phi*rho dr):              1432.640305
MG Hartree energy from (\int eps (grad phi)^2 dr):     1431.994361
MG Discrepancy due to finite box and discretization:     -0.645944 (  -0.04509%)
MG Correction to account for finite box:                  0.468026
MG Remaining discrepancy, due to discretization:         -0.177919 (  -0.01242%)
     Trial step:       0.477615491186
             Q1:  -11613.241446309257
 Quadratic coef:       0.005201673344
 Linear coef   :      -0.014481795578
           Qmin:  -11613.242245751295
Quadratic minimum step length (  0.664856234759) accepted
    Initial Ne1:    7234.00032389
      Final Ne1:    7234.00000000

=================== Penalty functional idempotency correction ==================
 RMS occupancy error at iteration   1:  0.000036 (step -0.4998 Ne1=   7234.0000)
            Final RMS occupancy error   :  0.000000 (Ne1=   7234.0000)
               Final occupancy bounds   : [ -0.0000,  1.0000]
================================================================================

    6        -1.161323216619E+04     2.6568E-05     2.4038E-05    -2.6485E-02
MG BCs: +ve charge blocks (gridpoints):     31160 (   17375907).
MG BCs: -ve charge blocks (gridpoints):      8361 (    1117078).
MG BCs:     Elided blocks (gridpoints):    169476 (  177803480).
MG BCs: Computational effort saved:  99.9799%.
MG BCs: Charge after coarse-graining:           -9.0010121.
MG DL_MG: Calling solver with defect correction order = 8
MG DL_MG: Solver finished
MG Hartree energy from (\int phi*rho dr):              1432.393538
MG Hartree energy from (\int eps (grad phi)^2 dr):     1431.747594
MG Discrepancy due to finite box and discretization:     -0.645944 (  -0.04510%)
MG Correction to account for finite box:                  0.468026
MG Remaining discrepancy, due to discretization:         -0.177918 (  -0.01242%)
      ideal mu1:      -0.778851596214
             Q0:  -11613.242255891208
             G0:      -0.014900397334
   RMS gradient:       0.000018650448
MG BCs: +ve charge blocks (gridpoints):     31160 (   17376513).
MG BCs: -ve charge blocks (gridpoints):      8359 (    1116777).
MG BCs:     Elided blocks (gridpoints):    169476 (  177803175).
MG BCs: Computational effort saved:  99.9799%.
MG BCs: Charge after coarse-graining:           -9.0010122.
MG DL_MG: Calling solver with defect correction order = 8
MG DL_MG: Solver finished
MG Hartree energy from (\int phi*rho dr):              1432.941467
MG Hartree energy from (\int eps (grad phi)^2 dr):     1432.295563
MG Discrepancy due to finite box and discretization:     -0.645904 (  -0.04508%)
MG Correction to account for finite box:                  0.468010
MG Remaining discrepancy, due to discretization:         -0.177895 (  -0.01241%)
     Trial step:       0.563511878431
             Q1:  -11613.245817425428
 Quadratic coef:       0.004835016671
 Linear coef   :      -0.008396550891
           Qmin:  -11613.245901280234
Quadratic minimum step length (  0.489300915288) accepted
    Initial Ne1:    7234.00009284
      Final Ne1:    7234.00000000

=================== Penalty functional idempotency correction ==================
 RMS occupancy error at iteration   1:  0.000002 (step -0.5000 Ne1=   7234.0000)
            Final RMS occupancy error   :  0.000000 (Ne1=   7234.0000)
               Final occupancy bounds   : [  0.0000,  1.0000]
================================================================================

    7        -1.161324225589E+04     1.8650E-05     1.6874E-05    -1.0090E-02
MG BCs: +ve charge blocks (gridpoints):     31160 (   17376454).
MG BCs: -ve charge blocks (gridpoints):      8359 (    1116799).
MG BCs:     Elided blocks (gridpoints):    169476 (  177803212).
MG BCs: Computational effort saved:  99.9799%.
MG BCs: Charge after coarse-graining:           -9.0010122.
MG DL_MG: Calling solver with defect correction order = 8
MG DL_MG: Solver finished
MG Hartree energy from (\int phi*rho dr):              1432.869184
MG Hartree energy from (\int eps (grad phi)^2 dr):     1432.223274
MG Discrepancy due to finite box and discretization:     -0.645909 (  -0.04508%)
MG Correction to account for finite box:                  0.468012
MG Remaining discrepancy, due to discretization:         -0.177898 (  -0.01242%)
      ideal mu1:      -0.779110933703
             Q0:  -11613.245901492890
             G0:      -0.008184515224
   RMS gradient:       0.000013823122
MG BCs: +ve charge blocks (gridpoints):     31160 (   17376562).
MG BCs: -ve charge blocks (gridpoints):      8359 (    1116746).
MG BCs:     Elided blocks (gridpoints):    169476 (  177803157).
MG BCs: Computational effort saved:  99.9799%.
MG BCs: Charge after coarse-graining:           -9.0010122.
MG DL_MG: Calling solver with defect correction order = 8
MG DL_MG: Solver finished
MG Hartree energy from (\int phi*rho dr):              1432.950199
MG Hartree energy from (\int eps (grad phi)^2 dr):     1432.304323
MG Discrepancy due to finite box and discretization:     -0.645875 (  -0.04507%)
MG Correction to account for finite box:                  0.468002
MG Remaining discrepancy, due to discretization:         -0.177873 (  -0.01241%)
     Trial step:       0.525097017599
             Q1:  -11613.249041655334
 Quadratic coef:       0.001157502091
 Linear coef   :      -0.004297664535
           Qmin:  -11613.249890669367
Quadratic minimum step length (  0.974810692699) accepted
    Initial Ne1:    7234.00010098
      Final Ne1:    7234.00000000

=================== Penalty functional idempotency correction ==================
 RMS occupancy error at iteration   1:  0.000016 (step -0.4997 Ne1=   7234.0000)
            Final RMS occupancy error   :  0.000000 (Ne1=   7234.0000)
               Final occupancy bounds   : [ -0.0000,  1.0000]
================================================================================

    8        -1.161324590149E+04     1.3823E-05     1.2507E-05    -3.6456E-03
MG BCs: +ve charge blocks (gridpoints):     31161 (   17376628).
MG BCs: -ve charge blocks (gridpoints):      8359 (    1116713).
MG BCs:     Elided blocks (gridpoints):    169475 (  177803124).
MG BCs: Computational effort saved:  99.9799%.
MG BCs: Charge after coarse-graining:           -9.0010122.
MG DL_MG: Calling solver with defect correction order = 8
MG DL_MG: Solver finished
MG Hartree energy from (\int phi*rho dr):              1433.018451
MG Hartree energy from (\int eps (grad phi)^2 dr):     1432.372606
MG Discrepancy due to finite box and discretization:     -0.645845 (  -0.04507%)
MG Correction to account for finite box:                  0.467994
MG Remaining discrepancy, due to discretization:         -0.177852 (  -0.01241%)
      ideal mu1:      -0.779268647468
             Q0:  -11613.249886849197
             G0:      -0.010443777270
   RMS gradient:       0.000015629768
MG BCs: +ve charge blocks (gridpoints):     31162 (   17376447).
MG BCs: -ve charge blocks (gridpoints):      8360 (    1116868).
MG BCs:     Elided blocks (gridpoints):    169474 (  177803150).
MG BCs: Computational effort saved:  99.9799%.
MG BCs: Charge after coarse-graining:           -9.0010122.
MG DL_MG: Calling solver with defect correction order = 8
MG DL_MG: Solver finished
MG Hartree energy from (\int phi*rho dr):              1432.720980
MG Hartree energy from (\int eps (grad phi)^2 dr):     1432.075186
MG Discrepancy due to finite box and discretization:     -0.645794 (  -0.04507%)
MG Correction to account for finite box:                  0.467976
MG Remaining discrepancy, due to discretization:         -0.177818 (  -0.01241%)
     Trial step:       0.715451037780
             Q1:  -11613.254432031536
 Quadratic coef:       0.002926828947
 Linear coef   :      -0.007472011286
           Qmin:  -11613.254655743593
Quadratic minimum step length (  0.913250880963) accepted
    Initial Ne1:    7234.00019533
      Final Ne1:    7234.00000000

=================== Penalty functional idempotency correction ==================
 RMS occupancy error at iteration   1:  0.000068 (step -0.4983 Ne1=   7234.0000)
            Final RMS occupancy error   :  0.000000 (Ne1=   7234.0000)
               Final occupancy bounds   : [ -0.0000,  1.0000]
================================================================================

    9        -1.161324988685E+04     1.5630E-05     1.4141E-05    -3.9854E-03
MG BCs: +ve charge blocks (gridpoints):     31162 (   17376375).
MG BCs: -ve charge blocks (gridpoints):      8360 (    1116913).
MG BCs:     Elided blocks (gridpoints):    169474 (  177803177).
MG BCs: Computational effort saved:  99.9799%.
MG BCs: Charge after coarse-graining:           -9.0010122.
MG DL_MG: Calling solver with defect correction order = 8
MG DL_MG: Solver finished
MG Hartree energy from (\int phi*rho dr):              1432.637271
MG Hartree energy from (\int eps (grad phi)^2 dr):     1431.991492
MG Discrepancy due to finite box and discretization:     -0.645779 (  -0.04508%)
MG Correction to account for finite box:                  0.467971
MG Remaining discrepancy, due to discretization:         -0.177808 (  -0.01241%)
      ideal mu1:      -0.778987780684
   10        -1.161325464684E+04     1.6392E-05     1.4831E-05    -4.7600E-03
Finished density kernel iterations (  10)

Writing density kernel to file "complex_26321.vacuum_dkn" ... done


>>> Density kernel optimised for the current NGWF basis:
     ~~~~~~~~~~~~~~~~~~~~~~~~~~~~~~~~~~~~~~~~~~~~~~~~~~~~~~~~~~~
     Total energy                =  -1.16132546468439E+04  Eh
     Estimated bandgap           =  -2.4390E-01  Eh
     RMS occupancy error         =   1.0391E-07
     [H,K] commutator            =   1.4831E-05
     Occupancy bounds            = [ -0.000:  1.000]
     ~~~~~~~~~~~~~~~~~~~~~~~~~~~~~~~~~~~~~~~~~~~~~~~~~~~~~~~~~~~




################################################################################
########################### NGWF CG iteration  001 #############################
################################################################################
****** Reciprocal space K.E. preconditioning with k_zero =  3.5000 a0^-1 *******

>>> Checking for convergence of NGWFs:   NOT CONVERGED
  ========================================================================
         NGWF RMS gradient =  1.5750E-03 >  2.0000E-06  | above tolerance
  ========================================================================

>>> Improving NGWFs using line search:
============ Calculation of NGWF S^-1 using Hotelling algorithm ================ 
         Iteration  |  Frobenius norm and Maximum abs value    (of I-S*S_n^-1)   
               1       0.19542979E+00     0.52413704E-02
               2       0.87361422E-03     0.38759709E-04
               3       0.29012994E-07     0.21243423E-08
               4       0.13752916E-12     0.75495166E-14
================================================================================
MG BCs: +ve charge blocks (gridpoints):     30569 (   17323638).
MG BCs: -ve charge blocks (gridpoints):      8374 (    1116603).
MG BCs:     Elided blocks (gridpoints):    170070 (  177856224).
MG BCs: Computational effort saved:  99.9802%.
MG BCs: Charge after coarse-graining:           -9.0010104.
MG DL_MG: Calling solver with defect correction order = 8
MG DL_MG: Solver finished
MG Hartree energy from (\int phi*rho dr):              1400.777231
MG Hartree energy from (\int eps (grad phi)^2 dr):     1400.132195
MG Discrepancy due to finite box and discretization:     -0.645035 (  -0.04605%)
MG Correction to account for finite box:                  0.467924
MG Remaining discrepancy, due to discretization:         -0.177111 (  -0.01264%)
============ Calculation of NGWF S^-1 using Hotelling algorithm ================ 
         Iteration  |  Frobenius norm and Maximum abs value    (of I-S*S_n^-1)   
               1       0.18817924E+01     0.43042798E-01
               2       0.73166493E-01     0.24671926E-02
               3       0.14560839E-03     0.85662377E-05
               4       0.99276257E-09     0.10481849E-09
               5       0.11597888E-12     0.53290705E-14
================================================================================
------------------------------- NGWF line search -------------------------------
RMS gradient                =       0.00157499937357
Trial step length           =               0.122474
Gradient along search dir.  =       -275.51856515575
Functional at step 0        =  -11613.25464684388135
Functional at step 1        =  -11644.46154929196928
Functional predicted        =  -11725.45563958424827
Selected quadratic step     =               0.814471
--------------------------- NGWF line search finished --------------------------
                                               
Writing NGWFs to file "complex_26321.vacuum_tightbox_ngwfs"....  done

>>> Optimising kernel for current NGWFs:
   Initial electron number for spin 1:    7269.54821309
     Final electron number for spin 1:    7234.00000000

=================== Penalty functional idempotency correction ==================
 RMS occupancy error at iteration   1:  0.004249 (step -0.4863 Ne1=   7234.0000)
 RMS occupancy error at iteration   2:  0.000069 (step -0.5003 Ne1=   7234.0000)
            Final RMS occupancy error   :  0.000000 (Ne1=   7234.0000)
               Final occupancy bounds   : [  0.0000,  1.0000]
================================================================================

................................................................................
<<<<<<<<<<<<<< LNV (Original version) density kernel optimisation >>>>>>>>>>>>>>
~~~~~~~~~~~~~~~~~~~~~~~~~~~~~~~~~~~~~~~~~~~~~~~~~~~~~~~~~~~~~~~~~~~~~~~~~~~~~~~~
   iter  |      energy (Eh)       | rms gradient |  commutator  |   dE (Eh)
MG BCs: +ve charge blocks (gridpoints):     24869 (   17092868).
MG BCs: -ve charge blocks (gridpoints):      8584 (    1098841).
MG BCs:     Elided blocks (gridpoints):    175771 (  178104756).
MG BCs: Computational effort saved:  99.9830%.
MG BCs: Charge after coarse-graining:           -9.0006784.
MG DL_MG: Calling solver with defect correction order = 8
MG DL_MG: Solver finished
MG Hartree energy from (\int phi*rho dr):              1243.887795
MG Hartree energy from (\int eps (grad phi)^2 dr):     1243.242646
MG Discrepancy due to finite box and discretization:     -0.645149 (  -0.05187%)
MG Correction to account for finite box:                  0.467699
MG Remaining discrepancy, due to discretization:         -0.177450 (  -0.01427%)
      ideal mu1:      -0.717676949279
             Q0:  -11724.476447096560
             G0:      -9.812251962344
   RMS gradient:       0.000478602205
MG BCs: +ve charge blocks (gridpoints):     24939 (   17119319).
MG BCs: -ve charge blocks (gridpoints):      8555 (    1091168).
MG BCs:     Elided blocks (gridpoints):    175701 (  178085978).
MG BCs: Computational effort saved:  99.9829%.
MG BCs: Charge after coarse-graining:           -9.0006722.
MG DL_MG: Calling solver with defect correction order = 8
MG DL_MG: Solver finished
MG Hartree energy from (\int phi*rho dr):              1267.123798
MG Hartree energy from (\int eps (grad phi)^2 dr):     1266.472544
MG Discrepancy due to finite box and discretization:     -0.651255 (  -0.05140%)
MG Correction to account for finite box:                  0.467481
MG Remaining discrepancy, due to discretization:         -0.183774 (  -0.01450%)
     Trial step:       0.808323134976
             Q1:  -11722.711588664679
 Quadratic coef:       9.696328699261
 Linear coef   :      -7.931470267381
           Qmin:  -11726.098406875191
Quadratic minimum step length (  0.330598884916) accepted
    Initial Ne1:    7233.99958823
      Final Ne1:    7234.00000000

=================== Penalty functional idempotency correction ==================
 RMS occupancy error at iteration   1:  0.000353 (step -0.4986 Ne1=   7234.0000)
 RMS occupancy error at iteration   2:  0.000000 (step -0.5000 Ne1=   7234.0000)
            Final RMS occupancy error   :  0.000000 (Ne1=   7234.0000)
               Final occupancy bounds   : [  0.0000,  1.0000]
================================================================================

    1        -1.172447644710E+04     4.7860E-04     4.3302E-04
MG BCs: +ve charge blocks (gridpoints):     24893 (   17103904).
MG BCs: -ve charge blocks (gridpoints):      8563 (    1095641).
MG BCs:     Elided blocks (gridpoints):    175747 (  178096920).
MG BCs: Computational effort saved:  99.9830%.
MG BCs: Charge after coarse-graining:           -9.0006758.
MG DL_MG: Calling solver with defect correction order = 8
MG DL_MG: Solver finished
MG Hartree energy from (\int phi*rho dr):              1252.208415
MG Hartree energy from (\int eps (grad phi)^2 dr):     1251.560884
MG Discrepancy due to finite box and discretization:     -0.647531 (  -0.05171%)
MG Correction to account for finite box:                  0.467588
MG Remaining discrepancy, due to discretization:         -0.179943 (  -0.01437%)
      ideal mu1:      -0.725474796367
             Q0:  -11726.066652280511
             G0:      -0.985726923404
   RMS gradient:       0.000152664624
MG BCs: +ve charge blocks (gridpoints):     24899 (   17104938).
MG BCs: -ve charge blocks (gridpoints):      8569 (    1095961).
MG BCs:     Elided blocks (gridpoints):    175741 (  178095566).
MG BCs: Computational effort saved:  99.9830%.
MG BCs: Charge after coarse-graining:           -9.0006756.
MG DL_MG: Calling solver with defect correction order = 8
MG DL_MG: Solver finished
MG Hartree energy from (\int phi*rho dr):              1254.080441
MG Hartree energy from (\int eps (grad phi)^2 dr):     1253.432624
MG Discrepancy due to finite box and discretization:     -0.647817 (  -0.05166%)
MG Correction to account for finite box:                  0.467585
MG Remaining discrepancy, due to discretization:         -0.180232 (  -0.01437%)
     Trial step:       0.516943640134
             Q1:  -11726.269071832998
 Quadratic coef:       0.307145711477
 Linear coef   :      -0.509565263962
           Qmin:  -11726.277998840576
Quadratic minimum step length (  0.428813609625) accepted
    Initial Ne1:    7233.99994565
      Final Ne1:    7234.00000000

=================== Penalty functional idempotency correction ==================
 RMS occupancy error at iteration   1:  0.000143 (step -0.4994 Ne1=   7234.0000)
            Final RMS occupancy error   :  0.000000 (Ne1=   7234.0000)
               Final occupancy bounds   : [ -0.0000,  1.0000]
================================================================================

    2        -1.172606665228E+04     1.5266E-04     1.3812E-04    -1.5902E+00
MG BCs: +ve charge blocks (gridpoints):     24898 (   17104793).
MG BCs: -ve charge blocks (gridpoints):      8567 (    1095888).
MG BCs:     Elided blocks (gridpoints):    175742 (  178095784).
MG BCs: Computational effort saved:  99.9830%.
MG BCs: Charge after coarse-graining:           -9.0006756.
MG DL_MG: Calling solver with defect correction order = 8
MG DL_MG: Solver finished
MG Hartree energy from (\int phi*rho dr):              1253.760799
MG Hartree energy from (\int eps (grad phi)^2 dr):     1253.113033
MG Discrepancy due to finite box and discretization:     -0.647766 (  -0.05167%)
MG Correction to account for finite box:                  0.467585
MG Remaining discrepancy, due to discretization:         -0.180181 (  -0.01437%)
      ideal mu1:      -0.726889339231
             Q0:  -11726.278466894873
             G0:      -0.155325147446
   RMS gradient:       0.000060151683
MG BCs: +ve charge blocks (gridpoints):     24897 (   17103835).
MG BCs: -ve charge blocks (gridpoints):      8569 (    1096429).
MG BCs:     Elided blocks (gridpoints):    175743 (  178096201).
MG BCs: Computational effort saved:  99.9830%.
MG BCs: Charge after coarse-graining:           -9.0006757.
MG DL_MG: Calling solver with defect correction order = 8
MG DL_MG: Solver finished
MG Hartree energy from (\int phi*rho dr):              1253.164653
MG Hartree energy from (\int eps (grad phi)^2 dr):     1252.516925
MG Discrepancy due to finite box and discretization:     -0.647728 (  -0.05169%)
MG Correction to account for finite box:                  0.467584
MG Remaining discrepancy, due to discretization:         -0.180143 (  -0.01438%)
     Trial step:       0.470821057620
             Q1:  -11726.325866658357
 Quadratic coef:       0.025730586713
 Linear coef   :      -0.073130350196
           Qmin:  -11726.330428867015
Quadratic minimum step length (  0.669073527313) accepted
    Initial Ne1:    7234.00063871
      Final Ne1:    7234.00000000

=================== Penalty functional idempotency correction ==================
 RMS occupancy error at iteration   1:  0.000067 (step -0.4998 Ne1=   7234.0000)
            Final RMS occupancy error   :  0.000000 (Ne1=   7234.0000)
               Final occupancy bounds   : [ -0.0000,  1.0000]
================================================================================

    3        -1.172627846689E+04     6.0152E-05     5.4423E-05    -2.1181E-01
MG BCs: +ve charge blocks (gridpoints):     24894 (   17103424).
MG BCs: -ve charge blocks (gridpoints):      8568 (    1096630).
MG BCs:     Elided blocks (gridpoints):    175746 (  178096411).
MG BCs: Computational effort saved:  99.9830%.
MG BCs: Charge after coarse-graining:           -9.0006758.
MG DL_MG: Calling solver with defect correction order = 8
MG DL_MG: Solver finished
MG Hartree energy from (\int phi*rho dr):              1252.913565
MG Hartree energy from (\int eps (grad phi)^2 dr):     1252.265852
MG Discrepancy due to finite box and discretization:     -0.647713 (  -0.05170%)
MG Correction to account for finite box:                  0.467584
MG Remaining discrepancy, due to discretization:         -0.180128 (  -0.01438%)
      ideal mu1:      -0.725771827842
             Q0:  -11726.330530561507
             G0:      -0.035601119601
   RMS gradient:       0.000028784204
MG BCs: +ve charge blocks (gridpoints):     24890 (   17103510).
MG BCs: -ve charge blocks (gridpoints):      8568 (    1096596).
MG BCs:     Elided blocks (gridpoints):    175750 (  178096359).
MG BCs: Computational effort saved:  99.9830%.
MG BCs: Charge after coarse-graining:           -9.0006758.
MG DL_MG: Calling solver with defect correction order = 8
MG DL_MG: Solver finished
MG Hartree energy from (\int phi*rho dr):              1253.007332
MG Hartree energy from (\int eps (grad phi)^2 dr):     1252.359731
MG Discrepancy due to finite box and discretization:     -0.647601 (  -0.05168%)
MG Correction to account for finite box:                  0.467581
MG Remaining discrepancy, due to discretization:         -0.180020 (  -0.01437%)
     Trial step:       0.561260996111
             Q1:  -11726.339260779438
 Quadratic coef:       0.011251301919
 Linear coef   :      -0.019981519850
           Qmin:  -11726.339402004527
Quadratic minimum step length (  0.498380001499) accepted
    Initial Ne1:    7234.00024013
      Final Ne1:    7234.00000000

=================== Penalty functional idempotency correction ==================
 RMS occupancy error at iteration   1:  0.000018 (step -0.4999 Ne1=   7234.0000)
            Final RMS occupancy error   :  0.000000 (Ne1=   7234.0000)
               Final occupancy bounds   : [ -0.0000,  1.0000]
================================================================================

    4        -1.172633053056E+04     2.8784E-05     2.6043E-05    -5.2064E-02
MG BCs: +ve charge blocks (gridpoints):     24891 (   17103484).
MG BCs: -ve charge blocks (gridpoints):      8568 (    1096611).
MG BCs:     Elided blocks (gridpoints):    175749 (  178096370).
MG BCs: Computational effort saved:  99.9830%.
MG BCs: Charge after coarse-graining:           -9.0006758.
MG DL_MG: Calling solver with defect correction order = 8
MG DL_MG: Solver finished
MG Hartree energy from (\int phi*rho dr):              1252.996639
MG Hartree energy from (\int eps (grad phi)^2 dr):     1252.349026
MG Discrepancy due to finite box and discretization:     -0.647614 (  -0.05169%)
MG Correction to account for finite box:                  0.467581
MG Remaining discrepancy, due to discretization:         -0.180032 (  -0.01437%)
      ideal mu1:      -0.725859933751
             Q0:  -11726.339406979037
             G0:      -0.011396557853
   RMS gradient:       0.000016307309
MG BCs: +ve charge blocks (gridpoints):     24891 (   17104036).
MG BCs: -ve charge blocks (gridpoints):      8567 (    1096445).
MG BCs:     Elided blocks (gridpoints):    175749 (  178095984).
MG BCs: Computational effort saved:  99.9830%.
MG BCs: Charge after coarse-graining:           -9.0006756.
MG DL_MG: Calling solver with defect correction order = 8
MG DL_MG: Solver finished
MG Hartree energy from (\int phi*rho dr):              1253.386930
MG Hartree energy from (\int eps (grad phi)^2 dr):     1252.739351
MG Discrepancy due to finite box and discretization:     -0.647580 (  -0.05167%)
MG Correction to account for finite box:                  0.467581
MG Remaining discrepancy, due to discretization:         -0.179999 (  -0.01436%)
     Trial step:       0.528886808384
             Q1:  -11726.342511954950
 Quadratic coef:       0.002922513197
 Linear coef   :      -0.006027489110
           Qmin:  -11726.342514802896
Quadratic minimum step length (  0.545396934647) accepted
    Initial Ne1:    7234.00009873
      Final Ne1:    7234.00000000

=================== Penalty functional idempotency correction ==================
 RMS occupancy error at iteration   1:  0.000009 (step -0.5000 Ne1=   7234.0000)
            Final RMS occupancy error   :  0.000000 (Ne1=   7234.0000)
               Final occupancy bounds   : [ -0.0000,  1.0000]
================================================================================

    5        -1.172633940698E+04     1.6307E-05     1.4754E-05    -8.8764E-03
MG BCs: +ve charge blocks (gridpoints):     24891 (   17104056).
MG BCs: -ve charge blocks (gridpoints):      8566 (    1096441).
MG BCs:     Elided blocks (gridpoints):    175749 (  178095968).
MG BCs: Computational effort saved:  99.9830%.
MG BCs: Charge after coarse-graining:           -9.0006756.
MG DL_MG: Calling solver with defect correction order = 8
MG DL_MG: Solver finished
MG Hartree energy from (\int phi*rho dr):              1253.399129
MG Hartree energy from (\int eps (grad phi)^2 dr):     1252.751551
MG Discrepancy due to finite box and discretization:     -0.647579 (  -0.05167%)
MG Correction to account for finite box:                  0.467580
MG Remaining discrepancy, due to discretization:         -0.179998 (  -0.01436%)
      ideal mu1:      -0.726189575147
             Q0:  -11726.342515808647
             G0:      -0.003369347969
   RMS gradient:       0.000008866883
MG BCs: +ve charge blocks (gridpoints):     24891 (   17103967).
MG BCs: -ve charge blocks (gridpoints):      8568 (    1096495).
MG BCs:     Elided blocks (gridpoints):    175749 (  178096003).
MG BCs: Computational effort saved:  99.9830%.
MG BCs: Charge after coarse-graining:           -9.0006756.
MG DL_MG: Calling solver with defect correction order = 8
MG DL_MG: Solver finished
MG Hartree energy from (\int phi*rho dr):              1253.336540
MG Hartree energy from (\int eps (grad phi)^2 dr):     1252.688969
MG Discrepancy due to finite box and discretization:     -0.647572 (  -0.05167%)
MG Correction to account for finite box:                  0.467577
MG Remaining discrepancy, due to discretization:         -0.179995 (  -0.01436%)
     Trial step:       0.537078433814
             Q1:  -11726.343623830820
 Quadratic coef:       0.000701581956
 Linear coef   :      -0.001809604130
           Qmin:  -11726.343682695524
Quadratic minimum step length (  0.692648481297) accepted
    Initial Ne1:    7234.00004637
      Final Ne1:    7234.00000000

=================== Penalty functional idempotency correction ==================
 RMS occupancy error at iteration   1:  0.000005 (step -0.4999 Ne1=   7234.0000)
            Final RMS occupancy error   :  0.000000 (Ne1=   7234.0000)
               Final occupancy bounds   : [ -0.0000,  1.0000]
================================================================================

    6        -1.172634251581E+04     8.8669E-06     8.0224E-06    -3.1088E-03
MG BCs: +ve charge blocks (gridpoints):     24891 (   17103949).
MG BCs: -ve charge blocks (gridpoints):      8568 (    1096493).
MG BCs:     Elided blocks (gridpoints):    175749 (  178096023).
MG BCs: Computational effort saved:  99.9830%.
MG BCs: Charge after coarse-graining:           -9.0006756.
MG DL_MG: Calling solver with defect correction order = 8
MG DL_MG: Solver finished
MG Hartree energy from (\int phi*rho dr):              1253.318399
MG Hartree energy from (\int eps (grad phi)^2 dr):     1252.670830
MG Discrepancy due to finite box and discretization:     -0.647570 (  -0.05167%)
MG Correction to account for finite box:                  0.467576
MG Remaining discrepancy, due to discretization:         -0.179994 (  -0.01436%)
      ideal mu1:      -0.726121621869
             Q0:  -11726.343682802632
             G0:      -0.001812725294
   RMS gradient:       0.000006505135
MG BCs: +ve charge blocks (gridpoints):     24891 (   17103833).
MG BCs: -ve charge blocks (gridpoints):      8568 (    1096528).
MG BCs:     Elided blocks (gridpoints):    175749 (  178096104).
MG BCs: Computational effort saved:  99.9830%.
MG BCs: Charge after coarse-graining:           -9.0006756.
MG DL_MG: Calling solver with defect correction order = 8
MG DL_MG: Solver finished
MG Hartree energy from (\int phi*rho dr):              1253.253605
MG Hartree energy from (\int eps (grad phi)^2 dr):     1252.606024
MG Discrepancy due to finite box and discretization:     -0.647581 (  -0.05167%)
MG Correction to account for finite box:                  0.467581
MG Remaining discrepancy, due to discretization:         -0.180000 (  -0.01436%)
     Trial step:       0.609923406272
             Q1:  -11726.344059605850
 Quadratic coef:       0.000728820367
 Linear coef   :      -0.001105623586
           Qmin:  -11726.344102111549
Quadratic minimum step length (  0.462628196377) accepted
    Initial Ne1:    7234.00000645
      Final Ne1:    7234.00000000

=================== Penalty functional idempotency correction ==================
 RMS occupancy error at iteration   1:  0.000001 (step -0.5000 Ne1=   7234.0000)
            Final RMS occupancy error   :  0.000000 (Ne1=   7234.0000)
               Final occupancy bounds   : [  0.0000,  1.0000]
================================================================================

    7        -1.172634368280E+04     6.5051E-06     5.8856E-06    -1.1670E-03
MG BCs: +ve charge blocks (gridpoints):     24891 (   17103857).
MG BCs: -ve charge blocks (gridpoints):      8568 (    1096522).
MG BCs:     Elided blocks (gridpoints):    175749 (  178096086).
MG BCs: Computational effort saved:  99.9830%.
MG BCs: Charge after coarse-graining:           -9.0006756.
MG DL_MG: Calling solver with defect correction order = 8
MG DL_MG: Solver finished
MG Hartree energy from (\int phi*rho dr):              1253.269210
MG Hartree energy from (\int eps (grad phi)^2 dr):     1252.621632
MG Discrepancy due to finite box and discretization:     -0.647578 (  -0.05167%)
MG Correction to account for finite box:                  0.467579
MG Remaining discrepancy, due to discretization:         -0.179999 (  -0.01436%)
      ideal mu1:      -0.726053761642
             Q0:  -11726.344102076022
             G0:      -0.001112028236
   RMS gradient:       0.000005094847
MG BCs: +ve charge blocks (gridpoints):     24891 (   17103808).
MG BCs: -ve charge blocks (gridpoints):      8568 (    1096542).
MG BCs:     Elided blocks (gridpoints):    175749 (  178096115).
MG BCs: Computational effort saved:  99.9830%.
MG BCs: Charge after coarse-graining:           -9.0006756.
MG DL_MG: Calling solver with defect correction order = 8
MG DL_MG: Solver finished
MG Hartree energy from (\int phi*rho dr):              1253.235684
MG Hartree energy from (\int eps (grad phi)^2 dr):     1252.588100
MG Discrepancy due to finite box and discretization:     -0.647585 (  -0.05167%)
MG Correction to account for finite box:                  0.467581
MG Remaining discrepancy, due to discretization:         -0.180004 (  -0.01436%)
     Trial step:       0.531194658644
             Q1:  -11726.344572251663
 Quadratic coef:       0.000120527819
 Linear coef   :      -0.000590703459
           Qmin:  -11726.344825831295
Quadratic minimum step length (  1.301685063480) accepted
    Initial Ne1:    7234.00001106
      Final Ne1:    7234.00000000

=================== Penalty functional idempotency correction ==================
 RMS occupancy error at iteration   1:  0.000009 (step -0.4995 Ne1=   7234.0000)
            Final RMS occupancy error   :  0.000000 (Ne1=   7234.0000)
               Final occupancy bounds   : [ -0.0000,  1.0000]
================================================================================

    8        -1.172634410208E+04     5.0948E-06     4.6096E-06    -4.1927E-04
MG BCs: +ve charge blocks (gridpoints):     24890 (   17103757).
MG BCs: -ve charge blocks (gridpoints):      8567 (    1096555).
MG BCs:     Elided blocks (gridpoints):    175750 (  178096153).
[...]
MG DL_MG: Calling solver with defect correction order = 8
MG DL_MG: Solver finished
MG Hartree energy from (\int phi*rho dr):              1210.121592
MG Hartree energy from (\int eps (grad phi)^2 dr):     1209.935954
MG Discrepancy due to finite box and discretization:     -0.185639 (  -0.01534%)
MG Correction to account for finite box:                  0.006415
MG Remaining discrepancy, due to discretization:         -0.179224 (  -0.01481%)
             Q2:  -11759.759793782141
  Cubic LS coeff:       0.985963973244
Predicted energy:  -11759.759793782145
Cubic minimum step length accepted
    Initial Ne1:    7234.00000000
      Final Ne1:    7234.00000000

=================== Penalty functional idempotency correction ==================
 RMS occupancy error at iteration   1:  0.000000 (step -0.5000 Ne1=   7234.0000)
            Final RMS occupancy error   :  0.000000 (Ne1=   7234.0000)
               Final occupancy bounds   : [  0.0000,  1.0000]
================================================================================

    7        -1.175975979378E+04     9.4393E-09     8.5402E-09    -2.5611E-09

Reusing previously generated solute cavity.
MG BCs: +ve charge blocks (gridpoints):     28998 (   19311071).
MG BCs: -ve charge blocks (gridpoints):      8554 (    1065364).
MG BCs:     Elided blocks (gridpoints):    171642 (  175920030).
MG BCs: Computational effort saved:  99.9809%.
MG BCs: Charge after coarse-graining:           -9.0009731.
MG DL_MG: Calling solver with defect correction order = 8
MG DL_MG: Solver finished
MG Hartree energy from (\int phi*rho dr):              1210.121592
MG Hartree energy from (\int eps (grad phi)^2 dr):     1209.935953
MG Discrepancy due to finite box and discretization:     -0.185639 (  -0.01534%)
MG Correction to account for finite box:                  0.006415
MG Remaining discrepancy, due to discretization:         -0.179224 (  -0.01481%)
      ideal mu1:      -0.484725545304
             Q0:  -11759.759793782374
             G0:      -0.000000004894
   RMS gradient:       0.000000010015

Reusing previously generated solute cavity.
MG BCs: +ve charge blocks (gridpoints):     28998 (   19311070).
MG BCs: -ve charge blocks (gridpoints):      8554 (    1065364).
MG BCs:     Elided blocks (gridpoints):    171642 (  175920031).
MG BCs: Computational effort saved:  99.9809%.
MG BCs: Charge after coarse-graining:           -9.0009731.
MG DL_MG: Calling solver with defect correction order = 8
MG DL_MG: Solver finished
MG Hartree energy from (\int phi*rho dr):              1210.121556
MG Hartree energy from (\int eps (grad phi)^2 dr):     1209.935917
MG Discrepancy due to finite box and discretization:     -0.185639 (  -0.01534%)
MG Correction to account for finite box:                  0.006415
MG Remaining discrepancy, due to discretization:         -0.179224 (  -0.01481%)
     Trial step:       0.677943662548
             Q1:  -11759.759793783887
 Quadratic coef:       0.000000001804
 Linear coef   :      -0.000000003318
           Qmin:  -11759.759793783898
Quadratic minimum step length (  0.623263456999) accepted
    Initial Ne1:    7234.00000000
      Final Ne1:    7234.00000000

=================== Penalty functional idempotency correction ==================
 RMS occupancy error at iteration   1:  0.000000 (step -0.5000 Ne1=   7234.0000)
            Final RMS occupancy error   :  0.000000 (Ne1=   7234.0000)
               Final occupancy bounds   : [  0.0000,  1.0000]
================================================================================

    8        -1.175975979378E+04     1.0015E-08     9.0610E-09    -3.9581E-09

Reusing previously generated solute cavity.
MG BCs: +ve charge blocks (gridpoints):     28998 (   19311070).
MG BCs: -ve charge blocks (gridpoints):      8554 (    1065364).
MG BCs:     Elided blocks (gridpoints):    171642 (  175920031).
MG BCs: Computational effort saved:  99.9809%.
MG BCs: Charge after coarse-graining:           -9.0009731.
MG DL_MG: Calling solver with defect correction order = 8
MG DL_MG: Solver finished
MG Hartree energy from (\int phi*rho dr):              1210.121559
MG Hartree energy from (\int eps (grad phi)^2 dr):     1209.935920
MG Discrepancy due to finite box and discretization:     -0.185639 (  -0.01534%)
MG Correction to account for finite box:                  0.006415
MG Remaining discrepancy, due to discretization:         -0.179224 (  -0.01481%)
      ideal mu1:      -0.484725507840
             Q0:  -11759.759793783887
             G0:      -0.000000002311
   RMS gradient:       0.000000005957

Reusing previously generated solute cavity.
MG BCs: +ve charge blocks (gridpoints):     28998 (   19311072).
MG BCs: -ve charge blocks (gridpoints):      8554 (    1065364).
MG BCs:     Elided blocks (gridpoints):    171642 (  175920029).
MG BCs: Computational effort saved:  99.9809%.
MG BCs: Charge after coarse-graining:           -9.0009731.
MG DL_MG: Calling solver with defect correction order = 8
MG DL_MG: Solver finished
MG Hartree energy from (\int phi*rho dr):              1210.121564
MG Hartree energy from (\int eps (grad phi)^2 dr):     1209.935925
MG Discrepancy due to finite box and discretization:     -0.185639 (  -0.01534%)
MG Correction to account for finite box:                  0.006415
MG Remaining discrepancy, due to discretization:         -0.179224 (  -0.01481%)
     Trial step:       0.650028853799
             Q1:  -11759.759793784353
 Quadratic coef:       0.000000001037
 Linear coef   :      -0.000000001502
           Qmin:  -11759.759793784431
Quadratic minimum step length (  0.470813006222) accepted
    Initial Ne1:    7234.00000000
      Final Ne1:    7234.00000000

=================== Penalty functional idempotency correction ==================
 RMS occupancy error at iteration   1:  0.000000 (step -0.5000 Ne1=   7234.0000)
            Final RMS occupancy error   :  0.000000 (Ne1=   7234.0000)
               Final occupancy bounds   : [ -0.0000,  1.0000]
================================================================================

    9        -1.175975979378E+04     5.9570E-09     5.3897E-09    -1.5134E-09

Reusing previously generated solute cavity.
MG BCs: +ve charge blocks (gridpoints):     28998 (   19311072).
MG BCs: -ve charge blocks (gridpoints):      8554 (    1065364).
MG BCs:     Elided blocks (gridpoints):    171642 (  175920029).
MG BCs: Computational effort saved:  99.9809%.
MG BCs: Charge after coarse-graining:           -9.0009731.
MG DL_MG: Calling solver with defect correction order = 8
MG DL_MG: Solver finished
MG Hartree energy from (\int phi*rho dr):              1210.121562
MG Hartree energy from (\int eps (grad phi)^2 dr):     1209.935923
MG Discrepancy due to finite box and discretization:     -0.185639 (  -0.01534%)
MG Correction to account for finite box:                  0.006415
MG Remaining discrepancy, due to discretization:         -0.179224 (  -0.01481%)
      ideal mu1:      -0.484725510640
   10        -1.175975979378E+04     4.2953E-09     3.8862E-09    -3.4925E-10
Finished density kernel iterations (  10)

Writing density kernel to file "complex_26321.dkn" ... done


>>> Density kernel optimised for the current NGWF basis:
     ~~~~~~~~~~~~~~~~~~~~~~~~~~~~~~~~~~~~~~~~~~~~~~~~~~~~~~~~~~~
     Total energy                =  -1.17597597937842E+04  Eh
     Estimated bandgap           =   8.7055E-02  Eh
     RMS occupancy error         =   6.7851E-16
     [H,K] commutator            =   3.8862E-09
     Occupancy bounds            = [ -0.000:  1.000]
     ~~~~~~~~~~~~~~~~~~~~~~~~~~~~~~~~~~~~~~~~~~~~~~~~~~~~~~~~~~~




################################################################################
########################### NGWF CG iteration  004 #############################
################################################################################
****** Reciprocal space K.E. preconditioning with k_zero =  3.5000 a0^-1 *******

>>> Checking for convergence of NGWFs: 
           ........................................................
           |         *** NGWF optimisation converged ***          |
           | RMS NGWF gradient =    0.00000186361840              |
           | Criteria satisfied:                                  |
           | -> RMS NGWF gradient lower than set threshold.       |
           ========================================================

Reusing previously generated solute cavity.
MG BCs: +ve charge blocks (gridpoints):     28998 (   19311072).
MG BCs: -ve charge blocks (gridpoints):      8554 (    1065364).
MG BCs:     Elided blocks (gridpoints):    171642 (  175920029).
MG BCs: Computational effort saved:  99.9809%.
MG BCs: Charge after coarse-graining:           -9.0009731.
MG DL_MG: Calling solver with defect correction order = 8
MG DL_MG: Solver finished
MG Hartree energy from (\int phi*rho dr):              1210.121562
MG Hartree energy from (\int eps (grad phi)^2 dr):     1209.935923
MG Discrepancy due to finite box and discretization:     -0.185639 (  -0.01534%)
MG Correction to account for finite box:                  0.006415
MG Remaining discrepancy, due to discretization:         -0.179224 (  -0.01481%)

================================================================================
           ---------------- ENERGY COMPONENTS (Eh) ----------------
           | Kinetic                    :     8604.14606363329040 |
           | Pseudo. (local,OBC,corr'd) :    -5098.23600544926921 |
           | Pseudopotential (non-local):     1411.23148580049838 |
           | Hartree (molecular)        :     1210.12156228598042 |
           | Exchange-correlation       :    -3400.76198139532653 |
           | Ion-ion (open BC)          :   838336.43206134019420 |
           | Smeared ion non-self corr. :  -838288.36092804488726 |
           | Smeared ion self corr.     :   -14534.96330857570138 |
           | Solvent cavitation energy  :        2.24586541309967 |
           | Solute-solvent dis-rep en. :       -1.61460879211268 |
           | Total                      :   -11759.75979378423108 |
           --------------------------------------------------------
           ------ LOCAL ENERGY COMPONENTS FROM MATRIX TRACES ------
           | Pseudopotential (local)    :    -5098.23600544926194 |
           | Hartree                    :    -2011.54815464785747 |
           --------------------------------------------------------
           Integrated density           :     7233.99999999719694
           Integrated density tr(KS)    :     7234.00000000000000
================================================================================


                        <<<<< CALCULATION SUMMARY >>>>>                         
|ITER|    RMS GRADIENT   |     TOTAL ENERGY    |   step   |     Epredicted              
   0     0.00003915050936 -11759.69800119474530   0.627545 -11759.75141827400876        
   1     0.00000955591804 -11759.75928039732389   0.084470 -11759.75970875476196        
   2     0.00000419863777 -11759.75977664103266   0.015368 -11759.75979168601407        
   3     0.00000186361840 -11759.75979378423654  <-- CG                                 

=================== Finished the calculation in solvent ========================
= Adjusting the following parameters: 
= read_denskern: F
= read_tightbox_ngwfs: F
= maxit_pen: 0 (restored to user-specified value)
= restart read filename prefix: ""
= restart write filename prefix: ""
================================================================================

================================================================================
IS: Calculation in solvent completed (NGWFs converged).      

Individual components of total energy in solvent:     hartree           kcal/mol
- Usual non-electrostatic DFT terms:    -12970.51261269120369    -8139119.371340
- Electrostatic fixed charge energy:      1210.12156228598042      759362.728628
- Apolar cavitation energy:                  2.24586541309967        1409.301794
- Apolar dispersion-repulsion energy:       -1.61460879211268       -1013.182292
 -------------------------------------------------------------------------------
- Total energy in solvent:              -11759.75979378423654    -7379360.523210

Components of total energy in solvent:                hartree           kcal/mol
- Usual non-electrostatic DFT terms:    -12970.51261269120369    -8139119.371340
- Electrostatic energy:                   1210.12156228598042      759362.728628
- Apolar energy terms:                       0.63125662098699         396.119502
 -------------------------------------------------------------------------------
- Total energy in solvent:              -11759.75979378423654    -7379360.523210

Calculation of free energy of solvation:              hartree           kcal/mol
- Total energy in solvent:         (+)  -11759.75979378423654    -7379360.523210
- Total energy in vacuum:          (-)  -11755.95808696886525    -7376974.916217
 -------------------------------------------------------------------------------
- Total free energy of solvation:           -3.80170681537129       -2385.606992

Components of polar term in f.e. of solvation:        hartree           kcal/mol
- Electrostatic:                            -4.49597087865368       -2821.264260
- Change in nonelectrostatic DFT terms:      0.06300744229520          39.537766
 -------------------------------------------------------------------------------
- Polar term in f.e. of solvation:          -4.43296343635848       -2781.726494

Components of free energy of solvation:               hartree           kcal/mol
- Polar term in f.e. of solvation: (+)      -4.43296343635848       -2781.726494
- Apolar (cavitation, dis., rep.): (+)       0.63125662098699         396.119502
 -------------------------------------------------------------------------------
- Total free energy of solvation:           -3.80170681537149       -2385.606992
================================================================================


------------------------------ TIMING INFORMATION ------------------------------
AVERAGE TIME:   39090.849s on     30 node(s)                                    
TOTAL TIME:     39090.852s on     30 node(s)                                    
================= AVERAGE TIMINGS FROM ALL NODES (CUMULATIVE) ==================
|| TAG                                    #calls    cpu time   %total  Gflops ||
|| work_imbalance                       :     1        0.00s   0.000%  ------ ||
|| sparse_set_to_garbage                :   164        0.05s   0.000%  ------ ||
|| parallel_prepare_fd_halos_alloc      :  1827        0.08s   0.000%  ------ ||
|| ngwfs_initialise_from_radial         :     1        0.28s   0.001%  ------ ||
|| basis_extract_function_from_box      :  6763        0.40s   0.001%  ------ ||
|| parallel_prepare_fd_halos_request    :  1827        0.96s   0.002%  ------ ||
|| parallel_prepare_fd_halos_satisfy    :  1827        1.25s   0.003%  ------ ||
|| restart_ngwfs_tightbox_input         :     1        4.25s   0.011%  ------ ||
|| openbc_locps_radial                  :     1        6.98s   0.018%  ------ ||
|| restart_kernel_read                  :     1        7.13s   0.018%  ------ ||
|| parallel_prepare_fd_halos_comms_imbal:  1827        8.21s   0.021%  ------ ||
|| density_init_guess_real              :     1        8.66s   0.022%  ------ ||
|| pseudopotentials_nonlocal_mat        :    28       12.36s   0.032%  ------ ||
|| parallel_prepare_fd_halos_clear      :  1827       12.85s   0.033%  ------ ||
|| sparse_init                          :     2       24.31s   0.062%  ------ ||
|| projectors_func_ovlp_box             :    28       25.73s   0.066%  ------ ||
|| parallel_prepare_fd_halos_comms_wait :  1827       30.56s   0.078%  ------ ||
|| function_ops_brappd_ketppd           :    28       30.83s   0.079%  ------ ||
|| projectors_init_fftbox_recip         :   238       32.37s   0.083%  ------ ||
|| palser_mano_kernel_optimise          :     1       39.65s   0.101%  ------ ||
|| restart_kernel_write                 :    16       44.52s   0.114%  ------ ||
|| basis_copy_function_to_box           : 109.7k      50.78s   0.130%  ------ ||
|| parallel_prepare_fd_halos            :  1827       53.92s   0.138%  ------ ||
|| fourier_apply_box_pair               :  9601       60.24s   0.154% 491.390 ||
|| sparse_embed_hotelling_invert_embed  :    28       91.77s   0.235%  ------ ||
|| pseudo_make_structure_factor         :     2      112.32s   0.287%  ------ ||
|| restart_ngwfs_tightbox_output        :    13      136.73s   0.350%  ------ ||
|| ngwf_gradient_coeffs                 :    15      139.65s   0.357%  ------ ||
|| sparse_trace                         :  4812      166.48s   0.426%  ------ ||
|| integrals_kinetic                    :    28      185.70s   0.475%  ------ ||
|| finite_difference_derivative         :  1827      234.08s   0.599%  ------ ||
|| projectors_gradient_batch            :   210      253.48s   0.648%  ------ ||
|| basis_dot_function_with_box          : 16.91M     289.42s   0.740%  ------ ||
|| openbc_locps_on_grid                 :     2      311.31s   0.796%  ------ ||
|| kernel_purify                        :   464      407.47s   1.042%  ------ ||
|| lnv_gradient_norm                    :   150      526.33s   1.346%  ------ ||
|| kernel_fix                           :   150      566.17s   1.448%  ------ ||
|| basis_add_function_to_box            : 35.18M     612.21s   1.566%  ------ ||
|| hamiltonian_energy_components        :     4      660.97s   1.691%  ------ ||
|| ngwf_gradient_build_batch            :   210     1011.61s   2.588%  ------ ||
|| cell_grid_extract_box_real           : 57721     1090.71s   2.790%  ------ ||
|| integrals_locpot_mat_els_batch       :  2226     1262.69s   3.230%  ------ ||
|| cell_grid_deposit_box_real           : 68271     1350.82s   3.456%  ------ ||
|| ngwf_gradient_batch                  :   210     1365.92s   3.494%  ------ ||
|| density_batch_row_sums               :  4242     1412.32s   3.613%  ------ ||
|| ngwf_gradient_lnv                    :    15     1696.58s   4.340%  ------ ||
|| fourier_apply_cell_backward          :  9123     1947.22s   4.981%  64.715 ||
|| fourier_apply_cell_forward           :  8513     1978.81s   5.062%  59.424 ||
|| sparse_product                       :  6149     2284.95s   5.845%  ------ ||
|| density_fftbox_deposit_to_cell       : 66357     2303.96s   5.894%  ------ ||
|| multigrid_prepare_bound_cond         :   304     3338.72s   8.541%  ------ ||
|| potential_apply_to_ngwf_batch        :  2226     4326.45s  11.068%  ------ ||
|| density_fftbox_interpolate_multiply  : 66357     4951.79s  12.667%  ------ ||
|| xc_energy_potential                  :   304     5242.91s  13.412%  ------ ||
|| integrals_locpot_dbl_grid            :   159     5605.49s  14.340%  ------ ||
|| fourier_apply_box                    : 228.8k    5942.94s  15.203% 575.551 ||
|| density_batch_interp_deposit         :  4242     7913.11s  20.243%  ------ ||
|| dl_mg_solver_calls                   :   304     8498.12s  21.739%  ------ ||
|| nlxc_vdw_energy                      :   608     8525.42s  21.809%  ------ ||
|| density_on_dbl_grid                  :   303    10206.48s  26.110%  ------ ||
|| multigrid_calculate_hartree          :   304    12120.17s  31.005%  ------ ||
|| hamiltonian_lhxc_calculate           :   299    27303.79s  69.847%  ------ ||
|| lnv_denskernel_optimise_cg           :    15    33649.73s  86.081%  ------ ||
|| ngwf_cg_optimise                     :     2    37878.88s  96.900%  ------ ||
|| total_time                           :     1    39090.85s 100.000%  ------ ||
================================================================================
Overhead of generating timer report: 
- 1 ms averaging over threads,
- 4 ms ensuring consistency across MPI ranks,
- 0 ms printing in order.

Job completed: 22-02-2020 12:58 (-0000)

