 +---------------------------------------------------------------+
 |                                                               |
 |        ####### #     # ####### ####### ####### ######         |
 |        #     # ##    # #          #    #       #     #        |
 |        #     # # #   # #          #    #       #     #        |
 |        #     # #  #  # #####      #    #####   ######         |
 |        #     # #   # # #          #    #       #              |
 |        #     # #    ## #          #    #       #              |
 |        ####### #     # #######    #    ####### #              |
 |                                                               |
 |        Linear-Scaling Ab Initio Total Energy Program          |
 |                                                               |
 |          Release for academic collaborators of ODG            |
 |                                             Version 5.3.2.6.  |
 |                                                               |
 +---------------------------------------------------------------+
 |                                                               |
 |  Authors:                                                     |
 |  Jacek Dziedzic, Peter D. Haynes, Nicholas D. M. Hine,        |
 |  Arash. A. Mostofi, Mike C. Payne and Chris-Kriton Skylaris   |
 |                                                               |
 |  Contributors:                                                |
 |  J. Aarons, L. Andrinopoulos, P. W. Avraam, R. A. Bell,       |
 |  A. Bhandari, G. A. Bramley, R. J. Charlton, S. J. Clark,     |
 |  R. J. Clements, G. C. Constantinescu, F. Corsetti,           |
 |  N. Corsini, O. Dieguez, S. M. M. Dubois, K. K. B. Duff,      |
 |  J. M. Escartin, A. Greco, H. Helal, Q. O. Hill, L. P. Lee,   |
 |  J.-H. Li, E. B. Linscott, G. Moynihan, D. D. O`Regan,        |
 |  O. K. Okan, M. J. S. Phipps, C. J. Pickard,                  |
 |  J. C. A. Prentice, M. I. J. Probert, L. E. Ratcliff,         |
 |  M. Robinson, A. Ruiz Serrano, J. S. Spencer, E. W. Tait,     |
 |  G. Teobaldi, D. Turban, V. Vitale, K. A. Wilkinson,          |
 |  C. Weber, J. C. Womack, N. Yeung and T. J. Zuehlsdorff       |
 |                                                               |
 |                                   Copyright (c) 2004-2019     |
 |                                                               |
 |  Please cite:                                                 |
 |  "Introducing ONETEP: Linear-scaling density functional       |
 |   simulations on parallel computers".                         |
 |   C.-K. Skylaris, P. D. Haynes, A. A. Mostofi, M. C. Payne.   |
 |   J. Chem. Phys. 122 084119 (2005).                           |
 |                                                               |
 |          in all publications arising from your use of ONETEP. |
 |                                                               |
 +---------------------------------------------------------------+
 |                                                               |
 |   ONETEP is based on developments described in the following  |
 |   publications:                                               |
 |                                                               |
 |  "Nonorthogonal generalized Wannier function pseudopotential  |
 |   plane-wave method".                                         |
 |   C.-K. Skylaris, A. A. Mostofi, P. D. Haynes, O. Dieguez,    |
 |   M. C. Payne.                                                |
 |   Phys. Rev. B 66 035119 (2002).                              |
 |                                                               |
 |  "Preconditioned iterative minimization for linear-scaling    |
 |   electronic structure calculations".                         |
 |   A. A. Mostofi, P. D. Haynes, C.-K. Skylaris, M. C. Payne.   |
 |   J. Chem. Phys. 119(17), pp.8842-8848 (2003).                |
 |                                                               |
 |  "Total-energy calculations on a real space grid with         |
 |   localized functions and a plane-wave basis".                |
 |   A. A. Mostofi, C.-K. Skylaris, P. D. Haynes, M. C. Payne.   |
 |   Comput. Phys. Commun. 147, pp.788-802 (2002).               |
 |                                                               |
 |  "Accurate kinetic energy evaluation in electronic structure  |
 |   calculations with localized functions on real space grids"  |
 |   C.-K. Skylaris, A. A. Mostofi, P. D. Haynes, C. J. Pickard, |
 |   M. C. Payne.                                                |
 |   Comput. Phys. Commun. 140, pp.315-322 (2001).               |
 |                                                               |
 |  "Accurate ionic forces and geometry optimization in linear-  |
 |   scaling density-functional theory with local orbitals"      |
 |   N. D. M. Hine, M. Robinson, P. D. Haynes, C.-K. Skylaris,   |
 |   M. C. Payne, and A. A. Mostofi.                             |
 |   Phys. Rev. B 83 195102 (2011).                              |
 |                                                               |
 +---------------------------------------------------------------+

Job started: 20-02-2020 21:54 (-0000)
 
Reading parameters from file "host_21761.dat" ...... done

If your calculation crashes here, before "Checking processes and threads..."
is displayed, then your stack size is insufficient.
If so, use "ulimit -s unlimited" at runtime.
You can disable this check with "check_stack_size F".

Checking processes and threads...
   Determining the default number of threads...
      No default threads set at compilation time: defaulting to 1.
      OpenMP library call suggests 4 threads.
      Hybrid MPI-OpenMP compilation detected.
      Number of MPI processes > 1.
      OMP_NUM_THREADS environment variable present and
      its value matches the one obtained from the OpenMP library call.
      Using this value as default.
      Default threads: 4
      Default applies to threads_max and threads_num_fftboxes.
      Settings in the input file override this default.
   ... done

   Running with 30 MPI processes.
   There are 4 MPI processes running on the same node as the root process.
   Each MPI process is using: 
               1 threads for simulation cell FFTs.
               1 threads for parallel FFT box operations.
               4 threads for loops over batched FFT box operations.
               4 threads in other parallel regions.
... done

Basic input checks...... done

Reading geometry and species blocks from file "host_21761.dat" ...
  <species_atomic_set> block not found: NGWF initialisation set to SOLVE
IS: Dielectric excluded regions:
    - NONE.
    
  Number of PPD points along a3 set to 1.  This is 
  the default value, it may have been provided also in the input file.
... done
 Writing xyz coordinates to file "host_21761.xyz" ... done


--------------------------------------------------------------------------------
---------------------------------- INPUT FILE ----------------------------------
--------------------------------------------------------------------------------

cutoff_energy       : 800 eV                                                    
xc_functional VV10                                                              
task SINGLEPOINT                                                                
write_xyz true                                                                  
output_detail VERBOSE                                                           
ngwf_threshold_orig : 0.000002                                                  
kernel_cutoff       : 1000                                                      
k_zero              : 3.5                                                       
elec_cg_max 0                                                                   
occ_mix 1.0                                                                     
dispersion 0                                                                    
maxit_ngwf_cg 40                                                                
minit_lnv 10                                                                    
maxit_lnv 10                                                                    
write_denskern T                                                                
write_tightbox_ngwfs T                                                          
charge 9                                                                        
is_implicit_solvent T                                                           
is_auto_solvation T                                                             
is_include_apolar T                                                             
is_smeared_ion_rep T                                                            
is_solvent_surf_tension 4.7624E-5 Ha/bohr**2                                    
is_apolar_scaling_factor 0.281075                                               
is_solvation_beta 1.3                                                           
is_density_threshold 0.00035                                                    
is_bulk_permittivity 78.54                                                      
is_dielectric_model fix_initial                                                 
is_smeared_ion_width 0.8                                                        
mg_defco_fd_order 8                                                             
is_bc_coarseness 10                                                             
is_bc_surface_coarseness 1                                                      
fine_grid_scale 2.0                                                             
%block species                                                                  
N   N   7 4 8.0                                                                 
H   H   1 1 8.0                                                                 
C   C   6 4 8.0                                                                 
S   S  16 9 8.0                                                                 
O   O   8 4 8.0                                                                 
%endblock species                                                               
%block species_pot                                                              
N   N_00.recpot                                                                 
H   H_04.recpot                                                                 
C   C_01.recpot                                                                 
S   S_00.recpot                                                                 
O   O_02.recpot                                                                 
%endblock species_pot                                                           
%block lattice_cart                                                             
137.614   0.000   0.000                                                         
0.000 142.646   0.000                                                           
0.000   0.000   160.855                                                         
%endblock lattice_cart                                                          
%block positions_abs                                                            
     Hash =  -000003603055729192286443
%endblock positions_abs                                                         

--------------------------------------------------------------------------------
-------------------------------- END INPUT FILE --------------------------------
--------------------------------------------------------------------------------


 
 ESDF WARNING(1): "kernelcutoff" (esdf_physical) has no units. Assume "bohr".
 ESDF WARNING(2): "kzero" (esdf_physical) has no units. Assume "1/bohr".
 ESDF WARNING(3
 ): "issmearedionwidth" (esdf_physical) has no units. Assume "bohr".
<<<<<<<<<<<<<<<<<<<<<<<<<<<<<<<<< Full system >>>>>>>>>>>>>>>>>>>>>>>>>>>>>>>>>>
<<<<<<<<<<<<<<<<<<<<<<<<< Pseudopotential information >>>>>>>>>>>>>>>>>>>>>>>>>>
File: N_00.recpot [ 2001 points up to Gmax=  52.9 (1/bohr)]
  Atomic number:  7;  ionic charge:  5.000000
    Shell 1: l = 0; rc = 1.48 bohr
File: H_04.recpot [ 2001 points up to Gmax=  52.9 (1/bohr)]
  Atomic number:  1;  ionic charge:  1.000000
    Local potential
File: C_01.recpot [ 2001 points up to Gmax=  52.9 (1/bohr)]
  Atomic number:  6;  ionic charge:  4.000000
    Shell 1: l = 0; rc = 1.48 bohr
File: S_00.recpot [ 2001 points up to Gmax=  52.9 (1/bohr)]
  Atomic number: 16;  ionic charge:  6.000000
    Shell 1: l = 0; rc = 1.90 bohr
    Shell 2: l = 2; rc = 1.84 bohr
File: O_02.recpot [ 2001 points up to Gmax=  52.9 (1/bohr)]
  Atomic number:  8;  ionic charge:  6.000000
    Shell 1: l = 0; rc = 1.31 bohr
<<<<<<<<<<<<<<<<<<<<<<<<<<<<<<<<<<<<<<<<>>>>>>>>>>>>>>>>>>>>>>>>>>>>>>>>>>>>>>>>

-------------------------- Atom counting information ---------------------------
Symbol    Natoms    Nngwfs    Nprojs
  N        236       944       236
  H       1311      1311         0
  C        810      3240       810
  S          6        54        36
  O        239       956       239
.......   ......    ......    ......
Totals:   2602      6505      1321
--------------------------------------------------------------------------------

=============================== PSINC grid sizes ===============================
                      Simulation cell:  273 x 286 x 320
                              FFT-box:   99 x 105 x  99
                                  PPD:    7 x  11 x   1
Grid space d1=  0.504080586081a0 (KE cutoff=  29.89538Eh = 813.49465eV)
Grid space d2=  0.498762237762a0 (KE cutoff=  30.53633Eh = 830.93588eV)
Grid space d3=  0.502671875000a0 (KE cutoff=  30.06317Eh = 818.06059eV)
================================================================================

********************* Fourier parallelisation information **********************
       Coarse grid (whole simulation cell) dimensions:    273   286   320
          Real-space ('12') slabs/node (min max mean):     10    11    10
         Recip-space ('23') slabs/node (min max mean):      4     5     4
********************************************************************************

********************* Fourier parallelisation information **********************
       Double grid (whole simulation cell) dimensions:    546   572   640
          Real-space ('12') slabs/node (min max mean):     21    22    21
         Recip-space ('23') slabs/node (min max mean):      9    10     9
********************************************************************************
ONETEP fine grid is 546 x 572 x 640 gridpoints, 137.6140 x 142.6460 x 160.8550 bohr.
FD multigrid is     545 x 569 x 633 gridpoints, 137.3620 x 141.8979 x 159.0956 bohr.


Calculating local pseudopotential in open BC on a radial grid ...
Discrepancy between calculated realspace psloc and -Z/x on [5a0,255.264a0]:
max |rel. diff| # avg |rel. diff| #  avg rel. diff #  f # pseudopotential file
 0.000296759711    0.000009439468   0.000000085927   54  'N_00.recpot'
 0.000490027943    0.000021572324  -0.000000031900   54  'H_04.recpot'
 0.000320795249    0.000014598087   0.000000111901   54  'C_01.recpot'
 0.000388730920    0.000016096375   0.000000514750   54  'S_00.recpot'
 0.000828383344    0.000035421288   0.000000087443   54  'O_02.recpot'
... done

Atom SCF Calculation for N  : Z (AE atom) =   7 : Z (PS atom) =   5
Config String:
Orbitals (num,occ):  2     2.00 3.00
Orbitals   (num,l):  2        0    1
Real-space Grid (nr,dr,rmax): 1203    0.0066555740    8.0000000000
Spherical Bessel Basis (nsws,lmax,cutoff):   47    1  176.3951722778
Confining potential (l,width,scale):  0    3.0000000000  100.0000000000
Confining potential (l,width,scale):  1    3.0000000000  100.0000000000
  1         -4.7366890484   -3.4501654188    7.0523828109   -1.9619316308
  2         -9.7225420322   -2.0763080851    8.3068355706   -2.2908832437
  3         -9.7134243553   -2.1270543915    8.2534567806   -2.2819809971
  4         -9.7235185949   -2.1427582218    8.2369947390   -2.2802814234
  5         -9.7258373845   -2.1477905863    8.2317116314   -2.2798536235
  6         -9.7268932325   -2.1503512400    8.2290229806   -2.2796830099
  7         -9.7273189469   -2.1516634231    8.2276451699   -2.2796169657
  8         -9.7274675212   -2.1523365544    8.2269384796   -2.2795940092
  9         -9.7275041773   -2.1526817003    8.2265762312   -2.2795881371
 10         -9.7275008637   -2.1528585007    8.2263907413   -2.2795884060
 11         -9.7274868305   -2.1529489544    8.2262958841   -2.2795903922
 12         -9.7274755655   -2.1529859230    8.2262571347   -2.2795920452
 13         -9.7274662327   -2.1530083995    8.2262335832   -2.2795934369
 14         -9.7274589439   -2.1530220534    8.2262192809   -2.2795945372
 15         -9.7274534633   -2.1530303399    8.2262106039   -2.2795953734
 16         -9.7274494492   -2.1530353634    8.2262053452   -2.2795959920
 17         -9.7274465654   -2.1530384053    8.2262021621   -2.2795964406
 18         -9.7274445237   -2.1530402447    8.2262002378   -2.2795967611
 19         -9.7274430947   -2.1530413553    8.2261990762   -2.2795969874
 20         -9.7274421038   -2.1530420249    8.2261983762   -2.2795971458
 21         -9.7274414219   -2.1530424277    8.2261979551   -2.2795972557
 22         -9.7274409555   -2.1530426696    8.2261977024   -2.2795973315
 23         -9.7274406382   -2.1530428144    8.2261975510   -2.2795973835
 24         -9.7274404232   -2.1530429010    8.2261974606   -2.2795974190
 25         -9.7274402783   -2.1530429525    8.2261974067   -2.2795974432
 26         -9.7274401808   -2.1530429831    8.2261973748   -2.2795974596
Atom SCF converged after  26 iterations to a total energy of     -9.72744018

Atom SCF Calculation for H  : Z (AE atom) =   1 : Z (PS atom) =   1
Config String:
Orbitals (num,occ):  1     1.00
Orbitals   (num,l):  1        0
Real-space Grid (nr,dr,rmax): 1203    0.0066555740    8.0000000000
Spherical Bessel Basis (nsws,lmax,cutoff):   47    0  176.3951722778
Confining potential (l,width,scale):  0    3.0000000000  100.0000000000
  1         -0.3178661827   -0.2469879004    0.2820953124   -0.2487802071
  2         -0.3961824611   -0.2455070831    0.2902209900   -0.2567664324
  3         -0.4406462424   -0.2424227551    0.2948173255   -0.2622129794
  4         -0.4569739054   -0.2416771342    0.2960118236   -0.2639986016
  5         -0.4627745219   -0.2416114401    0.2961916694   -0.2644992007
  6         -0.4648634749   -0.2416666130    0.2961598921   -0.2646237065
  7         -0.4656347011   -0.2417155160    0.2961132802   -0.2646490719
  8         -0.4659271144   -0.2417438448    0.2960836537   -0.2646515522
  9         -0.4660407254   -0.2417580788    0.2960682004   -0.2646501482
 10         -0.4660857867   -0.2417647566    0.2960608087   -0.2646488305
 11         -0.4661039568   -0.2417677717    0.2960574330   -0.2646480606
 12         -0.4661113773   -0.2417691018    0.2960559329   -0.2646476727
 13         -0.4661144368   -0.2417696800    0.2960552775   -0.2646474903
 14         -0.4661157072   -0.2417699291    0.2960549942   -0.2646474079
 15         -0.4661162374   -0.2417700356    0.2960548727   -0.2646473715
 16         -0.4661164596   -0.2417700810    0.2960548208   -0.2646473556
 17         -0.4661165529   -0.2417701003    0.2960547987   -0.2646473488
Atom SCF converged after  17 iterations to a total energy of     -0.46611655

Atom SCF Calculation for C  : Z (AE atom) =   6 : Z (PS atom) =   4
Config String:
Orbitals (num,occ):  2     2.00 2.00
Orbitals   (num,l):  2        0    1
Real-space Grid (nr,dr,rmax): 1203    0.0066555740    8.0000000000
Spherical Bessel Basis (nsws,lmax,cutoff):   47    1  176.3951722778
Confining potential (l,width,scale):  0    3.0000000000  100.0000000000
Confining potential (l,width,scale):  1    3.0000000000  100.0000000000
  1         -5.2812238291   -1.3293161250    4.5135249990   -1.4716766231
  2         -5.3996591362   -1.3542148509    4.4876064308   -1.4645117417
  3         -5.4111847148   -1.3757224423    4.4645718036   -1.4593107263
  4         -5.4199203659   -1.3833334895    4.4563636676   -1.4579885221
  5         -5.4226876204   -1.3865104950    4.4529090432   -1.4575385943
  6         -5.4235070726   -1.3878131251    4.4514866831   -1.4573882877
  7         -5.4237271252   -1.3883401868    4.4509094528   -1.4573411661
  8         -5.4237693051   -1.3885521813    4.4506766230   -1.4573281030
  9         -5.4237656430   -1.3886371046    4.4505830704   -1.4573255254
 10         -5.4237547927   -1.3886709976    4.4505456041   -1.4573257244
 11         -5.4237478594   -1.3886817763    4.4505336403   -1.4573262476
 12         -5.4237429748   -1.3886873440    4.4505274417   -1.4573266921
 13         -5.4237397042   -1.3886902144    4.4505242350   -1.4573270222
 14         -5.4237375865   -1.3886916908    4.4505225792   -1.4573272507
 15         -5.4237362473   -1.3886924482    4.4505217259   -1.4573274021
 16         -5.4237354152   -1.3886928356    4.4505212873   -1.4573274996
 17         -5.4237349050   -1.3886930331    4.4505210623   -1.4573275610
 18         -5.4237345954   -1.3886931333    4.4505209473   -1.4573275991
 19         -5.4237344092   -1.3886931840    4.4505208887   -1.4573276224
 20         -5.4237342980   -1.3886932094    4.4505208590   -1.4573276366
 21         -5.4237342320   -1.3886932221    4.4505208440   -1.4573276451
Atom SCF converged after  21 iterations to a total energy of     -5.42373423

Atom SCF Calculation for S  : Z (AE atom) =  16 : Z (PS atom) =   6
Config String:
Orbitals (num,occ):  3     2.00 4.00 0.00
Orbitals   (num,l):  3        0    1    2
Real-space Grid (nr,dr,rmax): 1203    0.0066555740    8.0000000000
Spherical Bessel Basis (nsws,lmax,cutoff):   47    2  176.3951722778
Confining potential (l,width,scale):  0    3.0000000000  100.0000000000
Confining potential (l,width,scale):  1    3.0000000000  100.0000000000
Confining potential (l,width,scale):  2    3.0000000000  100.0000000000
  1        -12.4916237786   -1.0485914554   10.1554312477   -2.4822447765
  2         -9.9747083603   -2.4807597367    8.3138131863   -2.0618837268
  3        -10.1811370131   -2.3153496392    8.4906092179   -2.1137756843
  4        -10.1856385898   -2.2984912006    8.5093862195   -2.1218167101
  5        -10.1891317560   -2.2894783333    8.5195006030   -2.1261392389
  6        -10.1911142562   -2.2849160124    8.5246320974   -2.1283733378
  7        -10.1921506977   -2.2826473329    8.5271859473   -2.1295140514
  8        -10.1926851273   -2.2815219985    8.5284534218   -2.1300957983
  9        -10.1929632671   -2.2809620806    8.5290843811   -2.1303933136
 10        -10.1931100895   -2.2806822783    8.5293998452   -2.1305460626
 11        -10.1931885828   -2.2805418782    8.5295582201   -2.1306248009
 12        -10.1932309625   -2.2804711729    8.5296380158   -2.1306655459
 13        -10.1932540142   -2.2804354512    8.5296783476   -2.1306867097
 14        -10.1932666242   -2.2804173494    8.5296987927   -2.1306977435
 15        -10.1932735535   -2.2804081489    8.5297091868   -2.1307035175
 16        -10.1932773756   -2.2804034581    8.5297144867   -2.1307065505
 17        -10.1932794908   -2.2804010586    8.5297171976   -2.1307081499
 18        -10.1932806648   -2.2803998268    8.5297185890   -2.1307089965
 19        -10.1932813181   -2.2803991920    8.5297193057   -2.1307094466
 20        -10.1932816826   -2.2803988634    8.5297196763   -2.1307096867
 21        -10.1932818864   -2.2803986926    8.5297198688   -2.1307098154
 22        -10.1932820006   -2.2803986034    8.5297199692   -2.1307098847
 23        -10.1932820648   -2.2803985565    8.5297200219   -2.1307099221
Atom SCF converged after  23 iterations to a total energy of    -10.19328206

Atom SCF Calculation for O  : Z (AE atom) =   8 : Z (PS atom) =   6
Config String:
Orbitals (num,occ):  2     2.00 4.00
Orbitals   (num,l):  2        0    1
Real-space Grid (nr,dr,rmax): 1203    0.0066555740    8.0000000000
Spherical Bessel Basis (nsws,lmax,cutoff):   47    1  176.3951722778
Confining potential (l,width,scale):  0    3.0000000000  100.0000000000
Confining potential (l,width,scale):  1    3.0000000000  100.0000000000
  1         -1.9497477053   -7.5870966769   10.1554312477   -2.4822447765
  2        -15.9466298225   -3.1778351734   13.6353006614   -3.2931224232
  3        -16.0387051750   -3.0909030611   13.7305651010   -3.3194522996
  4        -15.9025031450   -3.1083023605   13.7128101414   -3.3180850501
  5        -15.8912953362   -3.1033022259   13.7185404266   -3.3206942093
  6        -15.8793912992   -3.1043100674   13.7175820250   -3.3209366960
  7        -15.8748748605   -3.1043975610   13.7175531476   -3.3211845618
  8        -15.8725354084   -3.1044655610   13.7175148333   -3.3213149154
  9        -15.8713193866   -3.1045129589   13.7174824743   -3.3213832909
 10        -15.8706863385   -3.1045436851   13.7174593895   -3.3214192053
 11        -15.8703562731   -3.1045627330   13.7174442347   -3.3214381098
 12        -15.8701839150   -3.1045741887   13.7174347673   -3.3214480859
 13        -15.8700937727   -3.1045809294   13.7174290448   -3.3214533647
 14        -15.8700465571   -3.1045848305   13.7174256662   -3.3214561658
 15        -15.8700217888   -3.1045870593   13.7174237063   -3.3214576563
 16        -15.8700087767   -3.1045883194   13.7174225849   -3.3214584516
 17        -15.8700019307   -3.1045890258   13.7174219502   -3.3214588771
 18        -15.8699983237   -3.1045894190   13.7174215942   -3.3214591053
 19        -15.8699964206   -3.1045896366   13.7174213960   -3.3214592281
 20        -15.8699954151   -3.1045897563   13.7174212864   -3.3214592942
 21        -15.8699948832   -3.1045898219   13.7174212260   -3.3214593299
 22        -15.8699946014   -3.1045898577   13.7174211930   -3.3214593493
 23        -15.8699944520   -3.1045898771   13.7174211750   -3.3214593597
 24        -15.8699943726   -3.1045898877   13.7174211652   -3.3214593654
Atom SCF converged after  24 iterations to a total energy of    -15.86999437

========================== Calculation in vacuum ==============================
= Adjusting the following parameters: 
= is_implicit_solvent: F
= is_include_apolar: F
= write_denskern: T
= write_tightbox_ngwfs: T
= restart read filename prefix: ""
= restart write filename prefix: "vacuum_"
===============================================================================

Determining parallel strategy ...
... using space-filling curve
... NGWF load balancing: max    217;  min    216;  average    217
... Projector load balancing: max     47;  min     43;  average     44
... done
Calculating direct Ion-Ion energy ...
Ion-Ion Energy        :    826980.63495871820487
Basis initialisation ...... NGWF spheres initialised
... Projector spheres initialised
... NGWF tight boxes initialised
... Tight-boxes gathered
... NGWF basis size (local,global):    1300059  38993955
... Nonlocal pseudopotential projector initialisation
... done

========================== Sparse matrix information ===========================
                        Overlap matrix filling:   6.65%
                        Density kernel filling: 100.00%
              NGWF-Proj overlap matrix filling:   1.76%
                    Hamiltonian matrix filling:   7.51%
                  NGWF diagonal matrix filling:   0.05%
                             KS matrix filling: 100.00% 
                           KSKS matrix filling: 100.00% 
================================================================================

Sparse matrix initialisation ... done

Generating smeared ion density ... done
Smeared ion self correction:     -14457.169564
Smeared ion non-self correction: -826932.724011
NGWF initialisation ...... done
============ Calculation of NGWF S^-1 using Hotelling algorithm ================ 
         Iteration  |  Frobenius norm and Maximum abs value    (of I-S*S_n^-1)   
               1       0.78456299E+02     0.98260758E+00
               2       0.76585221E+02     0.96565160E+00
               3       0.73556247E+02     0.93297597E+00
               4       0.69253958E+02     0.87212348E+00
               5       0.63903973E+02     0.76557386E+00
               6       0.57911084E+02     0.70092958E+00
               7       0.51910331E+02     0.66961704E+00
               8       0.46357239E+02     0.64360441E+00
               9       0.40227681E+02     0.60219458E+00
              10       0.31862605E+02     0.53178614E+00
              11       0.21236188E+02     0.42485794E+00
              12       0.10709421E+02     0.28373288E+00
              13       0.34576215E+01     0.12881760E+00
              14       0.52972801E+00     0.30124580E-01
              15       0.24783075E-01     0.25200396E-02
              16       0.13310689E-03     0.19878220E-04
              17       0.67283713E-08     0.12673520E-08
              18       0.86806639E-13     0.44408921E-14
================================================================================
Calculating local pseudopotential in open BC on the fine real space grid ...
... done

MG BCs: +ve charge blocks (gridpoints):     20857 (   16412725).
MG BCs: -ve charge blocks (gridpoints):      8134 (    1097277).
MG BCs:     Elided blocks (gridpoints):    179783 (  178786463).
MG BCs: Computational effort saved:  99.9852%.
MG BCs: Charge after coarse-graining:           -9.0002328.
MG DL_MG: Calling solver with defect correction order = 8
MG DL_MG: Solver finished
MG Hartree energy from (\int phi*rho dr):              1452.635757
MG Hartree energy from (\int eps (grad phi)^2 dr):     1452.022080
MG Discrepancy due to finite box and discretization:     -0.613678 (  -0.04225%)
MG Correction to account for finite box:                  0.463784
MG Remaining discrepancy, due to discretization:         -0.149893 (  -0.01032%)
Up spin density kernel initialisation ... 
======= Optimisation of K by Palser-Manolopoulos canonical purification ======== 
         Iteration  |  Band structure energy |    c_n   
               1       -2576.92707478128705    0.5268909
               2       -2752.41028581798855    0.5172372
               3       -2932.23722510954940    0.5159468
               4       -3082.16110653533451    0.5302853
               5       -3173.92273845985710    0.5676333
               6       -3211.98788208959832    0.6126144
               7       -3224.94164598473799    0.6220412
               8       -3230.67411238719251    0.6185565
               9       -3233.48081735255846    0.6317687
              10       -3234.63746048515441    0.6595489
              11       -3235.07375369346710    0.6756979
              12       -3235.26245433241547    0.6705101
              13       -3235.35948504044018    0.6328387
              14       -3235.41626779866419    0.5453379
              15       -3235.45151851613809    0.4158796
              16       -3235.46005033934398    0.3274647
              17       -3235.46074340276118    0.3153247
              18       -3235.46100805687274    0.3362874
              19       -3235.46123945250019    0.3635677
              20       -3235.46148204138490    0.3954491
              21       -3235.46173426336827    0.4323714
              22       -3235.46196405180672    0.4689550
              23       -3235.46210879687351    0.4929156
              24       -3235.46214995240825    0.4996145
              25       -3235.46215251245030    0.4999995
              26       -3235.46215252159527    0.4999995
Termination criterion satisfied: band energy change below threshold.
Final occupancy bounds: [    0.00000000000003:    1.00000000000000]
Closest occupancy to 0.5:     1.00000000000000
================================================================================
... done

Writing density kernel to file "host_21761.vacuum_dkn" ... done

>>> Optimising kernel for current NGWFs:
   Initial electron number for spin 1:    7192.00000000
     Final electron number for spin 1:    7192.00000000

=================== Penalty functional idempotency correction ==================
 RMS occupancy error at iteration   1:  0.000000 (step -0.5000 Ne1=   7192.0000)
            Final RMS occupancy error   :  0.000000 (Ne1=   7192.0000)
               Final occupancy bounds   : [ -0.0000,  1.0000]
================================================================================

................................................................................
<<<<<<<<<<<<<< LNV (Original version) density kernel optimisation >>>>>>>>>>>>>>
~~~~~~~~~~~~~~~~~~~~~~~~~~~~~~~~~~~~~~~~~~~~~~~~~~~~~~~~~~~~~~~~~~~~~~~~~~~~~~~~
   iter  |      energy (Eh)       | rms gradient |  commutator  |   dE (Eh)
MG BCs: +ve charge blocks (gridpoints):     31380 (   17502103).
MG BCs: -ve charge blocks (gridpoints):      8421 (    1125727).
MG BCs:     Elided blocks (gridpoints):    169252 (  177668635).
MG BCs: Computational effort saved:  99.9797%.
MG BCs: Charge after coarse-graining:           -9.0009809.
MG DL_MG: Calling solver with defect correction order = 8
MG DL_MG: Solver finished
MG Hartree energy from (\int phi*rho dr):              1416.066506
MG Hartree energy from (\int eps (grad phi)^2 dr):     1415.404567
MG Discrepancy due to finite box and discretization:     -0.661940 (  -0.04674%)
MG Correction to account for finite box:                  0.470702
MG Remaining discrepancy, due to discretization:         -0.191238 (  -0.01350%)
      ideal mu1:      -0.729275990412
             Q0:  -11527.308007720276
             G0:    -146.487485348461
   RMS gradient:       0.001860599762
MG BCs: +ve charge blocks (gridpoints):     31372 (   17579312).
MG BCs: -ve charge blocks (gridpoints):      8355 (    1109024).
MG BCs:     Elided blocks (gridpoints):    169264 (  177608129).
MG BCs: Computational effort saved:  99.9798%.
MG BCs: Charge after coarse-graining:           -9.0010028.
MG DL_MG: Calling solver with defect correction order = 8
MG DL_MG: Solver finished
MG Hartree energy from (\int phi*rho dr):              1435.534818
MG Hartree energy from (\int eps (grad phi)^2 dr):     1434.889773
MG Discrepancy due to finite box and discretization:     -0.645045 (  -0.04493%)
MG Correction to account for finite box:                  0.469722
MG Remaining discrepancy, due to discretization:         -0.175323 (  -0.01221%)
     Trial step:       0.500000000000
             Q1:  -11538.545288352994
 Quadratic coef:      62.006462041512
 Linear coef   :     -73.243742674231
           Qmin:  -11548.937389821360
Quadratic minimum step length (  0.295306893277) accepted
    Initial Ne1:    7192.00000000
      Final Ne1:    7192.00000000

=================== Penalty functional idempotency correction ==================
 RMS occupancy error at iteration   1:  0.003483 (step -0.4882 Ne1=   7192.0000)
 RMS occupancy error at iteration   2:  0.000026 (step -0.5000 Ne1=   7192.0000)
            Final RMS occupancy error   :  0.000000 (Ne1=   7192.0000)
               Final occupancy bounds   : [  0.0000,  1.0000]
================================================================================

    1        -1.152730800772E+04     1.8606E-03     1.6829E-03
MG BCs: +ve charge blocks (gridpoints):     31372 (   17549299).
MG BCs: -ve charge blocks (gridpoints):      8386 (    1116531).
MG BCs:     Elided blocks (gridpoints):    169262 (  177630635).
MG BCs: Computational effort saved:  99.9797%.
MG BCs: Charge after coarse-graining:           -9.0009934.
MG DL_MG: Calling solver with defect correction order = 8
MG DL_MG: Solver finished
MG Hartree energy from (\int phi*rho dr):              1419.408010
MG Hartree energy from (\int eps (grad phi)^2 dr):     1418.757023
MG Discrepancy due to finite box and discretization:     -0.650987 (  -0.04586%)
MG Correction to account for finite box:                  0.470019
MG Remaining discrepancy, due to discretization:         -0.180968 (  -0.01275%)
      ideal mu1:      -0.765487034361
             Q0:  -11549.373992022825
             G0:     -11.739609835754
   RMS gradient:       0.000522940524
MG BCs: +ve charge blocks (gridpoints):     31376 (   17565860).
MG BCs: -ve charge blocks (gridpoints):      8372 (    1111804).
MG BCs:     Elided blocks (gridpoints):    169257 (  177618801).
MG BCs: Computational effort saved:  99.9798%.
MG BCs: Charge after coarse-graining:           -9.0009976.
MG DL_MG: Calling solver with defect correction order = 8
MG DL_MG: Solver finished
MG Hartree energy from (\int phi*rho dr):              1423.865602
MG Hartree energy from (\int eps (grad phi)^2 dr):     1423.218295
MG Discrepancy due to finite box and discretization:     -0.647307 (  -0.04546%)
MG Correction to account for finite box:                  0.469538
MG Remaining discrepancy, due to discretization:         -0.177769 (  -0.01248%)
     Trial step:       0.384257005972
             Q1:  -11552.156884290976
 Quadratic coef:       1.728135058611
 Linear coef   :      -4.511027326763
           Qmin:  -11552.317825527245
Quadratic minimum step length (  0.501521523391) accepted
    Initial Ne1:    7191.99991429
      Final Ne1:    7192.00000000

=================== Penalty functional idempotency correction ==================
 RMS occupancy error at iteration   1:  0.001834 (step -0.4930 Ne1=   7192.0000)
 RMS occupancy error at iteration   2:  0.000010 (step -0.5001 Ne1=   7192.0000)
            Final RMS occupancy error   :  0.000000 (Ne1=   7192.0000)
               Final occupancy bounds   : [  0.0000,  1.0000]
================================================================================

    2        -1.154937399202E+04     5.2294E-04     4.7299E-04    -2.2066E+01
MG BCs: +ve charge blocks (gridpoints):     31376 (   17571048).
MG BCs: -ve charge blocks (gridpoints):      8364 (    1110427).
MG BCs:     Elided blocks (gridpoints):    169257 (  177614990).
MG BCs: Computational effort saved:  99.9798%.
MG BCs: Charge after coarse-graining:           -9.0009987.
MG DL_MG: Calling solver with defect correction order = 8
MG DL_MG: Solver finished
MG Hartree energy from (\int phi*rho dr):              1425.266403
MG Hartree energy from (\int eps (grad phi)^2 dr):     1424.620137
MG Discrepancy due to finite box and discretization:     -0.646266 (  -0.04534%)
MG Correction to account for finite box:                  0.469405
MG Remaining discrepancy, due to discretization:         -0.176861 (  -0.01241%)
      ideal mu1:      -0.786234521749
             Q0:  -11552.353621987510
             G0:      -1.876822049024
   RMS gradient:       0.000209369868
MG BCs: +ve charge blocks (gridpoints):     31381 (   17571095).
MG BCs: -ve charge blocks (gridpoints):      8361 (    1111148).
MG BCs:     Elided blocks (gridpoints):    169252 (  177614222).
MG BCs: Computational effort saved:  99.9798%.
MG BCs: Charge after coarse-graining:           -9.0009984.
MG DL_MG: Calling solver with defect correction order = 8
MG DL_MG: Solver finished
MG Hartree energy from (\int phi*rho dr):              1423.744937
MG Hartree energy from (\int eps (grad phi)^2 dr):     1423.098988
MG Discrepancy due to finite box and discretization:     -0.645950 (  -0.04537%)
MG Correction to account for finite box:                  0.469218
MG Remaining discrepancy, due to discretization:         -0.176731 (  -0.01241%)
     Trial step:       0.438991069395
             Q1:  -11552.826179556316
 Quadratic coef:       0.351350549559
 Linear coef   :      -0.823908118365
           Qmin:  -11552.836632892402
Quadratic minimum step length (  0.514711456148) accepted
    Initial Ne1:    7191.99996305
      Final Ne1:    7192.00000000

=================== Penalty functional idempotency correction ==================
 RMS occupancy error at iteration   1:  0.000608 (step -0.4976 Ne1=   7192.0000)
 RMS occupancy error at iteration   2:  0.000001 (step -0.5000 Ne1=   7192.0000)
            Final RMS occupancy error   :  0.000000 (Ne1=   7192.0000)
               Final occupancy bounds   : [  0.0000,  1.0000]
================================================================================

    3        -1.155235362199E+04     2.0937E-04     1.8937E-04    -2.9796E+00
MG BCs: +ve charge blocks (gridpoints):     31381 (   17571001).
MG BCs: -ve charge blocks (gridpoints):      8363 (    1111317).
MG BCs:     Elided blocks (gridpoints):    169252 (  177614147).
MG BCs: Computational effort saved:  99.9798%.
MG BCs: Charge after coarse-graining:           -9.0009984.
MG DL_MG: Calling solver with defect correction order = 8
MG DL_MG: Solver finished
MG Hartree energy from (\int phi*rho dr):              1423.489180
MG Hartree energy from (\int eps (grad phi)^2 dr):     1422.843277
MG Discrepancy due to finite box and discretization:     -0.645904 (  -0.04537%)
MG Correction to account for finite box:                  0.469187
MG Remaining discrepancy, due to discretization:         -0.176717 (  -0.01241%)
      ideal mu1:      -0.787178935851
             Q0:  -11552.841344980057
             G0:      -0.465637762947
   RMS gradient:       0.000104323339
MG BCs: +ve charge blocks (gridpoints):     31377 (   17571810).
MG BCs: -ve charge blocks (gridpoints):      8359 (    1111146).
MG BCs:     Elided blocks (gridpoints):    169256 (  177613509).
MG BCs: Computational effort saved:  99.9798%.
MG BCs: Charge after coarse-graining:           -9.0009985.
MG DL_MG: Calling solver with defect correction order = 8
MG DL_MG: Solver finished
MG Hartree energy from (\int phi*rho dr):              1424.519310
MG Hartree energy from (\int eps (grad phi)^2 dr):     1423.873440
MG Discrepancy due to finite box and discretization:     -0.645870 (  -0.04534%)
MG Correction to account for finite box:                  0.469063
MG Remaining discrepancy, due to discretization:         -0.176807 (  -0.01241%)
     Trial step:       0.475345908328
             Q1:  -11552.944989824085
 Quadratic coef:       0.117694161352
 Linear coef   :      -0.221339005380
           Qmin:  -11552.945409095770
Quadratic minimum step length (  0.446974554013) accepted
    Initial Ne1:    7191.99999190
      Final Ne1:    7192.00000000

=================== Penalty functional idempotency correction ==================
 RMS occupancy error at iteration   1:  0.000201 (step -0.4992 Ne1=   7192.0000)
            Final RMS occupancy error   :  0.000000 (Ne1=   7192.0000)
               Final occupancy bounds   : [ -0.0000,  1.0000]
================================================================================

    4        -1.155284134498E+04     1.0432E-04     9.4358E-05    -4.8772E-01
MG BCs: +ve charge blocks (gridpoints):     31377 (   17571769).
MG BCs: -ve charge blocks (gridpoints):      8359 (    1111190).
MG BCs:     Elided blocks (gridpoints):    169256 (  177613506).
MG BCs: Computational effort saved:  99.9798%.
MG BCs: Charge after coarse-graining:           -9.0009985.
MG DL_MG: Calling solver with defect correction order = 8
MG DL_MG: Solver finished
MG Hartree energy from (\int phi*rho dr):              1424.457660
MG Hartree energy from (\int eps (grad phi)^2 dr):     1423.811789
MG Discrepancy due to finite box and discretization:     -0.645872 (  -0.04534%)
MG Correction to account for finite box:                  0.469071
MG Remaining discrepancy, due to discretization:         -0.176801 (  -0.01241%)
      ideal mu1:      -0.787530737071
             Q0:  -11552.945914279786
             G0:      -0.109433059916
   RMS gradient:       0.000050737560
MG BCs: +ve charge blocks (gridpoints):     31375 (   17571959).
MG BCs: -ve charge blocks (gridpoints):      8361 (    1110984).
MG BCs:     Elided blocks (gridpoints):    169258 (  177613522).
MG BCs: Computational effort saved:  99.9798%.
MG BCs: Charge after coarse-graining:           -9.0009984.
MG DL_MG: Calling solver with defect correction order = 8
MG DL_MG: Solver finished
MG Hartree energy from (\int phi*rho dr):              1424.813144
MG Hartree energy from (\int eps (grad phi)^2 dr):     1424.167138
MG Discrepancy due to finite box and discretization:     -0.646006 (  -0.04534%)
MG Correction to account for finite box:                  0.469059
MG Remaining discrepancy, due to discretization:         -0.176947 (  -0.01242%)
     Trial step:       0.460941997844
             Q1:  -11552.973414679291
 Quadratic coef:       0.022941893763
 Linear coef   :      -0.050442293268
           Qmin:  -11552.973641120652
Quadratic minimum step length (  0.506736097608) accepted
    Initial Ne1:    7192.00182425
      Final Ne1:    7192.00000000

=================== Penalty functional idempotency correction ==================
 RMS occupancy error at iteration   1:  0.000073 (step -0.4997 Ne1=   7192.0000)
            Final RMS occupancy error   :  0.000000 (Ne1=   7192.0000)
               Final occupancy bounds   : [ -0.0000,  1.0000]
================================================================================

    5        -1.155294591428E+04     5.0738E-05     4.5891E-05    -1.0457E-01
MG BCs: +ve charge blocks (gridpoints):     31375 (   17572003).
MG BCs: -ve charge blocks (gridpoints):      8361 (    1110959).
MG BCs:     Elided blocks (gridpoints):    169258 (  177613503).
MG BCs: Computational effort saved:  99.9798%.
MG BCs: Charge after coarse-graining:           -9.0009984.
MG DL_MG: Calling solver with defect correction order = 8
MG DL_MG: Solver finished
MG Hartree energy from (\int phi*rho dr):              1424.848460
MG Hartree energy from (\int eps (grad phi)^2 dr):     1424.202440
MG Discrepancy due to finite box and discretization:     -0.646020 (  -0.04534%)
MG Correction to account for finite box:                  0.469058
MG Remaining discrepancy, due to discretization:         -0.176962 (  -0.01242%)
      ideal mu1:      -0.787326002142
             Q0:  -11552.973701882176
             G0:      -0.033356191987
   RMS gradient:       0.000028037986
MG BCs: +ve charge blocks (gridpoints):     31376 (   17571561).
MG BCs: -ve charge blocks (gridpoints):      8360 (    1111177).
MG BCs:     Elided blocks (gridpoints):    169257 (  177613727).
MG BCs: Computational effort saved:  99.9798%.
MG BCs: Charge after coarse-graining:           -9.0009983.
MG DL_MG: Calling solver with defect correction order = 8
MG DL_MG: Solver finished
MG Hartree energy from (\int phi*rho dr):              1424.192889
MG Hartree energy from (\int eps (grad phi)^2 dr):     1423.546873
MG Discrepancy due to finite box and discretization:     -0.646016 (  -0.04536%)
MG Correction to account for finite box:                  0.469055
MG Remaining discrepancy, due to discretization:         -0.176961 (  -0.01243%)
     Trial step:       0.483296957586
             Q1:  -11552.984253151808
 Quadratic coef:       0.005569676472
 Linear coef   :      -0.016120946104
           Qmin:  -11552.985367052703
Quadratic minimum step length (  0.699430590322) accepted
    Initial Ne1:    7192.00115922
      Final Ne1:    7192.00000000

=================== Penalty functional idempotency correction ==================
 RMS occupancy error at iteration   1:  0.000045 (step -0.4996 Ne1=   7192.0000)
            Final RMS occupancy error   :  0.000000 (Ne1=   7192.0000)
               Final occupancy bounds   : [ -0.0000,  1.0000]
================================================================================

    6        -1.155297370188E+04     2.8038E-05     2.5360E-05    -2.7788E-02
MG BCs: +ve charge blocks (gridpoints):     31377 (   17571365).
MG BCs: -ve charge blocks (gridpoints):      8360 (    1111292).
MG BCs:     Elided blocks (gridpoints):    169256 (  177613808).
MG BCs: Computational effort saved:  99.9798%.
MG BCs: Charge after coarse-graining:           -9.0009982.
MG DL_MG: Calling solver with defect correction order = 8
MG DL_MG: Solver finished
MG Hartree energy from (\int phi*rho dr):              1423.898898
MG Hartree energy from (\int eps (grad phi)^2 dr):     1423.252884
MG Discrepancy due to finite box and discretization:     -0.646014 (  -0.04537%)
MG Correction to account for finite box:                  0.469054
MG Remaining discrepancy, due to discretization:         -0.176960 (  -0.01243%)
      ideal mu1:      -0.787040668028
             Q0:  -11552.985378531157
             G0:      -0.018923207974
   RMS gradient:       0.000021147064
MG BCs: +ve charge blocks (gridpoints):     31377 (   17571932).
MG BCs: -ve charge blocks (gridpoints):      8360 (    1110990).
MG BCs:     Elided blocks (gridpoints):    169256 (  177613543).
MG BCs: Computational effort saved:  99.9798%.
MG BCs: Charge after coarse-graining:           -9.0009984.
MG DL_MG: Calling solver with defect correction order = 8
MG DL_MG: Solver finished
MG Hartree energy from (\int phi*rho dr):              1424.548891
MG Hartree energy from (\int eps (grad phi)^2 dr):     1423.902924
MG Discrepancy due to finite box and discretization:     -0.645967 (  -0.04535%)
MG Correction to account for finite box:                  0.469037
MG Remaining discrepancy, due to discretization:         -0.176930 (  -0.01242%)
     Trial step:       0.581405775982
             Q1:  -11552.990106686950
 Quadratic coef:       0.006273906623
 Linear coef   :      -0.011002062416
           Qmin:  -11552.990201896593
Quadratic minimum step length (  0.509783060266) accepted
    Initial Ne1:    7192.00034398
      Final Ne1:    7192.00000000

=================== Penalty functional idempotency correction ==================
 RMS occupancy error at iteration   1:  0.000003 (step -0.5000 Ne1=   7192.0000)
            Final RMS occupancy error   :  0.000000 (Ne1=   7192.0000)
               Final occupancy bounds   : [  0.0000,  1.0000]
================================================================================

    7        -1.155298537853E+04     2.1147E-05     1.9127E-05    -1.1677E-02
MG BCs: +ve charge blocks (gridpoints):     31377 (   17571839).
MG BCs: -ve charge blocks (gridpoints):      8360 (    1111036).
MG BCs:     Elided blocks (gridpoints):    169256 (  177613590).
MG BCs: Computational effort saved:  99.9798%.
MG BCs: Charge after coarse-graining:           -9.0009984.
MG DL_MG: Calling solver with defect correction order = 8
MG DL_MG: Solver finished
MG Hartree energy from (\int phi*rho dr):              1424.468680
MG Hartree energy from (\int eps (grad phi)^2 dr):     1423.822707
MG Discrepancy due to finite box and discretization:     -0.645973 (  -0.04535%)
MG Correction to account for finite box:                  0.469039
MG Remaining discrepancy, due to discretization:         -0.176934 (  -0.01242%)
      ideal mu1:      -0.787382664279
             Q0:  -11552.990202375222
             G0:      -0.011421742113
   RMS gradient:       0.000016430826
MG BCs: +ve charge blocks (gridpoints):     31374 (   17571979).
MG BCs: -ve charge blocks (gridpoints):      8360 (    1110990).
MG BCs:     Elided blocks (gridpoints):    169259 (  177613496).
MG BCs: Computational effort saved:  99.9798%.
MG BCs: Charge after coarse-graining:           -9.0009984.
MG DL_MG: Calling solver with defect correction order = 8
MG DL_MG: Solver finished
MG Hartree energy from (\int phi*rho dr):              1424.564954
MG Hartree energy from (\int eps (grad phi)^2 dr):     1423.919032
MG Discrepancy due to finite box and discretization:     -0.645922 (  -0.04534%)
MG Correction to account for finite box:                  0.469019
MG Remaining discrepancy, due to discretization:         -0.176903 (  -0.01242%)
     Trial step:       0.544417868678
             Q1:  -11552.994876695215
 Quadratic coef:       0.001543880504
 Linear coef   :      -0.006218200498
           Qmin:  -11552.996463549149
Quadratic minimum step length (  1.096360583997) accepted
    Initial Ne1:    7192.00044355
      Final Ne1:    7192.00000000

=================== Penalty functional idempotency correction ==================
 RMS occupancy error at iteration   1:  0.000045 (step -0.4978 Ne1=   7192.0000)
            Final RMS occupancy error   :  0.000000 (Ne1=   7192.0000)
               Final occupancy bounds   : [ -0.0000,  1.0000]
================================================================================

    8        -1.155299020238E+04     1.6431E-05     1.4861E-05    -4.8238E-03
MG BCs: +ve charge blocks (gridpoints):     31375 (   17572029).
MG BCs: -ve charge blocks (gridpoints):      8358 (    1110974).
MG BCs:     Elided blocks (gridpoints):    169258 (  177613462).
MG BCs: Computational effort saved:  99.9798%.
MG BCs: Charge after coarse-graining:           -9.0009985.
MG DL_MG: Calling solver with defect correction order = 8
MG DL_MG: Solver finished
MG Hartree energy from (\int phi*rho dr):              1424.660007
MG Hartree energy from (\int eps (grad phi)^2 dr):     1424.014140
MG Discrepancy due to finite box and discretization:     -0.645867 (  -0.04533%)
MG Correction to account for finite box:                  0.468997
MG Remaining discrepancy, due to discretization:         -0.176870 (  -0.01241%)
      ideal mu1:      -0.787464735158
             Q0:  -11552.996431255480
             G0:      -0.017857181529
   RMS gradient:       0.000020642660
MG BCs: +ve charge blocks (gridpoints):     31378 (   17571887).
MG BCs: -ve charge blocks (gridpoints):      8358 (    1111130).
MG BCs:     Elided blocks (gridpoints):    169255 (  177613448).
MG BCs: Computational effort saved:  99.9798%.
MG BCs: Charge after coarse-graining:           -9.0009984.
MG DL_MG: Calling solver with defect correction order = 8
MG DL_MG: Solver finished
MG Hartree energy from (\int phi*rho dr):              1424.250957
MG Hartree energy from (\int eps (grad phi)^2 dr):     1423.605198
MG Discrepancy due to finite box and discretization:     -0.645759 (  -0.04534%)
MG Correction to account for finite box:                  0.468947
MG Remaining discrepancy, due to discretization:         -0.176812 (  -0.01241%)
     Trial step:       0.772578987834
             Q1:  -11553.004750503926
 Quadratic coef:       0.005476834785
 Linear coef   :      -0.013796083231
           Qmin:  -11553.005119298847
Quadratic minimum step length (  0.973058749826) accepted
    Initial Ne1:    7192.00165880
      Final Ne1:    7192.00000000

=================== Penalty functional idempotency correction ==================
 RMS occupancy error at iteration   1:  0.000247 (step -0.4881 Ne1=   7192.0000)
 RMS occupancy error at iteration   2:  0.000003 (step -0.5000 Ne1=   7192.0000)
            Final RMS occupancy error   :  0.000000 (Ne1=   7192.0000)
               Final occupancy bounds   : [  0.0000,  1.0000]
================================================================================

    9        -1.155299643126E+04     2.0643E-05     1.8671E-05    -6.2289E-03
MG BCs: +ve charge blocks (gridpoints):     31377 (   17571832).
MG BCs: -ve charge blocks (gridpoints):      8358 (    1111185).
MG BCs:     Elided blocks (gridpoints):    169256 (  177613448).
MG BCs: Computational effort saved:  99.9798%.
MG BCs: Charge after coarse-graining:           -9.0009984.
MG DL_MG: Calling solver with defect correction order = 8
MG DL_MG: Solver finished
MG Hartree energy from (\int phi*rho dr):              1424.141872
MG Hartree energy from (\int eps (grad phi)^2 dr):     1423.496144
MG Discrepancy due to finite box and discretization:     -0.645728 (  -0.04534%)
MG Correction to account for finite box:                  0.468932
MG Remaining discrepancy, due to discretization:         -0.176796 (  -0.01241%)
      ideal mu1:      -0.786884617529
   10        -1.155300501884E+04     2.2590E-05     2.0432E-05    -8.5876E-03
Finished density kernel iterations (  10)

Writing density kernel to file "host_21761.vacuum_dkn" ... done


>>> Density kernel optimised for the current NGWF basis:
     ~~~~~~~~~~~~~~~~~~~~~~~~~~~~~~~~~~~~~~~~~~~~~~~~~~~~~~~~~~~
     Total energy                =  -1.15530050188362E+04  Eh
     Estimated bandgap           =  -2.3485E-01  Eh
     RMS occupancy error         =   5.0123E-10
     [H,K] commutator            =   2.0432E-05
     Occupancy bounds            = [  0.000:  1.000]
     ~~~~~~~~~~~~~~~~~~~~~~~~~~~~~~~~~~~~~~~~~~~~~~~~~~~~~~~~~~~




################################################################################
########################### NGWF CG iteration  001 #############################
################################################################################
****** Reciprocal space K.E. preconditioning with k_zero =  3.5000 a0^-1 *******

>>> Checking for convergence of NGWFs:   NOT CONVERGED
  ========================================================================
         NGWF RMS gradient =  1.5758E-03 >  2.0000E-06  | above tolerance
  ========================================================================

>>> Improving NGWFs using line search:
============ Calculation of NGWF S^-1 using Hotelling algorithm ================ 
         Iteration  |  Frobenius norm and Maximum abs value    (of I-S*S_n^-1)   
               1       0.19463220E+00     0.46554388E-02
               2       0.87217168E-03     0.33838418E-04
               3       0.29339605E-07     0.20981816E-08
               4       0.13214852E-12     0.97699626E-14
================================================================================
MG BCs: +ve charge blocks (gridpoints):     30881 (   17518254).
MG BCs: -ve charge blocks (gridpoints):      8372 (    1110860).
MG BCs:     Elided blocks (gridpoints):    169754 (  177667351).
MG BCs: Computational effort saved:  99.9800%.
MG BCs: Charge after coarse-graining:           -9.0010006.
MG DL_MG: Calling solver with defect correction order = 8
MG DL_MG: Solver finished
MG Hartree energy from (\int phi*rho dr):              1392.444526
MG Hartree energy from (\int eps (grad phi)^2 dr):     1391.799501
MG Discrepancy due to finite box and discretization:     -0.645025 (  -0.04632%)
MG Correction to account for finite box:                  0.468880
MG Remaining discrepancy, due to discretization:         -0.176145 (  -0.01265%)
============ Calculation of NGWF S^-1 using Hotelling algorithm ================ 
         Iteration  |  Frobenius norm and Maximum abs value    (of I-S*S_n^-1)   
               1       0.18754922E+01     0.37940314E-01
               2       0.73085933E-01     0.21402270E-02
               3       0.14758458E-03     0.89166869E-05
               4       0.11123430E-08     0.16041324E-09
               5       0.11009781E-12     0.53290705E-14
================================================================================
------------------------------- NGWF line search -------------------------------
RMS gradient                =       0.00157578916255
Trial step length           =               0.122474
Gradient along search dir.  =       -274.10942283711
Functional at step 0        =  -11553.00501883623656
Functional at step 1        =  -11584.05207724368665
Functional predicted        =  -11664.62172074729460
Selected quadratic step     =               0.814395
--------------------------- NGWF line search finished --------------------------
                                               
Writing NGWFs to file "host_21761.vacuum_tightbox_ngwfs"....  done

>>> Optimising kernel for current NGWFs:
   Initial electron number for spin 1:    7227.30404227
     Final electron number for spin 1:    7192.00000000

=================== Penalty functional idempotency correction ==================
 RMS occupancy error at iteration   1:  0.004244 (step -0.4865 Ne1=   7192.0000)
 RMS occupancy error at iteration   2:  0.000067 (step -0.5003 Ne1=   7192.0000)
            Final RMS occupancy error   :  0.000000 (Ne1=   7192.0000)
               Final occupancy bounds   : [  0.0000,  1.0000]
================================================================================

................................................................................
<<<<<<<<<<<<<< LNV (Original version) density kernel optimisation >>>>>>>>>>>>>>
~~~~~~~~~~~~~~~~~~~~~~~~~~~~~~~~~~~~~~~~~~~~~~~~~~~~~~~~~~~~~~~~~~~~~~~~~~~~~~~~
   iter  |      energy (Eh)       | rms gradient |  commutator  |   dE (Eh)
MG BCs: +ve charge blocks (gridpoints):     25141 (   17296536).
MG BCs: -ve charge blocks (gridpoints):      8525 (    1092671).
MG BCs:     Elided blocks (gridpoints):    175499 (  177907258).
MG BCs: Computational effort saved:  99.9828%.
MG BCs: Charge after coarse-graining:           -9.0006747.
MG DL_MG: Calling solver with defect correction order = 8
MG DL_MG: Solver finished
MG Hartree energy from (\int phi*rho dr):              1236.422292
MG Hartree energy from (\int eps (grad phi)^2 dr):     1235.777034
MG Discrepancy due to finite box and discretization:     -0.645259 (  -0.05219%)
MG Correction to account for finite box:                  0.468622
MG Remaining discrepancy, due to discretization:         -0.176636 (  -0.01429%)
      ideal mu1:      -0.724298024998
             Q0:  -11663.643486353685
             G0:      -9.832546885299
   RMS gradient:       0.000482042924
MG BCs: +ve charge blocks (gridpoints):     25228 (   17325989).
MG BCs: -ve charge blocks (gridpoints):      8495 (    1084271).
MG BCs:     Elided blocks (gridpoints):    175412 (  177886205).
MG BCs: Computational effort saved:  99.9828%.
MG BCs: Charge after coarse-graining:           -9.0006677.
MG DL_MG: Calling solver with defect correction order = 8
MG DL_MG: Solver finished
MG Hartree energy from (\int phi*rho dr):              1261.757760
MG Hartree energy from (\int eps (grad phi)^2 dr):     1261.105957
MG Discrepancy due to finite box and discretization:     -0.651803 (  -0.05166%)
MG Correction to account for finite box:                  0.468352
MG Remaining discrepancy, due to discretization:         -0.183451 (  -0.01454%)
     Trial step:       0.867043680586
             Q1:  -11661.041866576299
 Quadratic coef:      11.126867418348
 Linear coef   :      -8.525247640962
           Qmin:  -11665.276467241456
Quadratic minimum step length (  0.332158271264) accepted
    Initial Ne1:    7191.99961980
      Final Ne1:    7192.00000000

=================== Penalty functional idempotency correction ==================
 RMS occupancy error at iteration   1:  0.000358 (step -0.4986 Ne1=   7192.0000)
 RMS occupancy error at iteration   2:  0.000000 (step -0.5000 Ne1=   7192.0000)
            Final RMS occupancy error   :  0.000000 (Ne1=   7192.0000)
               Final occupancy bounds   : [  0.0000,  1.0000]
================================================================================

    1        -1.166364348635E+04     4.8204E-04     4.3600E-04
MG BCs: +ve charge blocks (gridpoints):     25175 (   17307972).
MG BCs: -ve charge blocks (gridpoints):      8513 (    1089514).
MG BCs:     Elided blocks (gridpoints):    175465 (  177898979).
MG BCs: Computational effort saved:  99.9828%.
MG BCs: Charge after coarse-graining:           -9.0006719.
MG DL_MG: Calling solver with defect correction order = 8
MG DL_MG: Solver finished
MG Hartree energy from (\int phi*rho dr):              1244.819414
MG Hartree energy from (\int eps (grad phi)^2 dr):     1244.171774
MG Discrepancy due to finite box and discretization:     -0.647640 (  -0.05203%)
MG Correction to account for finite box:                  0.468495
MG Remaining discrepancy, due to discretization:         -0.179145 (  -0.01439%)
      ideal mu1:      -0.732548255874
             Q0:  -11665.239199006814
             G0:      -0.994183672509
   RMS gradient:       0.000154502508
MG BCs: +ve charge blocks (gridpoints):     25179 (   17309263).
MG BCs: -ve charge blocks (gridpoints):      8514 (    1089797).
MG BCs:     Elided blocks (gridpoints):    175461 (  177897405).
MG BCs: Computational effort saved:  99.9828%.
MG BCs: Charge after coarse-graining:           -9.0006715.
MG DL_MG: Calling solver with defect correction order = 8
MG DL_MG: Solver finished
MG Hartree energy from (\int phi*rho dr):              1246.692626
MG Hartree energy from (\int eps (grad phi)^2 dr):     1246.044683
MG Discrepancy due to finite box and discretization:     -0.647944 (  -0.05197%)
MG Correction to account for finite box:                  0.468498
MG Remaining discrepancy, due to discretization:         -0.179446 (  -0.01439%)
     Trial step:       0.536652336298
             Q1:  -11665.435373018263
 Quadratic coef:       0.337356979111
 Linear coef   :      -0.533530990561
           Qmin:  -11665.450144189153
Quadratic minimum step length (  0.424358573115) accepted
    Initial Ne1:    7191.99995009
      Final Ne1:    7192.00000000

=================== Penalty functional idempotency correction ==================
 RMS occupancy error at iteration   1:  0.000144 (step -0.4994 Ne1=   7192.0000)
            Final RMS occupancy error   :  0.000000 (Ne1=   7192.0000)
               Final occupancy bounds   : [ -0.0000,  1.0000]
================================================================================

    2        -1.166523919901E+04     1.5450E-04     1.3974E-04    -1.5957E+00
MG BCs: +ve charge blocks (gridpoints):     25176 (   17308974).
MG BCs: -ve charge blocks (gridpoints):      8512 (    1089743).
MG BCs:     Elided blocks (gridpoints):    175464 (  177897748).
MG BCs: Computational effort saved:  99.9828%.
MG BCs: Charge after coarse-graining:           -9.0006716.
MG DL_MG: Calling solver with defect correction order = 8
MG DL_MG: Solver finished
MG Hartree energy from (\int phi*rho dr):              1246.299697
MG Hartree energy from (\int eps (grad phi)^2 dr):     1245.651820
MG Discrepancy due to finite box and discretization:     -0.647877 (  -0.05198%)
MG Correction to account for finite box:                  0.468497
MG Remaining discrepancy, due to discretization:         -0.179380 (  -0.01439%)
      ideal mu1:      -0.733918607557
             Q0:  -11665.450641426956
             G0:      -0.155030113429
   RMS gradient:       0.000060461268
MG BCs: +ve charge blocks (gridpoints):     25176 (   17307924).
MG BCs: -ve charge blocks (gridpoints):      8515 (    1090275).
MG BCs:     Elided blocks (gridpoints):    175464 (  177898266).
MG BCs: Computational effort saved:  99.9828%.
MG BCs: Charge after coarse-graining:           -9.0006717.
MG DL_MG: Calling solver with defect correction order = 8
MG DL_MG: Solver finished
MG Hartree energy from (\int phi*rho dr):              1245.678615
MG Hartree energy from (\int eps (grad phi)^2 dr):     1245.030777
MG Discrepancy due to finite box and discretization:     -0.647837 (  -0.05201%)
MG Correction to account for finite box:                  0.468490
MG Remaining discrepancy, due to discretization:         -0.179347 (  -0.01440%)
     Trial step:       0.477213809199
             Q1:  -11665.498281925102
 Quadratic coef:       0.026342012825
 Linear coef   :      -0.073982510970
           Qmin:  -11665.502587077102
Quadratic minimum step length (  0.670136259304) accepted
    Initial Ne1:    7192.00064314
      Final Ne1:    7192.00000000

=================== Penalty functional idempotency correction ==================
 RMS occupancy error at iteration   1:  0.000067 (step -0.4997 Ne1=   7192.0000)
            Final RMS occupancy error   :  0.000000 (Ne1=   7192.0000)
               Final occupancy bounds   : [ -0.0000,  1.0000]
================================================================================

    3        -1.166545064143E+04     6.0461E-05     5.4686E-05    -2.1144E-01
MG BCs: +ve charge blocks (gridpoints):     25175 (   17307503).
MG BCs: -ve charge blocks (gridpoints):      8516 (    1090484).
MG BCs:     Elided blocks (gridpoints):    175465 (  177898478).
MG BCs: Computational effort saved:  99.9828%.
MG BCs: Charge after coarse-graining:           -9.0006717.
MG DL_MG: Calling solver with defect correction order = 8
MG DL_MG: Solver finished
MG Hartree energy from (\int phi*rho dr):              1245.427449
MG Hartree energy from (\int eps (grad phi)^2 dr):     1244.779627
MG Discrepancy due to finite box and discretization:     -0.647822 (  -0.05202%)
MG Correction to account for finite box:                  0.468488
MG Remaining discrepancy, due to discretization:         -0.179334 (  -0.01440%)
      ideal mu1:      -0.732932156552
             Q0:  -11665.502688048990
             G0:      -0.036505024534
   RMS gradient:       0.000029326740
MG BCs: +ve charge blocks (gridpoints):     25173 (   17307633).
MG BCs: -ve charge blocks (gridpoints):      8515 (    1090432).
MG BCs:     Elided blocks (gridpoints):    175467 (  177898400).
MG BCs: Computational effort saved:  99.9828%.
MG BCs: Charge after coarse-graining:           -9.0006716.
MG DL_MG: Calling solver with defect correction order = 8
MG DL_MG: Solver finished
MG Hartree energy from (\int phi*rho dr):              1245.530923
MG Hartree energy from (\int eps (grad phi)^2 dr):     1244.883196
MG Discrepancy due to finite box and discretization:     -0.647727 (  -0.05200%)
MG Correction to account for finite box:                  0.468499
MG Remaining discrepancy, due to discretization:         -0.179228 (  -0.01439%)
     Trial step:       0.565507097201
             Q1:  -11665.511760769645
 Quadratic coef:       0.011571129802
 Linear coef   :      -0.020643850458
           Qmin:  -11665.511895632195
Quadratic minimum step length (  0.504455664525) accepted
    Initial Ne1:    7192.00024882
      Final Ne1:    7192.00000000

=================== Penalty functional idempotency correction ==================
 RMS occupancy error at iteration   1:  0.000019 (step -0.4999 Ne1=   7192.0000)
            Final RMS occupancy error   :  0.000000 (Ne1=   7192.0000)
               Final occupancy bounds   : [ -0.0000,  1.0000]
================================================================================

    4        -1.166550268805E+04     2.9327E-05     2.6525E-05    -5.2047E-02
MG BCs: +ve charge blocks (gridpoints):     25173 (   17307621).
MG BCs: -ve charge blocks (gridpoints):      8515 (    1090438).
MG BCs:     Elided blocks (gridpoints):    175467 (  177898406).
MG BCs: Computational effort saved:  99.9828%.
MG BCs: Charge after coarse-graining:           -9.0006716.
MG DL_MG: Calling solver with defect correction order = 8
MG DL_MG: Solver finished
MG Hartree energy from (\int phi*rho dr):              1245.519563
MG Hartree energy from (\int eps (grad phi)^2 dr):     1244.871825
MG Discrepancy due to finite box and discretization:     -0.647737 (  -0.05201%)
MG Correction to account for finite box:                  0.468498
MG Remaining discrepancy, due to discretization:         -0.179239 (  -0.01439%)
      ideal mu1:      -0.732947510741
             Q0:  -11665.511900842655
             G0:      -0.012239766091
   RMS gradient:       0.000017003423
MG BCs: +ve charge blocks (gridpoints):     25173 (   17308145).
MG BCs: -ve charge blocks (gridpoints):      8512 (    1090225).
MG BCs:     Elided blocks (gridpoints):    175467 (  177898095).
MG BCs: Computational effort saved:  99.9828%.
MG BCs: Charge after coarse-graining:           -9.0006716.
MG DL_MG: Calling solver with defect correction order = 8
MG DL_MG: Solver finished
MG Hartree energy from (\int phi*rho dr):              1245.931204
MG Hartree energy from (\int eps (grad phi)^2 dr):     1245.283511
MG Discrepancy due to finite box and discretization:     -0.647693 (  -0.05198%)
MG Correction to account for finite box:                  0.468488
MG Remaining discrepancy, due to discretization:         -0.179205 (  -0.01438%)
     Trial step:       0.534109781330
             Q1:  -11665.515296501806
 Quadratic coef:       0.003141719641
 Linear coef   :      -0.006537378790
           Qmin:  -11665.515301633173
Quadratic minimum step length (  0.555695344534) accepted
    Initial Ne1:    7192.00010740
      Final Ne1:    7192.00000000

=================== Penalty functional idempotency correction ==================
 RMS occupancy error at iteration   1:  0.000010 (step -0.5000 Ne1=   7192.0000)
            Final RMS occupancy error   :  0.000000 (Ne1=   7192.0000)
               Final occupancy bounds   : [ -0.0000,  1.0000]
================================================================================

    5        -1.166551190084E+04     1.7003E-05     1.5379E-05    -9.2128E-03
MG BCs: +ve charge blocks (gridpoints):     25173 (   17308167).
MG BCs: -ve charge blocks (gridpoints):      8512 (    1090219).
MG BCs:     Elided blocks (gridpoints):    175467 (  177898079).
MG BCs: Computational effort saved:  99.9828%.
MG BCs: Charge after coarse-graining:           -9.0006716.
MG DL_MG: Calling solver with defect correction order = 8
MG DL_MG: Solver finished
MG Hartree energy from (\int phi*rho dr):              1245.947859
MG Hartree energy from (\int eps (grad phi)^2 dr):     1245.300167
MG Discrepancy due to finite box and discretization:     -0.647691 (  -0.05198%)
MG Correction to account for finite box:                  0.468488
MG Remaining discrepancy, due to discretization:         -0.179203 (  -0.01438%)
      ideal mu1:      -0.733330122077
             Q0:  -11665.515302775428
             G0:      -0.003754946669
   RMS gradient:       0.000009418145
MG BCs: +ve charge blocks (gridpoints):     25172 (   17308065).
MG BCs: -ve charge blocks (gridpoints):      8512 (    1090258).
MG BCs:     Elided blocks (gridpoints):    175468 (  177898142).
MG BCs: Computational effort saved:  99.9828%.
MG BCs: Charge after coarse-graining:           -9.0006716.
MG DL_MG: Calling solver with defect correction order = 8
MG DL_MG: Solver finished
MG Hartree energy from (\int phi*rho dr):              1245.875608
MG Hartree energy from (\int eps (grad phi)^2 dr):     1245.227926
MG Discrepancy due to finite box and discretization:     -0.647683 (  -0.05199%)
MG Correction to account for finite box:                  0.468482
MG Remaining discrepancy, due to discretization:         -0.179201 (  -0.01438%)
     Trial step:       0.544795667159
             Q1:  -11665.516576613300
 Quadratic coef:       0.000771840803
 Linear coef   :      -0.002045678676
           Qmin:  -11665.516658236693
Quadratic minimum step length (  0.721960327954) accepted
    Initial Ne1:    7192.00005261
      Final Ne1:    7192.00000000

=================== Penalty functional idempotency correction ==================
 RMS occupancy error at iteration   1:  0.000006 (step -0.4999 Ne1=   7192.0000)
            Final RMS occupancy error   :  0.000000 (Ne1=   7192.0000)
               Final occupancy bounds   : [ -0.0000,  1.0000]
================================================================================

    6        -1.166551530278E+04     9.4181E-06     8.5185E-06    -3.4019E-03
MG BCs: +ve charge blocks (gridpoints):     25171 (   17308007).
MG BCs: -ve charge blocks (gridpoints):      8512 (    1090291).
MG BCs:     Elided blocks (gridpoints):    175469 (  177898167).
MG BCs: Computational effort saved:  99.9828%.
MG BCs: Charge after coarse-graining:           -9.0006716.
MG DL_MG: Calling solver with defect correction order = 8
MG DL_MG: Solver finished
MG Hartree energy from (\int phi*rho dr):              1245.852079
MG Hartree energy from (\int eps (grad phi)^2 dr):     1245.204399
MG Discrepancy due to finite box and discretization:     -0.647680 (  -0.05199%)
MG Correction to account for finite box:                  0.468480
MG Remaining discrepancy, due to discretization:         -0.179200 (  -0.01438%)
      ideal mu1:      -0.733239335756
             Q0:  -11665.516658336855
             G0:      -0.002110552464
   RMS gradient:       0.000007062375
MG BCs: +ve charge blocks (gridpoints):     25173 (   17307905).
MG BCs: -ve charge blocks (gridpoints):      8512 (    1090320).
MG BCs:     Elided blocks (gridpoints):    175467 (  177898240).
MG BCs: Computational effort saved:  99.9828%.
MG BCs: Charge after coarse-graining:           -9.0006716.
MG DL_MG: Calling solver with defect correction order = 8
MG DL_MG: Solver finished
MG Hartree energy from (\int phi*rho dr):              1245.785875
MG Hartree energy from (\int eps (grad phi)^2 dr):     1245.138186
MG Discrepancy due to finite box and discretization:     -0.647689 (  -0.05199%)
MG Correction to account for finite box:                  0.468481
MG Remaining discrepancy, due to discretization:         -0.179208 (  -0.01439%)
     Trial step:       0.627152978570
             Q1:  -11665.517105516861
 Quadratic coef:       0.000876459259
 Linear coef   :      -0.001323639264
           Qmin:  -11665.517158080820
Quadratic minimum step length (  0.473566967843) accepted
    Initial Ne1:    7192.00000777
      Final Ne1:    7192.00000000

=================== Penalty functional idempotency correction ==================
 RMS occupancy error at iteration   1:  0.000000 (step -0.5000 Ne1=   7192.0000)
            Final RMS occupancy error   :  0.000000 (Ne1=   7192.0000)
               Final occupancy bounds   : [  0.0000,  1.0000]
================================================================================

    7        -1.166551665834E+04     7.0624E-06     6.3878E-06    -1.3556E-03
MG BCs: +ve charge blocks (gridpoints):     25173 (   17307935).
MG BCs: -ve charge blocks (gridpoints):      8512 (    1090320).
MG BCs:     Elided blocks (gridpoints):    175467 (  177898210).
MG BCs: Computational effort saved:  99.9828%.
MG BCs: Charge after coarse-graining:           -9.0006716.
MG DL_MG: Calling solver with defect correction order = 8
MG DL_MG: Solver finished
MG Hartree energy from (\int phi*rho dr):              1245.802039
MG Hartree energy from (\int eps (grad phi)^2 dr):     1245.154353
MG Discrepancy due to finite box and discretization:     -0.647687 (  -0.05199%)
MG Correction to account for finite box:                  0.468481
MG Remaining discrepancy, due to discretization:         -0.179206 (  -0.01438%)
      ideal mu1:      -0.733175889313
             Q0:  -11665.517158053932
             G0:      -0.001278202667
   RMS gradient:       0.000005495991
MG BCs: +ve charge blocks (gridpoints):     25173 (   17307882).
MG BCs: -ve charge blocks (gridpoints):      8513 (    1090344).
MG BCs:     Elided blocks (gridpoints):    175467 (  177898239).
MG BCs: Computational effort saved:  99.9828%.
MG BCs: Charge after coarse-graining:           -9.0006716.
MG DL_MG: Calling solver with defect correction order = 8
MG DL_MG: Solver finished
MG Hartree energy from (\int phi*rho dr):              1245.767369
MG Hartree energy from (\int eps (grad phi)^2 dr):     1245.119676
MG Discrepancy due to finite box and discretization:     -0.647693 (  -0.05199%)
MG Correction to account for finite box:                  0.468480
MG Remaining discrepancy, due to discretization:         -0.179213 (  -0.01439%)
     Trial step:       0.544976086113
             Q1:  -11665.517702012439
 Quadratic coef:       0.000152631379
 Linear coef   :      -0.000696589887
           Qmin:  -11665.517952840484
Quadratic minimum step length (  1.243600209889) accepted
    Initial Ne1:    7192.00001230
      Final Ne1:    7192.00000000

=================== Penalty functional idempotency correction ==================
 RMS occupancy error at iteration   1:  0.000007 (step -0.4997 Ne1=   7192.0000)
            Final RMS occupancy error   :  0.000000 (Ne1=   7192.0000)
               Final occupancy bounds   : [ -0.0000,  1.0000]
================================================================================

    8        -1.166551715805E+04     5.4960E-06     4.9710E-06    -4.9972E-04
MG BCs: +ve charge blocks (gridpoints):     25173 (   17307862).
[...]
MG Hartree energy from (\int eps (grad phi)^2 dr):     1202.828776
MG Discrepancy due to finite box and discretization:     -0.184939 (  -0.01537%)
MG Correction to account for finite box:                  0.006402
MG Remaining discrepancy, due to discretization:         -0.178537 (  -0.01484%)
     Trial step:       0.292159818731
             Q1:  -11698.789380478906
 Quadratic coef:       0.000000000837
 Linear coef   :      -0.000000001420
           Qmin:  -11698.789380478926
Quadratic minimum step length (  0.247833175575) accepted
    Initial Ne1:    7192.00000000
      Final Ne1:    7192.00000000

=================== Penalty functional idempotency correction ==================
 RMS occupancy error at iteration   1:  0.000000 (step -0.5000 Ne1=   7192.0000)
            Final RMS occupancy error   :  0.000000 (Ne1=   7192.0000)
               Final occupancy bounds   : [ -0.0000,  1.0000]
================================================================================

    7        -1.169878938048E+04     1.0716E-08     9.6921E-09    -8.1491E-10

Reusing previously generated solute cavity.
MG BCs: +ve charge blocks (gridpoints):     29099 (   19493776).
MG BCs: -ve charge blocks (gridpoints):      8505 (    1059098).
MG BCs:     Elided blocks (gridpoints):    171541 (  175743591).
MG BCs: Computational effort saved:  99.9808%.
MG BCs: Charge after coarse-graining:           -9.0009620.
MG DL_MG: Calling solver with defect correction order = 8
MG DL_MG: Solver finished
MG Hartree energy from (\int phi*rho dr):              1203.013715
MG Hartree energy from (\int eps (grad phi)^2 dr):     1202.828776
MG Discrepancy due to finite box and discretization:     -0.184939 (  -0.01537%)
MG Correction to account for finite box:                  0.006402
MG Remaining discrepancy, due to discretization:         -0.178537 (  -0.01484%)
      ideal mu1:      -0.484950552083
             Q0:  -11698.789380478906
             G0:      -0.000000002314
   RMS gradient:       0.000000006085

Reusing previously generated solute cavity.
MG BCs: +ve charge blocks (gridpoints):     29099 (   19493777).
MG BCs: -ve charge blocks (gridpoints):      8505 (    1059098).
MG BCs:     Elided blocks (gridpoints):    171541 (  175743590).
MG BCs: Computational effort saved:  99.9808%.
MG BCs: Charge after coarse-graining:           -9.0009620.
MG DL_MG: Calling solver with defect correction order = 8
MG DL_MG: Solver finished
MG Hartree energy from (\int phi*rho dr):              1203.013711
MG Hartree energy from (\int eps (grad phi)^2 dr):     1202.828772
MG Discrepancy due to finite box and discretization:     -0.184939 (  -0.01537%)
MG Correction to account for finite box:                  0.006402
MG Remaining discrepancy, due to discretization:         -0.178537 (  -0.01484%)
     Trial step:       0.269085294380
             Q1:  -11698.789380478789
 Quadratic coef:       0.000000000739
 Linear coef   :      -0.000000000623
           Qmin:  -11698.789380479036
Quadratic minimum step length (  0.113446174451) accepted
    Initial Ne1:    7192.00000000
      Final Ne1:    7192.00000000

=================== Penalty functional idempotency correction ==================
 RMS occupancy error at iteration   1:  0.000000 (step -0.5000 Ne1=   7192.0000)
            Final RMS occupancy error   :  0.000000 (Ne1=   7192.0000)
               Final occupancy bounds   : [  0.0000,  1.0000]
================================================================================

    8        -1.169878938048E+04     6.0851E-09     5.5038E-09    -5.8208E-10

Reusing previously generated solute cavity.
MG BCs: +ve charge blocks (gridpoints):     29099 (   19493777).
MG BCs: -ve charge blocks (gridpoints):      8505 (    1059098).
MG BCs:     Elided blocks (gridpoints):    171541 (  175743590).
MG BCs: Computational effort saved:  99.9808%.
MG BCs: Charge after coarse-graining:           -9.0009620.
MG DL_MG: Calling solver with defect correction order = 8
MG DL_MG: Solver finished
MG Hartree energy from (\int phi*rho dr):              1203.013713
MG Hartree energy from (\int eps (grad phi)^2 dr):     1202.828774
MG Discrepancy due to finite box and discretization:     -0.184939 (  -0.01537%)
MG Correction to account for finite box:                  0.006402
MG Remaining discrepancy, due to discretization:         -0.178537 (  -0.01484%)
      ideal mu1:      -0.484950549746
             Q0:  -11698.789380478906
             G0:      -0.000000002349
   RMS gradient:       0.000000005089

Reusing previously generated solute cavity.
MG BCs: +ve charge blocks (gridpoints):     29099 (   19493777).
MG BCs: -ve charge blocks (gridpoints):      8505 (    1059098).
MG BCs:     Elided blocks (gridpoints):    171541 (  175743590).
MG BCs: Computational effort saved:  99.9808%.
MG BCs: Charge after coarse-graining:           -9.0009620.
MG DL_MG: Calling solver with defect correction order = 8
MG DL_MG: Solver finished
MG Hartree energy from (\int phi*rho dr):              1203.013708
MG Hartree energy from (\int eps (grad phi)^2 dr):     1202.828769
MG Discrepancy due to finite box and discretization:     -0.184939 (  -0.01537%)
MG Correction to account for finite box:                  0.006402
MG Remaining discrepancy, due to discretization:         -0.178537 (  -0.01484%)
     Trial step:       0.174718909247
             Q1:  -11698.789380478789
 Quadratic coef:       0.000000000528
 Linear coef   :      -0.000000000410
           Qmin:  -11698.789380478986
Quadratic minimum step length (  0.067955797012) accepted
    Initial Ne1:    7192.00000000
      Final Ne1:    7192.00000000

=================== Penalty functional idempotency correction ==================
 RMS occupancy error at iteration   1:  0.000000 (step -0.5000 Ne1=   7192.0000)
            Final RMS occupancy error   :  0.000000 (Ne1=   7192.0000)
               Final occupancy bounds   : [  0.0000,  1.0000]
================================================================================

    9        -1.169878938048E+04     5.0894E-09     4.6033E-09     0.0000E+00

Reusing previously generated solute cavity.
MG BCs: +ve charge blocks (gridpoints):     29099 (   19493777).
MG BCs: -ve charge blocks (gridpoints):      8505 (    1059098).
MG BCs:     Elided blocks (gridpoints):    171541 (  175743590).
MG BCs: Computational effort saved:  99.9808%.
MG BCs: Charge after coarse-graining:           -9.0009620.
MG DL_MG: Calling solver with defect correction order = 8
MG DL_MG: Solver finished
MG Hartree energy from (\int phi*rho dr):              1203.013711
MG Hartree energy from (\int eps (grad phi)^2 dr):     1202.828772
MG Discrepancy due to finite box and discretization:     -0.184939 (  -0.01537%)
MG Correction to account for finite box:                  0.006402
MG Remaining discrepancy, due to discretization:         -0.178537 (  -0.01484%)
      ideal mu1:      -0.484950546405
   10        -1.169878938048E+04     4.4592E-09     4.0333E-09     1.1642E-10
Finished density kernel iterations (  10)

Writing density kernel to file "host_21761.dkn" ... done


>>> Density kernel optimised for the current NGWF basis:
     ~~~~~~~~~~~~~~~~~~~~~~~~~~~~~~~~~~~~~~~~~~~~~~~~~~~~~~~~~~~
     Total energy                =  -1.16987893804788E+04  Eh
     Estimated bandgap           =   8.2281E-02  Eh
     RMS occupancy error         =   4.2685E-16
     [H,K] commutator            =   4.0333E-09
     Occupancy bounds            = [  0.000:  1.000]
     ~~~~~~~~~~~~~~~~~~~~~~~~~~~~~~~~~~~~~~~~~~~~~~~~~~~~~~~~~~~




################################################################################
########################### NGWF CG iteration  005 #############################
################################################################################
****** Reciprocal space K.E. preconditioning with k_zero =  3.5000 a0^-1 *******

>>> Checking for convergence of NGWFs: 
           ........................................................
           |         *** NGWF optimisation converged ***          |
           | RMS NGWF gradient =    0.00000089798339              |
           | Criteria satisfied:                                  |
           | -> RMS NGWF gradient lower than set threshold.       |
           ========================================================

Reusing previously generated solute cavity.
MG BCs: +ve charge blocks (gridpoints):     29099 (   19493777).
MG BCs: -ve charge blocks (gridpoints):      8505 (    1059098).
MG BCs:     Elided blocks (gridpoints):    171541 (  175743590).
MG BCs: Computational effort saved:  99.9808%.
MG BCs: Charge after coarse-graining:           -9.0009620.
MG DL_MG: Calling solver with defect correction order = 8
MG DL_MG: Solver finished
MG Hartree energy from (\int phi*rho dr):              1203.013711
MG Hartree energy from (\int eps (grad phi)^2 dr):     1202.828772
MG Discrepancy due to finite box and discretization:     -0.184939 (  -0.01537%)
MG Correction to account for finite box:                  0.006402
MG Remaining discrepancy, due to discretization:         -0.178537 (  -0.01484%)

================================================================================
           ---------------- ENERGY COMPONENTS (Eh) ----------------
           | Kinetic                    :     8557.33130202573193 |
           | Pseudo. (local,OBC,corr'd) :    -5073.07334829911997 |
           | Pseudopotential (non-local):     1403.94875523164410 |
           | Hartree (molecular)        :     1203.01371109099296 |
           | Exchange-correlation       :    -3381.40964874584552 |
           | Ion-ion (open BC)          :   826980.63495871820487 |
           | Smeared ion non-self corr. :  -826932.72401051456109 |
           | Smeared ion self corr.     :   -14457.16956389741972 |
           | Solvent cavitation energy  :        2.34266267570628 |
           | Solute-solvent dis-rep en. :       -1.68419876413214 |
           | Total                      :   -11698.78938047883457 |
           --------------------------------------------------------
           ------ LOCAL ENERGY COMPONENTS FROM MATRIX TRACES ------
           | Pseudopotential (local)    :    -5073.07334829915544 |
           | Hartree                    :    -2000.24159679435138 |
           --------------------------------------------------------
           Integrated density           :     7191.99999999734609
           Integrated density tr(KS)    :     7192.00000000000000
================================================================================


                        <<<<< CALCULATION SUMMARY >>>>>                         
|ITER|    RMS GRADIENT   |     TOTAL ENERGY    |   step   |     Epredicted              
   0     0.00003800158059 -11698.73282233485952   0.609189 -11698.78137950069322        
   1     0.00001026723531 -11698.78869641537312   0.097314 -11698.78926263149333        
   2     0.00000449178009 -11698.78935731854290   0.017447 -11698.78937674761073        
   3     0.00000200272950 -11698.78937955631409   0.003521 -11698.78938033586746        
   4     0.00000089798339 -11698.78938047878910  <-- CG                                 

=================== Finished the calculation in solvent ========================
= Adjusting the following parameters: 
= read_denskern: F
= read_tightbox_ngwfs: F
= maxit_pen: 0 (restored to user-specified value)
= restart read filename prefix: ""
= restart write filename prefix: ""
================================================================================

================================================================================
IS: Calculation in solvent completed (NGWFs converged).      

Individual components of total energy in solvent:     hartree           kcal/mol
- Usual non-electrostatic DFT terms:    -12902.46155548135539    -8096416.689147
- Electrostatic fixed charge energy:      1203.01371109099296      754902.484760
- Apolar cavitation energy:                  2.34266267570628        1470.042992
- Apolar dispersion-repulsion energy:       -1.68419876413214       -1056.850658
 -------------------------------------------------------------------------------
- Total energy in solvent:              -11698.78938047878910    -7341101.012053

Components of total energy in solvent:                hartree           kcal/mol
- Usual non-electrostatic DFT terms:    -12902.46155548135539    -8096416.689147
- Electrostatic energy:                   1203.01371109099296      754902.484760
- Apolar energy terms:                       0.65846391157414         413.192334
 -------------------------------------------------------------------------------
- Total energy in solvent:              -11698.78938047878910    -7341101.012053

Calculation of free energy of solvation:              hartree           kcal/mol
- Total energy in solvent:         (+)  -11698.78938047878910    -7341101.012053
- Total energy in vacuum:          (-)  -11695.06908621732146    -7338766.492209
 -------------------------------------------------------------------------------
- Total free energy of solvation:           -3.72029426146764       -2334.519845

Components of polar term in f.e. of solvation:        hartree           kcal/mol
- Electrostatic:                            -4.47635377952520       -2808.954345
- Change in nonelectrostatic DFT terms:      0.09759560648490          61.242166
 -------------------------------------------------------------------------------
- Polar term in f.e. of solvation:          -4.37875817304030       -2747.712179

Components of free energy of solvation:               hartree           kcal/mol
- Polar term in f.e. of solvation: (+)      -4.37875817304030       -2747.712179
- Apolar (cavitation, dis., rep.): (+)       0.65846391157414         413.192334
 -------------------------------------------------------------------------------
- Total free energy of solvation:           -3.72029426146615       -2334.519845
================================================================================


------------------------------ TIMING INFORMATION ------------------------------
AVERAGE TIME:   51288.233s on     30 node(s)                                    
TOTAL TIME:     51288.261s on     30 node(s)                                    
================= AVERAGE TIMINGS FROM ALL NODES (CUMULATIVE) ==================
|| TAG                                    #calls    cpu time   %total  Gflops ||
|| work_imbalance                       :     1        0.00s   0.000%  ------ ||
|| sparse_set_to_garbage                :   218        0.06s   0.000%  ------ ||
|| parallel_prepare_fd_halos_alloc      :  2307        0.09s   0.000%  ------ ||
|| parallel_prepare_fd_halos_request    :  2307        0.11s   0.000%  ------ ||
|| ngwfs_initialise_from_radial         :     1        0.69s   0.001%  ------ ||
|| parallel_prepare_fd_halos_satisfy    :  2307        0.92s   0.002%  ------ ||
|| basis_extract_function_from_box      :  8456        1.52s   0.003%  ------ ||
|| restart_ngwfs_tightbox_input         :     1        1.72s   0.003%  ------ ||
|| restart_kernel_read                  :     1        3.99s   0.008%  ------ ||
|| openbc_locps_radial                  :     1        6.96s   0.014%  ------ ||
|| parallel_prepare_fd_halos_comms_imbal:  2307        9.41s   0.018%  ------ ||
|| parallel_prepare_fd_halos_clear      :  2307       16.22s   0.032%  ------ ||
|| pseudopotentials_nonlocal_mat        :    37       25.92s   0.051%  ------ ||
|| sparse_init                          :     2       26.03s   0.051%  ------ ||
|| density_init_guess_real              :     1       33.86s   0.066%  ------ ||
|| parallel_prepare_fd_halos_comms_wait :  2307       35.84s   0.070%  ------ ||
|| projectors_init_fftbox_recip         :   303       40.71s   0.079%  ------ ||
|| function_ops_brappd_ketppd           :    37       43.54s   0.085%  ------ ||
|| palser_mano_kernel_optimise          :     1       44.25s   0.086%  ------ ||
|| parallel_prepare_fd_halos            :  2307       62.59s   0.122%  ------ ||
|| projectors_func_ovlp_box             :    37       62.71s   0.122%  ------ ||
|| basis_copy_function_to_box           : 137.9k      64.30s   0.125%  ------ ||
|| fourier_apply_box_pair               : 12266       76.83s   0.150% 492.240 ||
|| ngwf_gradient_coeffs                 :    19      105.13s   0.205%  ------ ||
|| pseudo_make_structure_factor         :     2      110.41s   0.215%  ------ ||
|| sparse_embed_hotelling_invert_embed  :    37      112.92s   0.220%  ------ ||
|| restart_ngwfs_tightbox_output        :    17      183.85s   0.358%  ------ ||
|| integrals_kinetic                    :    37      238.39s   0.465%  ------ ||
|| restart_kernel_write                 :    20      280.24s   0.546%  ------ ||
|| openbc_locps_on_grid                 :     2      302.74s   0.590%  ------ ||
|| sparse_trace                         :  5978      316.29s   0.617%  ------ ||
|| projectors_gradient_batch            :   266      320.98s   0.626%  ------ ||
|| basis_dot_function_with_box          : 20.59M     351.84s   0.686%  ------ ||
|| finite_difference_derivative         :  2307      405.55s   0.791%  ------ ||
|| kernel_purify                        :   588      459.59s   0.896%  ------ ||
|| lnv_gradient_norm                    :   190      697.60s   1.360%  ------ ||
|| hamiltonian_energy_components        :     4      698.23s   1.361%  ------ ||
|| kernel_fix                           :   190      720.62s   1.405%  ------ ||
|| basis_add_function_to_box            : 43.05M     751.20s   1.465%  ------ ||
|| ngwf_gradient_build_batch            :   266     1278.43s   2.493%  ------ ||
|| cell_grid_extract_box_real           : 72081     1386.86s   2.704%  ------ ||
|| cell_grid_deposit_box_real           : 85503     1506.18s   2.937%  ------ ||
|| integrals_locpot_mat_els_batch       :  2786     1541.74s   3.006%  ------ ||
|| density_batch_row_sums               :  5362     1710.22s   3.335%  ------ ||
|| ngwf_gradient_batch                  :   266     1715.40s   3.345%  ------ ||
|| ngwf_gradient_lnv                    :    19     2066.09s   4.028%  ------ ||
|| fourier_apply_cell_backward          : 11523     2500.92s   4.876%  63.643 ||
|| fourier_apply_cell_forward           : 10753     2505.17s   4.884%  59.289 ||
|| density_fftbox_deposit_to_cell       : 83111     2901.62s   5.657%  ------ ||
|| sparse_product                       :  7700     3019.22s   5.887%  ------ ||
|| multigrid_prepare_bound_cond         :   384     4262.82s   8.311%  ------ ||
|| potential_apply_to_ngwf_batch        :  2786     5381.88s  10.493%  ------ ||
|| density_fftbox_interpolate_multiply  : 83111     6235.30s  12.157%  ------ ||
|| xc_energy_potential                  :   384     6714.50s  13.092%  ------ ||
|| integrals_locpot_dbl_grid            :   199     7110.97s  13.865%  ------ ||
|| fourier_apply_box                    : 287.2k    7435.49s  14.497% 576.862 ||
|| density_batch_interp_deposit         :  5362    10006.13s  19.510%  ------ ||
|| nlxc_vdw_energy                      :   768    10838.33s  21.132%  ------ ||
|| dl_mg_solver_calls                   :   384    11771.16s  22.951%  ------ ||
|| density_on_dbl_grid                  :   383    12995.72s  25.339%  ------ ||
|| multigrid_calculate_hartree          :   384    16500.00s  32.171%  ------ ||
|| hamiltonian_lhxc_calculate           :   379    36032.41s  70.255%  ------ ||
|| lnv_denskernel_optimise_cg           :    19    44593.47s  86.947%  ------ ||
|| ngwf_cg_optimise                     :     2    49968.72s  97.427%  ------ ||
|| total_time                           :     1    51288.23s 100.000%  ------ ||
================================================================================
Overhead of generating timer report: 
- 0 ms averaging over threads,
- 5 ms ensuring consistency across MPI ranks,
- 0 ms printing in order.

Job completed: 21-02-2020 12:09 (-0000)

