 +---------------------------------------------------------------+
 |                                                               |
 |        ####### #     # ####### ####### ####### ######         |
 |        #     # ##    # #          #    #       #     #        |
 |        #     # # #   # #          #    #       #     #        |
 |        #     # #  #  # #####      #    #####   ######         |
 |        #     # #   # # #          #    #       #              |
 |        #     # #    ## #          #    #       #              |
 |        ####### #     # #######    #    ####### #              |
 |                                                               |
 |        Linear-Scaling Ab Initio Total Energy Program          |
 |                                                               |
 |          Release for academic collaborators of ODG            |
 |                                             Version 5.3.2.6.  |
 |                                                               |
 +---------------------------------------------------------------+
 |                                                               |
 |  Authors:                                                     |
 |  Jacek Dziedzic, Peter D. Haynes, Nicholas D. M. Hine,        |
 |  Arash. A. Mostofi, Mike C. Payne and Chris-Kriton Skylaris   |
 |                                                               |
 |  Contributors:                                                |
 |  J. Aarons, L. Andrinopoulos, P. W. Avraam, R. A. Bell,       |
 |  A. Bhandari, G. A. Bramley, R. J. Charlton, S. J. Clark,     |
 |  R. J. Clements, G. C. Constantinescu, F. Corsetti,           |
 |  N. Corsini, O. Dieguez, S. M. M. Dubois, K. K. B. Duff,      |
 |  J. M. Escartin, A. Greco, H. Helal, Q. O. Hill, L. P. Lee,   |
 |  J.-H. Li, E. B. Linscott, G. Moynihan, D. D. O`Regan,        |
 |  O. K. Okan, M. J. S. Phipps, C. J. Pickard,                  |
 |  J. C. A. Prentice, M. I. J. Probert, L. E. Ratcliff,         |
 |  M. Robinson, A. Ruiz Serrano, J. S. Spencer, E. W. Tait,     |
 |  G. Teobaldi, D. Turban, V. Vitale, K. A. Wilkinson,          |
 |  C. Weber, J. C. Womack, N. Yeung and T. J. Zuehlsdorff       |
 |                                                               |
 |                                   Copyright (c) 2004-2019     |
 |                                                               |
 |  Please cite:                                                 |
 |  "Introducing ONETEP: Linear-scaling density functional       |
 |   simulations on parallel computers".                         |
 |   C.-K. Skylaris, P. D. Haynes, A. A. Mostofi, M. C. Payne.   |
 |   J. Chem. Phys. 122 084119 (2005).                           |
 |                                                               |
 |          in all publications arising from your use of ONETEP. |
 |                                                               |
 +---------------------------------------------------------------+
 |                                                               |
 |   ONETEP is based on developments described in the following  |
 |   publications:                                               |
 |                                                               |
 |  "Nonorthogonal generalized Wannier function pseudopotential  |
 |   plane-wave method".                                         |
 |   C.-K. Skylaris, A. A. Mostofi, P. D. Haynes, O. Dieguez,    |
 |   M. C. Payne.                                                |
 |   Phys. Rev. B 66 035119 (2002).                              |
 |                                                               |
 |  "Preconditioned iterative minimization for linear-scaling    |
 |   electronic structure calculations".                         |
 |   A. A. Mostofi, P. D. Haynes, C.-K. Skylaris, M. C. Payne.   |
 |   J. Chem. Phys. 119(17), pp.8842-8848 (2003).                |
 |                                                               |
 |  "Total-energy calculations on a real space grid with         |
 |   localized functions and a plane-wave basis".                |
 |   A. A. Mostofi, C.-K. Skylaris, P. D. Haynes, M. C. Payne.   |
 |   Comput. Phys. Commun. 147, pp.788-802 (2002).               |
 |                                                               |
 |  "Accurate kinetic energy evaluation in electronic structure  |
 |   calculations with localized functions on real space grids"  |
 |   C.-K. Skylaris, A. A. Mostofi, P. D. Haynes, C. J. Pickard, |
 |   M. C. Payne.                                                |
 |   Comput. Phys. Commun. 140, pp.315-322 (2001).               |
 |                                                               |
 |  "Accurate ionic forces and geometry optimization in linear-  |
 |   scaling density-functional theory with local orbitals"      |
 |   N. D. M. Hine, M. Robinson, P. D. Haynes, C.-K. Skylaris,   |
 |   M. C. Payne, and A. A. Mostofi.                             |
 |   Phys. Rev. B 83 195102 (2011).                              |
 |                                                               |
 +---------------------------------------------------------------+

Job started: 02-04-2020 13:01 (+0100)
 
Reading parameters from file "host_31641.dat" ...... done

If your calculation crashes here, before "Checking processes and threads..."
is displayed, then your stack size is insufficient.
If so, use "ulimit -s unlimited" at runtime.
You can disable this check with "check_stack_size F".

Checking processes and threads...
   Determining the default number of threads...
      No default threads set at compilation time: defaulting to 1.
      OpenMP library call suggests 4 threads.
      Hybrid MPI-OpenMP compilation detected.
      Number of MPI processes > 1.
      OMP_NUM_THREADS environment variable present and
      its value matches the one obtained from the OpenMP library call.
      Using this value as default.
      Default threads: 4
      Default applies to threads_max and threads_num_fftboxes.
      Settings in the input file override this default.
   ... done

   Running with 60 MPI processes.
   There are 6 MPI processes running on the same node as the root process.
   Each MPI process is using: 
               1 threads for simulation cell FFTs.
               1 threads for parallel FFT box operations.
               4 threads for loops over batched FFT box operations.
               4 threads in other parallel regions.
... done

Basic input checks...... done

Reading geometry and species blocks from file "host_31641.dat" ...
  <species_atomic_set> block not found: NGWF initialisation set to SOLVE
IS: Dielectric excluded regions:
    - NONE.
    
  Number of PPD points along a3 set to 1.  This is 
  the default value, it may have been provided also in the input file.
... done
 Writing xyz coordinates to file "host_31641.xyz" ... done


--------------------------------------------------------------------------------
---------------------------------- INPUT FILE ----------------------------------
--------------------------------------------------------------------------------

cutoff_energy       : 800 eV                                                    
xc_functional VV10                                                              
task SINGLEPOINT                                                                
write_xyz true                                                                  
output_detail VERBOSE                                                           
ngwf_threshold_orig : 0.000002                                                  
kernel_cutoff       : 1000                                                      
k_zero              : 3.5                                                       
elec_cg_max 0                                                                   
occ_mix 1.0                                                                     
dispersion 0                                                                    
maxit_ngwf_cg 40                                                                
minit_lnv 10                                                                    
maxit_lnv 10                                                                    
write_denskern T                                                                
write_tightbox_ngwfs T                                                          
charge 9                                                                        
is_implicit_solvent T                                                           
is_auto_solvation T                                                             
is_include_apolar T                                                             
is_smeared_ion_rep T                                                            
is_solvent_surf_tension 4.7624E-5 Ha/bohr**2                                    
is_apolar_scaling_factor 0.281075                                               
is_solvation_beta 1.3                                                           
is_density_threshold 0.00035                                                    
is_bulk_permittivity 78.54                                                      
is_dielectric_model fix_initial                                                 
is_smeared_ion_width 0.8                                                        
mg_defco_fd_order 8                                                             
is_bc_coarseness 10                                                             
is_bc_surface_coarseness 1                                                      
fine_grid_scale 2.0                                                             
%block species                                                                  
N   N   7 4 8.0                                                                 
H   H   1 1 8.0                                                                 
C   C   6 4 8.0                                                                 
S   S  16 9 8.0                                                                 
O   O   8 4 8.0                                                                 
%endblock species                                                               
%block species_pot                                                              
N   N_00.recpot                                                                 
H   H_04.recpot                                                                 
C   C_01.recpot                                                                 
S   S_00.recpot                                                                 
O   O_02.recpot                                                                 
%endblock species_pot                                                           
%block lattice_cart                                                             
137.614   0.000   0.000                                                         
0.000 142.646   0.000                                                           
0.000   0.000   160.855                                                         
%endblock lattice_cart                                                          
%block positions_abs                                                            
     Hash =  -000000787607774259130225
%endblock positions_abs                                                         

--------------------------------------------------------------------------------
-------------------------------- END INPUT FILE --------------------------------
--------------------------------------------------------------------------------


 
 ESDF WARNING(1): "kernelcutoff" (esdf_physical) has no units. Assume "bohr".
 ESDF WARNING(2): "kzero" (esdf_physical) has no units. Assume "1/bohr".
 ESDF WARNING(3
 ): "issmearedionwidth" (esdf_physical) has no units. Assume "bohr".
<<<<<<<<<<<<<<<<<<<<<<<<<<<<<<<<< Full system >>>>>>>>>>>>>>>>>>>>>>>>>>>>>>>>>>
<<<<<<<<<<<<<<<<<<<<<<<<< Pseudopotential information >>>>>>>>>>>>>>>>>>>>>>>>>>
File: N_00.recpot [ 2001 points up to Gmax=  52.9 (1/bohr)]
  Atomic number:  7;  ionic charge:  5.000000
    Shell 1: l = 0; rc = 1.48 bohr
File: H_04.recpot [ 2001 points up to Gmax=  52.9 (1/bohr)]
  Atomic number:  1;  ionic charge:  1.000000
    Local potential
File: C_01.recpot [ 2001 points up to Gmax=  52.9 (1/bohr)]
  Atomic number:  6;  ionic charge:  4.000000
    Shell 1: l = 0; rc = 1.48 bohr
File: S_00.recpot [ 2001 points up to Gmax=  52.9 (1/bohr)]
  Atomic number: 16;  ionic charge:  6.000000
    Shell 1: l = 0; rc = 1.90 bohr
    Shell 2: l = 2; rc = 1.84 bohr
File: O_02.recpot [ 2001 points up to Gmax=  52.9 (1/bohr)]
  Atomic number:  8;  ionic charge:  6.000000
    Shell 1: l = 0; rc = 1.31 bohr
<<<<<<<<<<<<<<<<<<<<<<<<<<<<<<<<<<<<<<<<>>>>>>>>>>>>>>>>>>>>>>>>>>>>>>>>>>>>>>>>

-------------------------- Atom counting information ---------------------------
Symbol    Natoms    Nngwfs    Nprojs
  N        236       944       236
  H       1311      1311         0
  C        810      3240       810
  S          6        54        36
  O        239       956       239
.......   ......    ......    ......
Totals:   2602      6505      1321
--------------------------------------------------------------------------------

=============================== PSINC grid sizes ===============================
                      Simulation cell:  273 x 286 x 320
                              FFT-box:   99 x 105 x  99
                                  PPD:    7 x  11 x   1
Grid space d1=  0.504080586081a0 (KE cutoff=  29.89538Eh = 813.49465eV)
Grid space d2=  0.498762237762a0 (KE cutoff=  30.53633Eh = 830.93588eV)
Grid space d3=  0.502671875000a0 (KE cutoff=  30.06317Eh = 818.06059eV)
================================================================================

********************* Fourier parallelisation information **********************
       Coarse grid (whole simulation cell) dimensions:    273   286   320
          Real-space ('12') slabs/node (min max mean):      5     6     5
         Recip-space ('23') slabs/node (min max mean):      2     3     2
********************************************************************************

********************* Fourier parallelisation information **********************
       Double grid (whole simulation cell) dimensions:    546   572   640
          Real-space ('12') slabs/node (min max mean):     10    11    10
         Recip-space ('23') slabs/node (min max mean):      4     5     4
********************************************************************************
ONETEP fine grid is 546 x 572 x 640 gridpoints, 137.6140 x 142.6460 x 160.8550 bohr.
FD multigrid is     545 x 569 x 633 gridpoints, 137.3620 x 141.8979 x 159.0956 bohr.


Calculating local pseudopotential in open BC on a radial grid ...
Discrepancy between calculated realspace psloc and -Z/x on [5a0,255.264a0]:
max |rel. diff| # avg |rel. diff| #  avg rel. diff #  f # pseudopotential file
 0.000296759711    0.000009439468   0.000000085927   54  'N_00.recpot'
 0.000490027943    0.000021572324  -0.000000031900   54  'H_04.recpot'
 0.000320795249    0.000014598087   0.000000111901   54  'C_01.recpot'
 0.000388730920    0.000016096375   0.000000514750   54  'S_00.recpot'
 0.000828383344    0.000035421288   0.000000087443   54  'O_02.recpot'
... done

Atom SCF Calculation for N  : Z (AE atom) =   7 : Z (PS atom) =   5
Config String:
Orbitals (num,occ):  2     2.00 3.00
Orbitals   (num,l):  2        0    1
Real-space Grid (nr,dr,rmax): 1203    0.0066555740    8.0000000000
Spherical Bessel Basis (nsws,lmax,cutoff):   47    1  176.3951722778
Confining potential (l,width,scale):  0    3.0000000000  100.0000000000
Confining potential (l,width,scale):  1    3.0000000000  100.0000000000
  1         -4.7366890484   -3.4501654188    7.0523828109   -1.9619316308
  2         -9.7225420322   -2.0763080851    8.3068355706   -2.2908832437
  3         -9.7134243553   -2.1270543915    8.2534567806   -2.2819809971
  4         -9.7235185949   -2.1427582218    8.2369947390   -2.2802814234
  5         -9.7258373845   -2.1477905863    8.2317116314   -2.2798536235
  6         -9.7268932325   -2.1503512400    8.2290229806   -2.2796830099
  7         -9.7273189469   -2.1516634231    8.2276451699   -2.2796169657
  8         -9.7274675212   -2.1523365544    8.2269384796   -2.2795940092
  9         -9.7275041773   -2.1526817003    8.2265762312   -2.2795881371
 10         -9.7275008637   -2.1528585007    8.2263907413   -2.2795884060
 11         -9.7274868305   -2.1529489544    8.2262958841   -2.2795903922
 12         -9.7274755655   -2.1529859230    8.2262571347   -2.2795920452
 13         -9.7274662327   -2.1530083995    8.2262335832   -2.2795934369
 14         -9.7274589439   -2.1530220534    8.2262192809   -2.2795945372
 15         -9.7274534633   -2.1530303399    8.2262106039   -2.2795953734
 16         -9.7274494492   -2.1530353634    8.2262053452   -2.2795959920
 17         -9.7274465654   -2.1530384053    8.2262021621   -2.2795964406
 18         -9.7274445237   -2.1530402447    8.2262002378   -2.2795967611
 19         -9.7274430947   -2.1530413553    8.2261990762   -2.2795969874
 20         -9.7274421038   -2.1530420249    8.2261983762   -2.2795971458
 21         -9.7274414219   -2.1530424277    8.2261979551   -2.2795972557
 22         -9.7274409555   -2.1530426696    8.2261977024   -2.2795973315
 23         -9.7274406382   -2.1530428144    8.2261975510   -2.2795973835
 24         -9.7274404232   -2.1530429010    8.2261974606   -2.2795974190
 25         -9.7274402783   -2.1530429525    8.2261974067   -2.2795974432
 26         -9.7274401808   -2.1530429831    8.2261973748   -2.2795974596
Atom SCF converged after  26 iterations to a total energy of     -9.72744018

Atom SCF Calculation for H  : Z (AE atom) =   1 : Z (PS atom) =   1
Config String:
Orbitals (num,occ):  1     1.00
Orbitals   (num,l):  1        0
Real-space Grid (nr,dr,rmax): 1203    0.0066555740    8.0000000000
Spherical Bessel Basis (nsws,lmax,cutoff):   47    0  176.3951722778
Confining potential (l,width,scale):  0    3.0000000000  100.0000000000
  1         -0.3178661827   -0.2469879004    0.2820953124   -0.2487802071
  2         -0.3961824611   -0.2455070831    0.2902209900   -0.2567664324
  3         -0.4406462424   -0.2424227551    0.2948173255   -0.2622129794
  4         -0.4569739054   -0.2416771342    0.2960118236   -0.2639986016
  5         -0.4627745219   -0.2416114401    0.2961916694   -0.2644992007
  6         -0.4648634749   -0.2416666130    0.2961598921   -0.2646237065
  7         -0.4656347011   -0.2417155160    0.2961132802   -0.2646490719
  8         -0.4659271144   -0.2417438448    0.2960836537   -0.2646515522
  9         -0.4660407254   -0.2417580788    0.2960682004   -0.2646501482
 10         -0.4660857867   -0.2417647566    0.2960608087   -0.2646488305
 11         -0.4661039568   -0.2417677717    0.2960574330   -0.2646480606
 12         -0.4661113773   -0.2417691018    0.2960559329   -0.2646476727
 13         -0.4661144368   -0.2417696800    0.2960552775   -0.2646474903
 14         -0.4661157072   -0.2417699291    0.2960549942   -0.2646474079
 15         -0.4661162374   -0.2417700356    0.2960548727   -0.2646473715
 16         -0.4661164596   -0.2417700810    0.2960548208   -0.2646473556
 17         -0.4661165529   -0.2417701003    0.2960547987   -0.2646473488
Atom SCF converged after  17 iterations to a total energy of     -0.46611655

Atom SCF Calculation for C  : Z (AE atom) =   6 : Z (PS atom) =   4
Config String:
Orbitals (num,occ):  2     2.00 2.00
Orbitals   (num,l):  2        0    1
Real-space Grid (nr,dr,rmax): 1203    0.0066555740    8.0000000000
Spherical Bessel Basis (nsws,lmax,cutoff):   47    1  176.3951722778
Confining potential (l,width,scale):  0    3.0000000000  100.0000000000
Confining potential (l,width,scale):  1    3.0000000000  100.0000000000
  1         -5.2812238291   -1.3293161250    4.5135249990   -1.4716766231
  2         -5.3996591362   -1.3542148509    4.4876064308   -1.4645117417
  3         -5.4111847148   -1.3757224423    4.4645718036   -1.4593107263
  4         -5.4199203659   -1.3833334895    4.4563636676   -1.4579885221
  5         -5.4226876204   -1.3865104950    4.4529090432   -1.4575385943
  6         -5.4235070726   -1.3878131251    4.4514866831   -1.4573882877
  7         -5.4237271252   -1.3883401868    4.4509094528   -1.4573411661
  8         -5.4237693051   -1.3885521813    4.4506766230   -1.4573281030
  9         -5.4237656430   -1.3886371046    4.4505830704   -1.4573255254
 10         -5.4237547927   -1.3886709976    4.4505456041   -1.4573257244
 11         -5.4237478594   -1.3886817763    4.4505336403   -1.4573262476
 12         -5.4237429748   -1.3886873440    4.4505274417   -1.4573266921
 13         -5.4237397042   -1.3886902144    4.4505242350   -1.4573270222
 14         -5.4237375865   -1.3886916908    4.4505225792   -1.4573272507
 15         -5.4237362473   -1.3886924482    4.4505217259   -1.4573274021
 16         -5.4237354152   -1.3886928356    4.4505212873   -1.4573274996
 17         -5.4237349050   -1.3886930331    4.4505210623   -1.4573275610
 18         -5.4237345954   -1.3886931333    4.4505209473   -1.4573275991
 19         -5.4237344092   -1.3886931840    4.4505208887   -1.4573276224
 20         -5.4237342980   -1.3886932094    4.4505208590   -1.4573276366
 21         -5.4237342320   -1.3886932221    4.4505208440   -1.4573276451
Atom SCF converged after  21 iterations to a total energy of     -5.42373423

Atom SCF Calculation for S  : Z (AE atom) =  16 : Z (PS atom) =   6
Config String:
Orbitals (num,occ):  3     2.00 4.00 0.00
Orbitals   (num,l):  3        0    1    2
Real-space Grid (nr,dr,rmax): 1203    0.0066555740    8.0000000000
Spherical Bessel Basis (nsws,lmax,cutoff):   47    2  176.3951722778
Confining potential (l,width,scale):  0    3.0000000000  100.0000000000
Confining potential (l,width,scale):  1    3.0000000000  100.0000000000
Confining potential (l,width,scale):  2    3.0000000000  100.0000000000
  1        -12.4916237786   -1.0485914554   10.1554312477   -2.4822447765
  2         -9.9747083603   -2.4807597367    8.3138131863   -2.0618837268
  3        -10.1811370131   -2.3153496392    8.4906092179   -2.1137756843
  4        -10.1856385898   -2.2984912006    8.5093862195   -2.1218167101
  5        -10.1891317560   -2.2894783333    8.5195006030   -2.1261392389
  6        -10.1911142562   -2.2849160124    8.5246320974   -2.1283733378
  7        -10.1921506977   -2.2826473329    8.5271859473   -2.1295140514
  8        -10.1926851273   -2.2815219985    8.5284534218   -2.1300957983
  9        -10.1929632671   -2.2809620806    8.5290843811   -2.1303933136
 10        -10.1931100895   -2.2806822783    8.5293998452   -2.1305460626
 11        -10.1931885828   -2.2805418782    8.5295582201   -2.1306248009
 12        -10.1932309625   -2.2804711729    8.5296380158   -2.1306655459
 13        -10.1932540142   -2.2804354512    8.5296783476   -2.1306867097
 14        -10.1932666242   -2.2804173494    8.5296987927   -2.1306977435
 15        -10.1932735535   -2.2804081489    8.5297091868   -2.1307035175
 16        -10.1932773756   -2.2804034581    8.5297144867   -2.1307065505
 17        -10.1932794908   -2.2804010586    8.5297171976   -2.1307081499
 18        -10.1932806648   -2.2803998268    8.5297185890   -2.1307089965
 19        -10.1932813181   -2.2803991920    8.5297193057   -2.1307094466
 20        -10.1932816826   -2.2803988634    8.5297196763   -2.1307096867
 21        -10.1932818864   -2.2803986926    8.5297198688   -2.1307098154
 22        -10.1932820006   -2.2803986034    8.5297199692   -2.1307098847
 23        -10.1932820648   -2.2803985565    8.5297200219   -2.1307099221
Atom SCF converged after  23 iterations to a total energy of    -10.19328206

Atom SCF Calculation for O  : Z (AE atom) =   8 : Z (PS atom) =   6
Config String:
Orbitals (num,occ):  2     2.00 4.00
Orbitals   (num,l):  2        0    1
Real-space Grid (nr,dr,rmax): 1203    0.0066555740    8.0000000000
Spherical Bessel Basis (nsws,lmax,cutoff):   47    1  176.3951722778
Confining potential (l,width,scale):  0    3.0000000000  100.0000000000
Confining potential (l,width,scale):  1    3.0000000000  100.0000000000
  1         -1.9497477053   -7.5870966769   10.1554312477   -2.4822447765
  2        -15.9466298225   -3.1778351734   13.6353006614   -3.2931224232
  3        -16.0387051750   -3.0909030611   13.7305651010   -3.3194522996
  4        -15.9025031450   -3.1083023605   13.7128101414   -3.3180850501
  5        -15.8912953362   -3.1033022259   13.7185404266   -3.3206942093
  6        -15.8793912992   -3.1043100674   13.7175820250   -3.3209366960
  7        -15.8748748605   -3.1043975610   13.7175531476   -3.3211845618
  8        -15.8725354084   -3.1044655610   13.7175148333   -3.3213149154
  9        -15.8713193866   -3.1045129589   13.7174824743   -3.3213832909
 10        -15.8706863385   -3.1045436851   13.7174593895   -3.3214192053
 11        -15.8703562731   -3.1045627330   13.7174442347   -3.3214381098
 12        -15.8701839150   -3.1045741887   13.7174347673   -3.3214480859
 13        -15.8700937727   -3.1045809294   13.7174290448   -3.3214533647
 14        -15.8700465571   -3.1045848305   13.7174256662   -3.3214561658
 15        -15.8700217888   -3.1045870593   13.7174237063   -3.3214576563
 16        -15.8700087767   -3.1045883194   13.7174225849   -3.3214584516
 17        -15.8700019307   -3.1045890258   13.7174219502   -3.3214588771
 18        -15.8699983237   -3.1045894190   13.7174215942   -3.3214591053
 19        -15.8699964206   -3.1045896366   13.7174213960   -3.3214592281
 20        -15.8699954151   -3.1045897563   13.7174212864   -3.3214592942
 21        -15.8699948832   -3.1045898219   13.7174212260   -3.3214593299
 22        -15.8699946014   -3.1045898577   13.7174211930   -3.3214593493
 23        -15.8699944520   -3.1045898771   13.7174211750   -3.3214593597
 24        -15.8699943726   -3.1045898877   13.7174211652   -3.3214593654
Atom SCF converged after  24 iterations to a total energy of    -15.86999437

========================== Calculation in vacuum ==============================
= Adjusting the following parameters: 
= is_implicit_solvent: F
= is_include_apolar: F
= write_denskern: T
= write_tightbox_ngwfs: T
= restart read filename prefix: ""
= restart write filename prefix: "vacuum_"
===============================================================================

Determining parallel strategy ...
... using space-filling curve
... NGWF load balancing: max    109;  min    108;  average    108
... Projector load balancing: max     25;  min     21;  average     22
... done
Calculating direct Ion-Ion energy ...
Ion-Ion Energy        :    826821.40188413066790
Basis initialisation ...... NGWF spheres initialised
... Projector spheres initialised
... NGWF tight boxes initialised
... Tight-boxes gathered
... NGWF basis size (local,global):     931380  56013419
... Nonlocal pseudopotential projector initialisation
... done

========================== Sparse matrix information ===========================
                        Overlap matrix filling:   6.69%
                        Density kernel filling: 100.00%
              NGWF-Proj overlap matrix filling:   1.75%
                    Hamiltonian matrix filling:   7.53%
                  NGWF diagonal matrix filling:   0.05%
                             KS matrix filling: 100.00% 
                           KSKS matrix filling: 100.00% 
================================================================================

Sparse matrix initialisation ... done

Generating smeared ion density ... done
Smeared ion self correction:     -14457.169564
Smeared ion non-self correction: -826773.524518
NGWF initialisation ...... done
============ Calculation of NGWF S^-1 using Hotelling algorithm ================ 
         Iteration  |  Frobenius norm and Maximum abs value    (of I-S*S_n^-1)   
               1       0.78396623E+02     0.98189032E+00
               2       0.76483457E+02     0.96427169E+00
               3       0.73402099E+02     0.93040718E+00
               4       0.69052163E+02     0.86759317E+00
               5       0.63669110E+02     0.76029703E+00
               6       0.57661232E+02     0.69924479E+00
               7       0.51672957E+02     0.66521913E+00
               8       0.46128651E+02     0.64011955E+00
               9       0.39939112E+02     0.59837176E+00
              10       0.31468764E+02     0.52492924E+00
              11       0.20782130E+02     0.41786353E+00
              12       0.10322890E+02     0.27866239E+00
              13       0.32452577E+01     0.12923401E+00
              14       0.47052801E+00     0.29647215E-01
              15       0.18911791E-01     0.16450487E-02
              16       0.70530363E-04     0.76828572E-05
              17       0.16605504E-08     0.25288882E-09
              18       0.83553644E-13     0.48849813E-14
================================================================================
Calculating local pseudopotential in open BC on the fine real space grid ...
... done

MG BCs: +ve charge blocks (gridpoints):     20902 (   16438766).
MG BCs: -ve charge blocks (gridpoints):      8162 (    1097196).
MG BCs:     Elided blocks (gridpoints):    179738 (  178760503).
MG BCs: Computational effort saved:  99.9852%.
MG BCs: Charge after coarse-graining:           -9.0002355.
MG DL_MG: Calling solver with defect correction order = 8
MG DL_MG: Solver finished
MG Hartree energy from (\int phi*rho dr):              1452.601633
MG Hartree energy from (\int eps (grad phi)^2 dr):     1451.987377
MG Discrepancy due to finite box and discretization:     -0.614255 (  -0.04229%)
MG Correction to account for finite box:                  0.464423
MG Remaining discrepancy, due to discretization:         -0.149833 (  -0.01031%)
Up spin density kernel initialisation ... 
======= Optimisation of K by Palser-Manolopoulos canonical purification ======== 
         Iteration  |  Band structure energy |    c_n   
               1       -2577.08016561777004    0.5268165
               2       -2752.63187476941812    0.5171778
               3       -2932.52217599621235    0.5159935
               4       -3082.42905899250673    0.5306355
               5       -3174.02598767099153    0.5686111
               6       -3211.93872598014786    0.6140371
               7       -3224.84184893987367    0.6225362
               8       -3230.60436278838506    0.6169369
               9       -3233.45641714386784    0.6258728
              10       -3234.64546193731030    0.6544783
              11       -3235.08310092925149    0.6905074
              12       -3235.25019099079691    0.7009992
              13       -3235.33179820130226    0.6636554
              14       -3235.38582002176281    0.5962197
              15       -3235.42234238578385    0.5293300
              16       -3235.43944433448951    0.5037959
              17       -3235.44300284196834    0.5178940
              18       -3235.44367576046989    0.5119837
              19       -3235.44396097238587    0.5013320
              20       -3235.44419613001810    0.5000110
              21       -3235.44437835581039    0.5000000
              22       -3235.44445025136247    0.5000000
              23       -3235.44445795529464    0.5000001
              24       -3235.44445803097733    0.5000001
Termination criterion satisfied: band energy change below threshold.
Final occupancy bounds: [    0.00000000000013:    0.99999999999966]
Closest occupancy to 0.5:     0.99999999999906
================================================================================
... done

Writing density kernel to file "host_31641.vacuum_dkn" ... done

>>> Optimising kernel for current NGWFs:
   Initial electron number for spin 1:    7192.00000000
     Final electron number for spin 1:    7192.00000000

=================== Penalty functional idempotency correction ==================
 RMS occupancy error at iteration   1:  0.000000 (step -0.5000 Ne1=   7192.0000)
            Final RMS occupancy error   :  0.000000 (Ne1=   7192.0000)
               Final occupancy bounds   : [  0.0000,  1.0000]
================================================================================

................................................................................
<<<<<<<<<<<<<< LNV (Original version) density kernel optimisation >>>>>>>>>>>>>>
~~~~~~~~~~~~~~~~~~~~~~~~~~~~~~~~~~~~~~~~~~~~~~~~~~~~~~~~~~~~~~~~~~~~~~~~~~~~~~~~
   iter  |      energy (Eh)       | rms gradient |  commutator  |   dE (Eh)
MG BCs: +ve charge blocks (gridpoints):     31509 (   17513758).
MG BCs: -ve charge blocks (gridpoints):      8464 (    1126846).
MG BCs:     Elided blocks (gridpoints):    169124 (  177655861).
MG BCs: Computational effort saved:  99.9796%.
MG BCs: Charge after coarse-graining:           -9.0009911.
MG DL_MG: Calling solver with defect correction order = 8
MG DL_MG: Solver finished
MG Hartree energy from (\int phi*rho dr):              1416.360215
MG Hartree energy from (\int eps (grad phi)^2 dr):     1415.696087
MG Discrepancy due to finite box and discretization:     -0.664129 (  -0.04689%)
MG Correction to account for finite box:                  0.472133
MG Remaining discrepancy, due to discretization:         -0.191995 (  -0.01356%)
      ideal mu1:      -0.705362343373
             Q0:  -11526.397356969886
             G0:    -148.492348094239
   RMS gradient:       0.001873288800
MG BCs: +ve charge blocks (gridpoints):     31505 (   17595876).
MG BCs: -ve charge blocks (gridpoints):      8368 (    1109220).
MG BCs:     Elided blocks (gridpoints):    169130 (  177591369).
MG BCs: Computational effort saved:  99.9797%.
MG BCs: Charge after coarse-graining:           -9.0010097.
MG DL_MG: Calling solver with defect correction order = 8
MG DL_MG: Solver finished
MG Hartree energy from (\int phi*rho dr):              1435.402569
MG Hartree energy from (\int eps (grad phi)^2 dr):     1434.755362
MG Discrepancy due to finite box and discretization:     -0.647207 (  -0.04509%)
MG Correction to account for finite box:                  0.471443
MG Remaining discrepancy, due to discretization:         -0.175764 (  -0.01224%)
     Trial step:       0.500000000000
             Q1:  -11537.888931033667
 Quadratic coef:      62.754599983338
 Linear coef   :     -74.246174047119
           Qmin:  -11548.357876047765
Quadratic minimum step length (  0.295779807643) accepted
    Initial Ne1:    7192.00000000
      Final Ne1:    7192.00000000

=================== Penalty functional idempotency correction ==================
 RMS occupancy error at iteration   1:  0.003552 (step -0.4879 Ne1=   7192.0000)
 RMS occupancy error at iteration   2:  0.000027 (step -0.5000 Ne1=   7192.0000)
            Final RMS occupancy error   :  0.000000 (Ne1=   7192.0000)
               Final occupancy bounds   : [  0.0000,  1.0000]
================================================================================

    1        -1.152639735697E+04     1.8733E-03     1.6943E-03
MG BCs: +ve charge blocks (gridpoints):     31497 (   17563597).
MG BCs: -ve charge blocks (gridpoints):      8408 (    1116923).
MG BCs:     Elided blocks (gridpoints):    169138 (  177615945).
MG BCs: Computational effort saved:  99.9797%.
MG BCs: Charge after coarse-graining:           -9.0010022.
MG DL_MG: Calling solver with defect correction order = 8
MG DL_MG: Solver finished
MG Hartree energy from (\int phi*rho dr):              1419.369911
MG Hartree energy from (\int eps (grad phi)^2 dr):     1418.716786
MG Discrepancy due to finite box and discretization:     -0.653124 (  -0.04602%)
MG Correction to account for finite box:                  0.471622
MG Remaining discrepancy, due to discretization:         -0.181503 (  -0.01279%)
      ideal mu1:      -0.746021787974
             Q0:  -11548.811007806100
             G0:     -12.041004058886
   RMS gradient:       0.000529536218
MG BCs: +ve charge blocks (gridpoints):     31507 (   17581232).
MG BCs: -ve charge blocks (gridpoints):      8391 (    1112162).
MG BCs:     Elided blocks (gridpoints):    169128 (  177603071).
MG BCs: Computational effort saved:  99.9797%.
MG BCs: Charge after coarse-graining:           -9.0010057.
MG DL_MG: Calling solver with defect correction order = 8
MG DL_MG: Solver finished
MG Hartree energy from (\int phi*rho dr):              1423.850738
MG Hartree energy from (\int eps (grad phi)^2 dr):     1423.201410
MG Discrepancy due to finite box and discretization:     -0.649328 (  -0.04560%)
MG Correction to account for finite box:                  0.471091
MG Remaining discrepancy, due to discretization:         -0.178237 (  -0.01252%)
     Trial step:       0.384564563918
             Q1:  -11551.663280502893
 Quadratic coef:       1.778270778248
 Linear coef   :      -4.630543475041
           Qmin:  -11551.825443674996
Quadratic minimum step length (  0.500695100534) accepted
    Initial Ne1:    7191.99990901
      Final Ne1:    7192.00000000

=================== Penalty functional idempotency correction ==================
 RMS occupancy error at iteration   1:  0.001880 (step -0.4929 Ne1=   7192.0000)
 RMS occupancy error at iteration   2:  0.000010 (step -0.5001 Ne1=   7192.0000)
            Final RMS occupancy error   :  0.000000 (Ne1=   7192.0000)
               Final occupancy bounds   : [  0.0000,  1.0000]
================================================================================

    2        -1.154881100781E+04     5.2954E-04     4.7895E-04    -2.2414E+01
MG BCs: +ve charge blocks (gridpoints):     31515 (   17586718).
MG BCs: -ve charge blocks (gridpoints):      8385 (    1110693).
MG BCs:     Elided blocks (gridpoints):    169120 (  177599054).
MG BCs: Computational effort saved:  99.9797%.
MG BCs: Charge after coarse-graining:           -9.0010067.
MG DL_MG: Calling solver with defect correction order = 8
MG DL_MG: Solver finished
MG Hartree energy from (\int phi*rho dr):              1425.247687
MG Hartree energy from (\int eps (grad phi)^2 dr):     1424.599420
MG Discrepancy due to finite box and discretization:     -0.648267 (  -0.04548%)
MG Correction to account for finite box:                  0.470946
MG Remaining discrepancy, due to discretization:         -0.177322 (  -0.01244%)
      ideal mu1:      -0.768992238069
             Q0:  -11551.863175642444
             G0:      -1.883442390403
   RMS gradient:       0.000209695250
MG BCs: +ve charge blocks (gridpoints):     31526 (   17586390).
MG BCs: -ve charge blocks (gridpoints):      8383 (    1111291).
MG BCs:     Elided blocks (gridpoints):    169108 (  177598784).
MG BCs: Computational effort saved:  99.9797%.
MG BCs: Charge after coarse-graining:           -9.0010066.
MG DL_MG: Calling solver with defect correction order = 8
MG DL_MG: Solver finished
MG Hartree energy from (\int phi*rho dr):              1423.674036
MG Hartree energy from (\int eps (grad phi)^2 dr):     1423.026102
MG Discrepancy due to finite box and discretization:     -0.647934 (  -0.04551%)
MG Correction to account for finite box:                  0.470726
MG Remaining discrepancy, due to discretization:         -0.177208 (  -0.01245%)
     Trial step:       0.438804732190
             Q1:  -11552.340363027295
 Quadratic coef:       0.349276048866
 Linear coef   :      -0.826463433717
           Qmin:  -11552.352073900347
Quadratic minimum step length (  0.519153928353) accepted
    Initial Ne1:    7191.99995980
      Final Ne1:    7192.00000000

=================== Penalty functional idempotency correction ==================
 RMS occupancy error at iteration   1:  0.000616 (step -0.4975 Ne1=   7192.0000)
 RMS occupancy error at iteration   2:  0.000001 (step -0.5000 Ne1=   7192.0000)
            Final RMS occupancy error   :  0.000000 (Ne1=   7192.0000)
               Final occupancy bounds   : [  0.0000,  1.0000]
================================================================================

    3        -1.155186317564E+04     2.0970E-04     1.8966E-04    -3.0522E+00
MG BCs: +ve charge blocks (gridpoints):     31524 (   17586355).
MG BCs: -ve charge blocks (gridpoints):      8386 (    1111452).
MG BCs:     Elided blocks (gridpoints):    169110 (  177598658).
MG BCs: Computational effort saved:  99.9797%.
MG BCs: Charge after coarse-graining:           -9.0010065.
MG DL_MG: Calling solver with defect correction order = 8
MG DL_MG: Solver finished
MG Hartree energy from (\int phi*rho dr):              1423.392831
MG Hartree energy from (\int eps (grad phi)^2 dr):     1422.744949
MG Discrepancy due to finite box and discretization:     -0.647882 (  -0.04552%)
MG Correction to account for finite box:                  0.470686
MG Remaining discrepancy, due to discretization:         -0.177196 (  -0.01245%)
      ideal mu1:      -0.770239690960
             Q0:  -11552.356877345825
             G0:      -0.468570425956
   RMS gradient:       0.000104643470
MG BCs: +ve charge blocks (gridpoints):     31524 (   17587146).
MG BCs: -ve charge blocks (gridpoints):      8381 (    1111362).
MG BCs:     Elided blocks (gridpoints):    169110 (  177597957).
MG BCs: Computational effort saved:  99.9797%.
MG BCs: Charge after coarse-graining:           -9.0010066.
MG DL_MG: Calling solver with defect correction order = 8
MG DL_MG: Solver finished
MG Hartree energy from (\int phi*rho dr):              1424.436928
MG Hartree energy from (\int eps (grad phi)^2 dr):     1423.789098
MG Discrepancy due to finite box and discretization:     -0.647830 (  -0.04548%)
MG Correction to account for finite box:                  0.470567
MG Remaining discrepancy, due to discretization:         -0.177263 (  -0.01244%)
     Trial step:       0.477291525691
             Q1:  -11552.460593430325
 Quadratic coef:       0.119928608998
 Linear coef   :      -0.223644693498
           Qmin:  -11552.461141352029
Quadratic minimum step length (  0.445030247014) accepted
    Initial Ne1:    7191.99999126
      Final Ne1:    7192.00000000

=================== Penalty functional idempotency correction ==================
 RMS occupancy error at iteration   1:  0.000201 (step -0.4992 Ne1=   7192.0000)
 RMS occupancy error at iteration   2:  0.000000 (step -0.5000 Ne1=   7192.0000)
            Final RMS occupancy error   :  0.000000 (Ne1=   7192.0000)
               Final occupancy bounds   : [  0.0000,  1.0000]
================================================================================

    4        -1.155235687735E+04     1.0464E-04     9.4648E-05    -4.9370E-01
MG BCs: +ve charge blocks (gridpoints):     31524 (   17587099).
MG BCs: -ve charge blocks (gridpoints):      8381 (    1111354).
MG BCs:     Elided blocks (gridpoints):    169110 (  177598012).
MG BCs: Computational effort saved:  99.9797%.
MG BCs: Charge after coarse-graining:           -9.0010066.
MG DL_MG: Calling solver with defect correction order = 8
MG DL_MG: Solver finished
MG Hartree energy from (\int phi*rho dr):              1424.366076
MG Hartree energy from (\int eps (grad phi)^2 dr):     1423.718243
MG Discrepancy due to finite box and discretization:     -0.647833 (  -0.04548%)
MG Correction to account for finite box:                  0.470575
MG Remaining discrepancy, due to discretization:         -0.177258 (  -0.01244%)
      ideal mu1:      -0.770387898737
             Q0:  -11552.461646112381
             G0:      -0.107885895980
   RMS gradient:       0.000050379069
MG BCs: +ve charge blocks (gridpoints):     31525 (   17587241).
MG BCs: -ve charge blocks (gridpoints):      8383 (    1111226).
MG BCs:     Elided blocks (gridpoints):    169109 (  177597998).
MG BCs: Computational effort saved:  99.9797%.
MG BCs: Charge after coarse-graining:           -9.0010066.
MG DL_MG: Calling solver with defect correction order = 8
MG DL_MG: Solver finished
MG Hartree energy from (\int phi*rho dr):              1424.788164
MG Hartree energy from (\int eps (grad phi)^2 dr):     1424.140190
MG Discrepancy due to finite box and discretization:     -0.647974 (  -0.04548%)
MG Correction to account for finite box:                  0.470564
MG Remaining discrepancy, due to discretization:         -0.177410 (  -0.01245%)
     Trial step:       0.460878688568
             Q1:  -11552.488340265118
 Quadratic coef:       0.023028157517
 Linear coef   :      -0.049722310254
           Qmin:  -11552.488486168248
Quadratic minimum step length (  0.497563757019) accepted
    Initial Ne1:    7191.99999773
      Final Ne1:    7192.00000000

=================== Penalty functional idempotency correction ==================
 RMS occupancy error at iteration   1:  0.000069 (step -0.4997 Ne1=   7192.0000)
            Final RMS occupancy error   :  0.000000 (Ne1=   7192.0000)
               Final occupancy bounds   : [ -0.0000,  1.0000]
================================================================================

    5        -1.155246164611E+04     5.0379E-05     4.5567E-05    -1.0477E-01
MG BCs: +ve charge blocks (gridpoints):     31525 (   17587245).
MG BCs: -ve charge blocks (gridpoints):      8384 (    1111203).
MG BCs:     Elided blocks (gridpoints):    169109 (  177598017).
MG BCs: Computational effort saved:  99.9797%.
MG BCs: Charge after coarse-graining:           -9.0010066.
MG DL_MG: Calling solver with defect correction order = 8
MG DL_MG: Solver finished
MG Hartree energy from (\int phi*rho dr):              1424.821766
MG Hartree energy from (\int eps (grad phi)^2 dr):     1424.173781
MG Discrepancy due to finite box and discretization:     -0.647985 (  -0.04548%)
MG Correction to account for finite box:                  0.470563
MG Remaining discrepancy, due to discretization:         -0.177422 (  -0.01245%)
      ideal mu1:      -0.770288609566
             Q0:  -11552.488542747917
             G0:      -0.030639466268
   RMS gradient:       0.000026871756
MG BCs: +ve charge blocks (gridpoints):     31524 (   17586880).
MG BCs: -ve charge blocks (gridpoints):      8384 (    1111409).
MG BCs:     Elided blocks (gridpoints):    169110 (  177598176).
MG BCs: Computational effort saved:  99.9797%.
MG BCs: Charge after coarse-graining:           -9.0010065.
MG DL_MG: Calling solver with defect correction order = 8
MG DL_MG: Solver finished
MG Hartree energy from (\int phi*rho dr):              1424.168011
MG Hartree energy from (\int eps (grad phi)^2 dr):     1423.520026
MG Discrepancy due to finite box and discretization:     -0.647984 (  -0.04550%)
MG Correction to account for finite box:                  0.470565
MG Remaining discrepancy, due to discretization:         -0.177420 (  -0.01246%)
     Trial step:       0.478870057337
             Q1:  -11552.498083499144
 Quadratic coef:       0.005131571741
 Linear coef   :      -0.014672322968
           Qmin:  -11552.499030619478
Quadratic minimum step length (  0.684598841814) accepted
    Initial Ne1:    7192.00032673
      Final Ne1:    7192.00000000

=================== Penalty functional idempotency correction ==================
 RMS occupancy error at iteration   1:  0.000037 (step -0.4998 Ne1=   7192.0000)
            Final RMS occupancy error   :  0.000000 (Ne1=   7192.0000)
               Final occupancy bounds   : [ -0.0000,  1.0000]
================================================================================

    6        -1.155248854275E+04     2.6872E-05     2.4305E-05    -2.6897E-02
MG BCs: +ve charge blocks (gridpoints):     31524 (   17586706).
MG BCs: -ve charge blocks (gridpoints):      8383 (    1111466).
MG BCs:     Elided blocks (gridpoints):    169110 (  177598293).
MG BCs: Computational effort saved:  99.9797%.
MG BCs: Charge after coarse-graining:           -9.0010065.
MG DL_MG: Calling solver with defect correction order = 8
MG DL_MG: Solver finished
MG Hartree energy from (\int phi*rho dr):              1423.886532
MG Hartree energy from (\int eps (grad phi)^2 dr):     1423.238548
MG Discrepancy due to finite box and discretization:     -0.647984 (  -0.04551%)
MG Correction to account for finite box:                  0.470565
MG Remaining discrepancy, due to discretization:         -0.177419 (  -0.01246%)
      ideal mu1:      -0.770057584506
             Q0:  -11552.499040390830
             G0:      -0.015495140165
   RMS gradient:       0.000019135969
MG BCs: +ve charge blocks (gridpoints):     31525 (   17587197).
MG BCs: -ve charge blocks (gridpoints):      8384 (    1111223).
MG BCs:     Elided blocks (gridpoints):    169109 (  177598045).
MG BCs: Computational effort saved:  99.9797%.
MG BCs: Charge after coarse-graining:           -9.0010066.
MG DL_MG: Calling solver with defect correction order = 8
MG DL_MG: Solver finished
MG Hartree energy from (\int phi*rho dr):              1424.504064
MG Hartree energy from (\int eps (grad phi)^2 dr):     1423.856128
MG Discrepancy due to finite box and discretization:     -0.647936 (  -0.04549%)
MG Correction to account for finite box:                  0.470540
MG Remaining discrepancy, due to discretization:         -0.177396 (  -0.01245%)
     Trial step:       0.572567800904
             Q1:  -11552.503076636349
 Quadratic coef:       0.004835772810
 Linear coef   :      -0.008872018329
           Qmin:  -11552.503109684008
Quadratic minimum step length (  0.525234768445) accepted
    Initial Ne1:    7192.00011522
      Final Ne1:    7192.00000000

=================== Penalty functional idempotency correction ==================
 RMS occupancy error at iteration   1:  0.000002 (step -0.5000 Ne1=   7192.0000)
            Final RMS occupancy error   :  0.000000 (Ne1=   7192.0000)
               Final occupancy bounds   : [  0.0000,  1.0000]
================================================================================

    7        -1.155249904039E+04     1.9136E-05     1.7308E-05    -1.0498E-02
MG BCs: +ve charge blocks (gridpoints):     31525 (   17587168).
MG BCs: -ve charge blocks (gridpoints):      8384 (    1111241).
MG BCs:     Elided blocks (gridpoints):    169109 (  177598056).
MG BCs: Computational effort saved:  99.9797%.
MG BCs: Charge after coarse-graining:           -9.0010065.
MG DL_MG: Calling solver with defect correction order = 8
MG DL_MG: Solver finished
MG Hartree energy from (\int phi*rho dr):              1424.452942
MG Hartree energy from (\int eps (grad phi)^2 dr):     1423.805002
MG Discrepancy due to finite box and discretization:     -0.647940 (  -0.04549%)
MG Correction to account for finite box:                  0.470542
MG Remaining discrepancy, due to discretization:         -0.177398 (  -0.01245%)
      ideal mu1:      -0.770368907662
             Q0:  -11552.503109806683
             G0:      -0.009353934567
   RMS gradient:       0.000014868643
MG BCs: +ve charge blocks (gridpoints):     31525 (   17587180).
MG BCs: -ve charge blocks (gridpoints):      8385 (    1111241).
MG BCs:     Elided blocks (gridpoints):    169109 (  177598044).
MG BCs: Computational effort saved:  99.9797%.
MG BCs: Charge after coarse-graining:           -9.0010066.
MG DL_MG: Calling solver with defect correction order = 8
MG DL_MG: Solver finished
MG Hartree energy from (\int phi*rho dr):              1424.506699
MG Hartree energy from (\int eps (grad phi)^2 dr):     1423.858808
MG Discrepancy due to finite box and discretization:     -0.647891 (  -0.04548%)
MG Correction to account for finite box:                  0.470522
MG Remaining discrepancy, due to discretization:         -0.177369 (  -0.01245%)
     Trial step:       0.548390842672
             Q1:  -11552.507013547583
 Quadratic coef:       0.001225871159
 Linear coef   :      -0.005129612059
           Qmin:  -11552.508475974179
Quadratic minimum step length (  1.147360494639) accepted
    Initial Ne1:    7192.00015057
      Final Ne1:    7192.00000000

=================== Penalty functional idempotency correction ==================
 RMS occupancy error at iteration   1:  0.000031 (step -0.4990 Ne1=   7192.0000)
            Final RMS occupancy error   :  0.000000 (Ne1=   7192.0000)
               Final occupancy bounds   : [ -0.0000,  1.0000]
================================================================================

    8        -1.155250310981E+04     1.4869E-05     1.3448E-05    -4.0694E-03
MG BCs: +ve charge blocks (gridpoints):     31525 (   17587268).
MG BCs: -ve charge blocks (gridpoints):      8385 (    1111194).
MG BCs:     Elided blocks (gridpoints):    169109 (  177598003).
MG BCs: Computational effort saved:  99.9797%.
MG BCs: Charge after coarse-graining:           -9.0010066.
MG DL_MG: Calling solver with defect correction order = 8
MG DL_MG: Solver finished
MG Hartree energy from (\int phi*rho dr):              1424.562951
MG Hartree energy from (\int eps (grad phi)^2 dr):     1423.915116
MG Discrepancy due to finite box and discretization:     -0.647835 (  -0.04548%)
MG Correction to account for finite box:                  0.470499
MG Remaining discrepancy, due to discretization:         -0.177336 (  -0.01245%)
      ideal mu1:      -0.770420181282
             Q0:  -11552.508457939839
             G0:      -0.015352759633
   RMS gradient:       0.000019107410
MG BCs: +ve charge blocks (gridpoints):     31524 (   17587130).
MG BCs: -ve charge blocks (gridpoints):      8383 (    1111326).
MG BCs:     Elided blocks (gridpoints):    169110 (  177598009).
MG BCs: Computational effort saved:  99.9797%.
MG BCs: Charge after coarse-graining:           -9.0010066.
MG DL_MG: Calling solver with defect correction order = 8
MG DL_MG: Solver finished
MG Hartree energy from (\int phi*rho dr):              1424.206566
MG Hartree energy from (\int eps (grad phi)^2 dr):     1423.558837
MG Discrepancy due to finite box and discretization:     -0.647730 (  -0.04548%)
MG Correction to account for finite box:                  0.470442
MG Remaining discrepancy, due to discretization:         -0.177288 (  -0.01245%)
     Trial step:       0.793222534037
             Q1:  -11552.516416607425
 Quadratic coef:       0.004219487315
 Linear coef   :      -0.012178154901
           Qmin:  -11552.517244994149
Quadratic minimum step length (  1.144687277082) accepted
    Initial Ne1:    7192.00068942
      Final Ne1:    7192.00000000

=================== Penalty functional idempotency correction ==================
 RMS occupancy error at iteration   1:  0.000226 (step -0.4924 Ne1=   7192.0000)
 RMS occupancy error at iteration   2:  0.000002 (step -0.5000 Ne1=   7192.0000)
            Final RMS occupancy error   :  0.000000 (Ne1=   7192.0000)
               Final occupancy bounds   : [  0.0000,  1.0000]
================================================================================

    9        -1.155250845794E+04     1.9107E-05     1.7282E-05    -5.3481E-03
MG BCs: +ve charge blocks (gridpoints):     31524 (   17587130).
MG BCs: -ve charge blocks (gridpoints):      8383 (    1111358).
MG BCs:     Elided blocks (gridpoints):    169110 (  177597977).
MG BCs: Computational effort saved:  99.9797%.
MG BCs: Charge after coarse-graining:           -9.0010065.
MG DL_MG: Calling solver with defect correction order = 8
MG DL_MG: Solver finished
MG Hartree energy from (\int phi*rho dr):              1424.042282
MG Hartree energy from (\int eps (grad phi)^2 dr):     1423.394606
MG Discrepancy due to finite box and discretization:     -0.647677 (  -0.04548%)
MG Correction to account for finite box:                  0.470412
MG Remaining discrepancy, due to discretization:         -0.177265 (  -0.01245%)
      ideal mu1:      -0.769849091088
   10        -1.155251705769E+04     2.3887E-05     2.1606E-05    -8.5997E-03
Finished density kernel iterations (  10)

Writing density kernel to file "host_31641.vacuum_dkn" ... done


>>> Density kernel optimised for the current NGWF basis:
     ~~~~~~~~~~~~~~~~~~~~~~~~~~~~~~~~~~~~~~~~~~~~~~~~~~~~~~~~~~~
     Total energy                =  -1.15525170576865E+04  Eh
     Estimated bandgap           =  -2.9779E-01  Eh
     RMS occupancy error         =   1.5236E-10
     [H,K] commutator            =   2.1606E-05
     Occupancy bounds            = [  0.000:  1.000]
     ~~~~~~~~~~~~~~~~~~~~~~~~~~~~~~~~~~~~~~~~~~~~~~~~~~~~~~~~~~~




################################################################################
########################### NGWF CG iteration  001 #############################
################################################################################
****** Reciprocal space K.E. preconditioning with k_zero =  3.5000 a0^-1 *******

>>> Checking for convergence of NGWFs:   NOT CONVERGED
  ========================================================================
         NGWF RMS gradient =  1.5766E-03 >  2.0000E-06  | above tolerance
  ========================================================================

>>> Improving NGWFs using line search:
============ Calculation of NGWF S^-1 using Hotelling algorithm ================ 
         Iteration  |  Frobenius norm and Maximum abs value    (of I-S*S_n^-1)   
               1       0.19587553E+00     0.49477991E-02
               2       0.88899423E-03     0.35132537E-04
               3       0.31034619E-07     0.20977032E-08
               4       0.12364874E-12     0.71054274E-14
================================================================================
MG BCs: +ve charge blocks (gridpoints):     31005 (   17535941).
MG BCs: -ve charge blocks (gridpoints):      8395 (    1110973).
MG BCs:     Elided blocks (gridpoints):    169630 (  177649551).
MG BCs: Computational effort saved:  99.9799%.
MG BCs: Charge after coarse-graining:           -9.0010063.
MG DL_MG: Calling solver with defect correction order = 8
MG DL_MG: Solver finished
MG Hartree energy from (\int phi*rho dr):              1392.356060
MG Hartree energy from (\int eps (grad phi)^2 dr):     1391.709204
MG Discrepancy due to finite box and discretization:     -0.646856 (  -0.04646%)
MG Correction to account for finite box:                  0.470350
MG Remaining discrepancy, due to discretization:         -0.176506 (  -0.01268%)
============ Calculation of NGWF S^-1 using Hotelling algorithm ================ 
         Iteration  |  Frobenius norm and Maximum abs value    (of I-S*S_n^-1)   
               1       0.18806722E+01     0.40501159E-01
               2       0.73625261E-01     0.21757235E-02
               3       0.15121716E-03     0.73044018E-05
               4       0.11677085E-08     0.11472590E-09
               5       0.10790356E-12     0.51070259E-14
================================================================================
------------------------------- NGWF line search -------------------------------
RMS gradient                =       0.00157656521685
Trial step length           =               0.122474
Gradient along search dir.  =       -274.37947949546
Functional at step 0        =  -11552.51705768646207
Functional at step 1        =  -11583.59427896840498
Functional predicted        =  -11664.22493090962962
Selected quadratic step     =               0.814258
--------------------------- NGWF line search finished --------------------------
                                               
Writing NGWFs to file "host_31641.vacuum_tightbox_ngwfs"....  done

>>> Optimising kernel for current NGWFs:
   Initial electron number for spin 1:    7227.59538336
     Final electron number for spin 1:    7192.00000000

=================== Penalty functional idempotency correction ==================
 RMS occupancy error at iteration   1:  0.004287 (step -0.4862 Ne1=   7192.0000)
 RMS occupancy error at iteration   2:  0.000069 (step -0.5003 Ne1=   7192.0000)
            Final RMS occupancy error   :  0.000000 (Ne1=   7192.0000)
               Final occupancy bounds   : [  0.0000,  1.0000]
================================================================================

................................................................................
<<<<<<<<<<<<<< LNV (Original version) density kernel optimisation >>>>>>>>>>>>>>
~~~~~~~~~~~~~~~~~~~~~~~~~~~~~~~~~~~~~~~~~~~~~~~~~~~~~~~~~~~~~~~~~~~~~~~~~~~~~~~~
   iter  |      energy (Eh)       | rms gradient |  commutator  |   dE (Eh)
MG BCs: +ve charge blocks (gridpoints):     25159 (   17319715).
MG BCs: -ve charge blocks (gridpoints):      8565 (    1093021).
MG BCs:     Elided blocks (gridpoints):    175481 (  177883729).
MG BCs: Computational effort saved:  99.9828%.
MG BCs: Charge after coarse-graining:           -9.0006744.
MG DL_MG: Calling solver with defect correction order = 8
MG DL_MG: Solver finished
MG Hartree energy from (\int phi*rho dr):              1236.424940
MG Hartree energy from (\int eps (grad phi)^2 dr):     1235.778512
MG Discrepancy due to finite box and discretization:     -0.646428 (  -0.05228%)
MG Correction to account for finite box:                  0.470043
MG Remaining discrepancy, due to discretization:         -0.176386 (  -0.01427%)
      ideal mu1:      -0.709132785079
             Q0:  -11663.248108724598
             G0:      -9.832667230703
   RMS gradient:       0.000482045874
MG BCs: +ve charge blocks (gridpoints):     25248 (   17351677).
MG BCs: -ve charge blocks (gridpoints):      8531 (    1083708).
MG BCs:     Elided blocks (gridpoints):    175392 (  177861080).
MG BCs: Computational effort saved:  99.9828%.
MG BCs: Charge after coarse-graining:           -9.0006666.
MG DL_MG: Calling solver with defect correction order = 8
MG DL_MG: Solver finished
MG Hartree energy from (\int phi*rho dr):              1264.908129
MG Hartree energy from (\int eps (grad phi)^2 dr):     1264.254662
MG Discrepancy due to finite box and discretization:     -0.653467 (  -0.05166%)
MG Correction to account for finite box:                  0.469616
MG Remaining discrepancy, due to discretization:         -0.183851 (  -0.01453%)
     Trial step:       0.952886007142
             Q1:  -11659.258928901167
 Quadratic coef:      13.358590840453
 Linear coef   :      -9.369411017022
           Qmin:  -11664.890981536828
Quadratic minimum step length (  0.334166258998) accepted
    Initial Ne1:    7191.99959627
      Final Ne1:    7192.00000000

=================== Penalty functional idempotency correction ==================
 RMS occupancy error at iteration   1:  0.000365 (step -0.4985 Ne1=   7192.0000)
 RMS occupancy error at iteration   2:  0.000000 (step -0.5000 Ne1=   7192.0000)
            Final RMS occupancy error   :  0.000000 (Ne1=   7192.0000)
               Final occupancy bounds   : [  0.0000,  1.0000]
================================================================================

    1        -1.166324810872E+04     4.8205E-04     4.3600E-04
MG BCs: +ve charge blocks (gridpoints):     25194 (   17331000).
MG BCs: -ve charge blocks (gridpoints):      8548 (    1089884).
MG BCs:     Elided blocks (gridpoints):    175446 (  177875581).
MG BCs: Computational effort saved:  99.9828%.
MG BCs: Charge after coarse-graining:           -9.0006716.
MG DL_MG: Calling solver with defect correction order = 8
MG DL_MG: Solver finished
MG Hartree energy from (\int phi*rho dr):              1244.924234
MG Hartree energy from (\int eps (grad phi)^2 dr):     1244.275481
MG Discrepancy due to finite box and discretization:     -0.648753 (  -0.05211%)
MG Correction to account for finite box:                  0.469866
MG Remaining discrepancy, due to discretization:         -0.178888 (  -0.01437%)
      ideal mu1:      -0.716880893281
             Q0:  -11664.845881387009
             G0:      -0.999961247435
   RMS gradient:       0.000155309267
MG BCs: +ve charge blocks (gridpoints):     25195 (   17332251).
MG BCs: -ve charge blocks (gridpoints):      8549 (    1090249).
MG BCs:     Elided blocks (gridpoints):    175445 (  177873965).
MG BCs: Computational effort saved:  99.9828%.
MG BCs: Charge after coarse-graining:           -9.0006713.
MG DL_MG: Calling solver with defect correction order = 8
MG DL_MG: Solver finished
MG Hartree energy from (\int phi*rho dr):              1246.835228
MG Hartree energy from (\int eps (grad phi)^2 dr):     1246.186179
MG Discrepancy due to finite box and discretization:     -0.649049 (  -0.05206%)
MG Correction to account for finite box:                  0.469864
MG Remaining discrepancy, due to discretization:         -0.179185 (  -0.01437%)
     Trial step:       0.564289245209
             Q1:  -11665.033373320824
 Quadratic coef:       0.376775443738
 Linear coef   :      -0.564267377553
           Qmin:  -11665.057146265508
Quadratic minimum step length (  0.422546131745) accepted
    Initial Ne1:    7191.99994699
      Final Ne1:    7192.00000000

=================== Penalty functional idempotency correction ==================
 RMS occupancy error at iteration   1:  0.000145 (step -0.4994 Ne1=   7192.0000)
            Final RMS occupancy error   :  0.000000 (Ne1=   7192.0000)
               Final occupancy bounds   : [ -0.0000,  1.0000]
================================================================================

    2        -1.166484588139E+04     1.5531E-04     1.4047E-04    -1.5978E+00
MG BCs: +ve charge blocks (gridpoints):     25195 (   17331976).
MG BCs: -ve charge blocks (gridpoints):      8550 (    1090168).
MG BCs:     Elided blocks (gridpoints):    175445 (  177874321).
MG BCs: Computational effort saved:  99.9828%.
MG BCs: Charge after coarse-graining:           -9.0006713.
MG DL_MG: Calling solver with defect correction order = 8
MG DL_MG: Solver finished
MG Hartree energy from (\int phi*rho dr):              1246.353654
MG Hartree energy from (\int eps (grad phi)^2 dr):     1245.704683
MG Discrepancy due to finite box and discretization:     -0.648971 (  -0.05207%)
MG Correction to account for finite box:                  0.469864
MG Remaining discrepancy, due to discretization:         -0.179107 (  -0.01437%)
      ideal mu1:      -0.718214091820
             Q0:  -11665.057687694440
             G0:      -0.155400190250
   RMS gradient:       0.000060529091
MG BCs: +ve charge blocks (gridpoints):     25194 (   17331010).
MG BCs: -ve charge blocks (gridpoints):      8551 (    1090701).
MG BCs:     Elided blocks (gridpoints):    175446 (  177874754).
MG BCs: Computational effort saved:  99.9828%.
MG BCs: Charge after coarse-graining:           -9.0006714.
MG DL_MG: Calling solver with defect correction order = 8
MG DL_MG: Solver finished
MG Hartree energy from (\int phi*rho dr):              1245.711037
MG Hartree energy from (\int eps (grad phi)^2 dr):     1245.062113
MG Discrepancy due to finite box and discretization:     -0.648924 (  -0.05209%)
MG Correction to account for finite box:                  0.469854
MG Remaining discrepancy, due to discretization:         -0.179070 (  -0.01437%)
     Trial step:       0.488301380039
             Q1:  -11665.106364201871
 Quadratic coef:       0.027205619926
 Linear coef   :      -0.075882127358
           Qmin:  -11665.110600449854
Quadratic minimum step length (  0.680987009471) accepted
    Initial Ne1:    7192.00067823
      Final Ne1:    7192.00000000

=================== Penalty functional idempotency correction ==================
 RMS occupancy error at iteration   1:  0.000068 (step -0.4997 Ne1=   7192.0000)
            Final RMS occupancy error   :  0.000000 (Ne1=   7192.0000)
               Final occupancy bounds   : [ -0.0000,  1.0000]
================================================================================

    3        -1.166505768769E+04     6.0529E-05     5.4747E-05    -2.1181E-01
MG BCs: +ve charge blocks (gridpoints):     25193 (   17330628).
MG BCs: -ve charge blocks (gridpoints):      8551 (    1090936).
MG BCs:     Elided blocks (gridpoints):    175447 (  177874901).
MG BCs: Computational effort saved:  99.9828%.
MG BCs: Charge after coarse-graining:           -9.0006714.
MG DL_MG: Calling solver with defect correction order = 8
MG DL_MG: Solver finished
MG Hartree energy from (\int phi*rho dr):              1245.457293
MG Hartree energy from (\int eps (grad phi)^2 dr):     1244.808387
MG Discrepancy due to finite box and discretization:     -0.648905 (  -0.05210%)
MG Correction to account for finite box:                  0.469849
MG Remaining discrepancy, due to discretization:         -0.179056 (  -0.01438%)
      ideal mu1:      -0.717056454827
             Q0:  -11665.110704391380
             G0:      -0.036783632292
   RMS gradient:       0.000029437854
MG BCs: +ve charge blocks (gridpoints):     25193 (   17330852).
MG BCs: -ve charge blocks (gridpoints):      8552 (    1090839).
MG BCs:     Elided blocks (gridpoints):    175447 (  177874774).
MG BCs: Computational effort saved:  99.9828%.
MG BCs: Charge after coarse-graining:           -9.0006714.
MG DL_MG: Calling solver with defect correction order = 8
MG DL_MG: Solver finished
MG Hartree energy from (\int phi*rho dr):              1245.598369
MG Hartree energy from (\int eps (grad phi)^2 dr):     1244.949569
MG Discrepancy due to finite box and discretization:     -0.648800 (  -0.05209%)
MG Correction to account for finite box:                  0.469850
MG Remaining discrepancy, due to discretization:         -0.178951 (  -0.01437%)
     Trial step:       0.576651451497
             Q1:  -11665.120156139950
 Quadratic coef:       0.011759586381
 Linear coef   :      -0.021211334952
           Qmin:  -11665.120269369176
Quadratic minimum step length (  0.520067062393) accepted
    Initial Ne1:    7192.00026420
      Final Ne1:    7192.00000000

=================== Penalty functional idempotency correction ==================
 RMS occupancy error at iteration   1:  0.000020 (step -0.4999 Ne1=   7192.0000)
            Final RMS occupancy error   :  0.000000 (Ne1=   7192.0000)
               Final occupancy bounds   : [ -0.0000,  1.0000]
================================================================================

    4        -1.166511070439E+04     2.9438E-05     2.6626E-05    -5.3017E-02
MG BCs: +ve charge blocks (gridpoints):     25193 (   17330822).
MG BCs: -ve charge blocks (gridpoints):      8552 (    1090856).
MG BCs:     Elided blocks (gridpoints):    175447 (  177874787).
MG BCs: Computational effort saved:  99.9828%.
MG BCs: Charge after coarse-graining:           -9.0006714.
MG DL_MG: Calling solver with defect correction order = 8
MG DL_MG: Solver finished
MG Hartree energy from (\int phi*rho dr):              1245.584366
MG Hartree energy from (\int eps (grad phi)^2 dr):     1244.935556
MG Discrepancy due to finite box and discretization:     -0.648811 (  -0.05209%)
MG Correction to account for finite box:                  0.469850
MG Remaining discrepancy, due to discretization:         -0.178961 (  -0.01437%)
      ideal mu1:      -0.717186375835
             Q0:  -11665.120274989400
             G0:      -0.013183962371
   RMS gradient:       0.000017647370
MG BCs: +ve charge blocks (gridpoints):     25192 (   17331420).
MG BCs: -ve charge blocks (gridpoints):      8551 (    1090624).
MG BCs:     Elided blocks (gridpoints):    175448 (  177874421).
MG BCs: Computational effort saved:  99.9828%.
MG BCs: Charge after coarse-graining:           -9.0006712.
MG DL_MG: Calling solver with defect correction order = 8
MG DL_MG: Solver finished
MG Hartree energy from (\int phi*rho dr):              1246.015370
MG Hartree energy from (\int eps (grad phi)^2 dr):     1245.366609
MG Discrepancy due to finite box and discretization:     -0.648761 (  -0.05207%)
MG Correction to account for finite box:                  0.469834
MG Remaining discrepancy, due to discretization:         -0.178927 (  -0.01436%)
     Trial step:       0.547628913047
             Q1:  -11665.124040766386
 Quadratic coef:       0.003454141997
 Linear coef   :      -0.007219918983
           Qmin:  -11665.124047795365
Quadratic minimum step length (  0.572332635423) accepted
    Initial Ne1:    7192.00012134
      Final Ne1:    7192.00000000

=================== Penalty functional idempotency correction ==================
 RMS occupancy error at iteration   1:  0.000012 (step -0.4999 Ne1=   7192.0000)
            Final RMS occupancy error   :  0.000000 (Ne1=   7192.0000)
               Final occupancy bounds   : [ -0.0000,  1.0000]
================================================================================

    5        -1.166512027499E+04     1.7647E-05     1.5962E-05    -9.5706E-03
MG BCs: +ve charge blocks (gridpoints):     25192 (   17331449).
MG BCs: -ve charge blocks (gridpoints):      8551 (    1090618).
MG BCs:     Elided blocks (gridpoints):    175448 (  177874398).
MG BCs: Computational effort saved:  99.9828%.
MG BCs: Charge after coarse-graining:           -9.0006712.
MG DL_MG: Calling solver with defect correction order = 8
MG DL_MG: Solver finished
MG Hartree energy from (\int phi*rho dr):              1246.034833
MG Hartree energy from (\int eps (grad phi)^2 dr):     1245.386074
MG Discrepancy due to finite box and discretization:     -0.648759 (  -0.05207%)
MG Correction to account for finite box:                  0.469833
MG Remaining discrepancy, due to discretization:         -0.178926 (  -0.01436%)
      ideal mu1:      -0.717547827290
             Q0:  -11665.124049142702
             G0:      -0.004706668072
   RMS gradient:       0.000010544673
MG BCs: +ve charge blocks (gridpoints):     25192 (   17331303).
MG BCs: -ve charge blocks (gridpoints):      8551 (    1090673).
MG BCs:     Elided blocks (gridpoints):    175448 (  177874489).
MG BCs: Computational effort saved:  99.9828%.
MG BCs: Charge after coarse-graining:           -9.0006713.
MG DL_MG: Calling solver with defect correction order = 8
MG DL_MG: Solver finished
MG Hartree energy from (\int phi*rho dr):              1245.938779
MG Hartree energy from (\int eps (grad phi)^2 dr):     1245.290034
MG Discrepancy due to finite box and discretization:     -0.648745 (  -0.05207%)
MG Correction to account for finite box:                  0.469823
MG Remaining discrepancy, due to discretization:         -0.178922 (  -0.01436%)
     Trial step:       0.559844531131
             Q1:  -11665.125763366814
 Quadratic coef:       0.000920778268
 Linear coef   :      -0.002635002380
           Qmin:  -11665.125934297299
Quadratic minimum step length (  0.801056955561) accepted
    Initial Ne1:    7192.00008337
      Final Ne1:    7192.00000000

=================== Penalty functional idempotency correction ==================
 RMS occupancy error at iteration   1:  0.000011 (step -0.4997 Ne1=   7192.0000)
            Final RMS occupancy error   :  0.000000 (Ne1=   7192.0000)
               Final occupancy bounds   : [ -0.0000,  1.0000]
================================================================================

    6        -1.166512404914E+04     1.0545E-05     9.5374E-06    -3.7742E-03
MG BCs: +ve charge blocks (gridpoints):     25192 (   17331244).
MG BCs: -ve charge blocks (gridpoints):      8551 (    1090711).
MG BCs:     Elided blocks (gridpoints):    175448 (  177874510).
MG BCs: Computational effort saved:  99.9828%.
MG BCs: Charge after coarse-graining:           -9.0006713.
MG DL_MG: Calling solver with defect correction order = 8
MG DL_MG: Solver finished
MG Hartree energy from (\int phi*rho dr):              1245.897278
MG Hartree energy from (\int eps (grad phi)^2 dr):     1245.248539
MG Discrepancy due to finite box and discretization:     -0.648739 (  -0.05207%)
MG Correction to account for finite box:                  0.469818
MG Remaining discrepancy, due to discretization:         -0.178920 (  -0.01436%)
      ideal mu1:      -0.717411084855
             Q0:  -11665.125933794770
             G0:      -0.003372731630
   RMS gradient:       0.000008927782
MG BCs: +ve charge blocks (gridpoints):     25192 (   17331147).
MG BCs: -ve charge blocks (gridpoints):      8552 (    1090739).
MG BCs:     Elided blocks (gridpoints):    175448 (  177874579).
MG BCs: Computational effort saved:  99.9828%.
MG BCs: Charge after coarse-graining:           -9.0006713.
MG DL_MG: Calling solver with defect correction order = 8
MG DL_MG: Solver finished
MG Hartree energy from (\int phi*rho dr):              1245.843271
MG Hartree energy from (\int eps (grad phi)^2 dr):     1245.194519
MG Discrepancy due to finite box and discretization:     -0.648752 (  -0.05207%)
MG Correction to account for finite box:                  0.469821
MG Remaining discrepancy, due to discretization:         -0.178931 (  -0.01436%)
     Trial step:       0.669677053284
             Q1:  -11665.126673653955
 Quadratic coef:       0.001518781795
 Linear coef   :      -0.002258640979
           Qmin:  -11665.126773523540
Quadratic minimum step length (  0.497951726905) accepted
    Initial Ne1:    7192.00005264
      Final Ne1:    7192.00000000

=================== Penalty functional idempotency correction ==================
 RMS occupancy error at iteration   1:  0.000001 (step -0.5000 Ne1=   7192.0000)
            Final RMS occupancy error   :  0.000000 (Ne1=   7192.0000)
               Final occupancy bounds   : [  0.0000,  1.0000]
================================================================================

    7        -1.166512593379E+04     8.9278E-06     8.0750E-06    -1.8847E-03
MG BCs: +ve charge blocks (gridpoints):     25192 (   17331166).
MG BCs: -ve charge blocks (gridpoints):      8551 (    1090737).
MG BCs:     Elided blocks (gridpoints):    175448 (  177874562).
MG BCs: Computational effort saved:  99.9828%.
MG BCs: Charge after coarse-graining:           -9.0006713.
MG DL_MG: Calling solver with defect correction order = 8
MG DL_MG: Solver finished
MG Hartree energy from (\int phi*rho dr):              1245.857039
MG Hartree energy from (\int eps (grad phi)^2 dr):     1245.208290
MG Discrepancy due to finite box and discretization:     -0.648749 (  -0.05207%)
MG Correction to account for finite box:                  0.469820
MG Remaining discrepancy, due to discretization:         -0.178928 (  -0.01436%)
      ideal mu1:      -0.717328481359
             Q0:  -11665.126773521188
             G0:      -0.002248109888
   RMS gradient:       0.000007288840
MG BCs: +ve charge blocks (gridpoints):     25192 (   17331180).
MG BCs: -ve charge blocks (gridpoints):      8551 (    1090730).
MG BCs:     Elided blocks (gridpoints):    175448 (  177874555).
MG BCs: Computational effort saved:  99.9828%.
MG BCs: Charge after coarse-graining:           -9.0006713.
MG DL_MG: Calling solver with defect correction order = 8
MG DL_MG: Solver finished
MG Hartree energy from (\int phi*rho dr):              1245.818749
MG Hartree energy from (\int eps (grad phi)^2 dr):     1245.169996
MG Discrepancy due to finite box and discretization:     -0.648754 (  -0.05207%)
MG Correction to account for finite box:                  0.469817
MG Remaining discrepancy, due to discretization:         -0.178936 (  -0.01436%)
     Trial step:       0.577465882241
             Q1:  -11665.127802375820
 Quadratic coef:       0.000269352127
 Linear coef   :      -0.001298206760
           Qmin:  -11665.128337775393
Quadratic minimum step length (  1.391617210011) accepted
    Initial Ne1:    7192.00009782
      Final Ne1:    7192.00000000

=================== Penalty functional idempotency correction ==================
 RMS occupancy error at iteration   1:  0.000021 (step -0.4990 Ne1=   7192.0000)
            Final RMS occupancy error   :  0.000000 (Ne1=   7192.0000)
               Final occupancy bounds   : [ -0.0000,  1.0000]
================================================================================

    8        -1.166512677352E+04     7.2888E-06     6.5926E-06    -8.3973E-04
MG BCs: +ve charge blocks (gridpoints):     25192 (   17331160).
MG BCs: -ve charge blocks (gridpoints):      8551 (    1090719).
[...]
MG Correction to account for finite box:                  0.006399
MG Remaining discrepancy, due to discretization:         -0.178435 (  -0.01483%)
     Trial step:       0.270287713562
             Q1:  -11698.614493798581
 Quadratic coef:       0.000000000236
 Linear coef   :      -0.000000000119
           Qmin:  -11698.614493798712
Quadratic minimum step length (  0.068151551319) accepted
    Initial Ne1:    7192.00000000
      Final Ne1:    7192.00000000

=================== Penalty functional idempotency correction ==================
 RMS occupancy error at iteration   1:  0.000000 (step -0.5000 Ne1=   7192.0000)
            Final RMS occupancy error   :  0.000000 (Ne1=   7192.0000)
               Final occupancy bounds   : [  0.0000,  1.0000]
================================================================================

    7        -1.169861449380E+04     3.2290E-09     2.9205E-09    -1.1642E-10

Reusing previously generated solute cavity.
MG BCs: +ve charge blocks (gridpoints):     29157 (   19520797).
MG BCs: -ve charge blocks (gridpoints):      8541 (    1059988).
MG BCs:     Elided blocks (gridpoints):    171483 (  175715680).
MG BCs: Computational effort saved:  99.9808%.
MG BCs: Charge after coarse-graining:           -9.0009794.
MG DL_MG: Calling solver with defect correction order = 8
MG DL_MG: Solver finished
MG Hartree energy from (\int phi*rho dr):              1202.980526
MG Hartree energy from (\int eps (grad phi)^2 dr):     1202.795693
MG Discrepancy due to finite box and discretization:     -0.184834 (  -0.01536%)
MG Correction to account for finite box:                  0.006399
MG Remaining discrepancy, due to discretization:         -0.178435 (  -0.01483%)
      ideal mu1:      -0.483758840760
             Q0:  -11698.614493798581
             G0:      -0.000000000750
   RMS gradient:       0.000000003027

Reusing previously generated solute cavity.
MG BCs: +ve charge blocks (gridpoints):     29157 (   19520797).
MG BCs: -ve charge blocks (gridpoints):      8541 (    1059988).
MG BCs:     Elided blocks (gridpoints):    171483 (  175715680).
MG BCs: Computational effort saved:  99.9808%.
MG BCs: Charge after coarse-graining:           -9.0009794.
MG DL_MG: Calling solver with defect correction order = 8
MG DL_MG: Solver finished
MG Hartree energy from (\int phi*rho dr):              1202.980520
MG Hartree energy from (\int eps (grad phi)^2 dr):     1202.795687
MG Discrepancy due to finite box and discretization:     -0.184834 (  -0.01536%)
MG Correction to account for finite box:                  0.006399
MG Remaining discrepancy, due to discretization:         -0.178435 (  -0.01483%)
     Trial step:       0.135722242030
             Q1:  -11698.614493798581
 Quadratic coef:       0.000000000102
 Linear coef   :      -0.000000000102
           Qmin:  -11698.614493798606
Quadratic minimum step length (  0.067857334252) accepted
    Initial Ne1:    7192.00000000
      Final Ne1:    7192.00000000

=================== Penalty functional idempotency correction ==================
 RMS occupancy error at iteration   1:  0.000000 (step -0.5000 Ne1=   7192.0000)
            Final RMS occupancy error   :  0.000000 (Ne1=   7192.0000)
               Final occupancy bounds   : [  0.0000,  1.0000]
================================================================================

    8        -1.169861449380E+04     3.0267E-09     2.7376E-09     1.1642E-10

Reusing previously generated solute cavity.
MG BCs: +ve charge blocks (gridpoints):     29157 (   19520797).
MG BCs: -ve charge blocks (gridpoints):      8541 (    1059988).
MG BCs:     Elided blocks (gridpoints):    171483 (  175715680).
MG BCs: Computational effort saved:  99.9808%.
MG BCs: Charge after coarse-graining:           -9.0009794.
MG DL_MG: Calling solver with defect correction order = 8
MG DL_MG: Solver finished
MG Hartree energy from (\int phi*rho dr):              1202.980523
MG Hartree energy from (\int eps (grad phi)^2 dr):     1202.795690
MG Discrepancy due to finite box and discretization:     -0.184834 (  -0.01536%)
MG Correction to account for finite box:                  0.006399
MG Remaining discrepancy, due to discretization:         -0.178435 (  -0.01483%)
      ideal mu1:      -0.483758837833
             Q0:  -11698.614493798581
             G0:      -0.000000000831
   RMS gradient:       0.000000002693

Reusing previously generated solute cavity.
MG BCs: +ve charge blocks (gridpoints):     29157 (   19520797).
MG BCs: -ve charge blocks (gridpoints):      8541 (    1059988).
MG BCs:     Elided blocks (gridpoints):    171483 (  175715680).
MG BCs: Computational effort saved:  99.9808%.
MG BCs: Charge after coarse-graining:           -9.0009794.
MG DL_MG: Calling solver with defect correction order = 8
MG DL_MG: Solver finished
MG Hartree energy from (\int phi*rho dr):              1202.980518
MG Hartree energy from (\int eps (grad phi)^2 dr):     1202.795684
MG Discrepancy due to finite box and discretization:     -0.184834 (  -0.01536%)
MG Correction to account for finite box:                  0.006399
MG Remaining discrepancy, due to discretization:         -0.178435 (  -0.01483%)
     Trial step:       0.095967440014
             Q1:  -11698.614493798465
 Quadratic coef:       0.000000000196
 Linear coef   :      -0.000000000080
           Qmin:  -11698.614493798588
Quadratic minimum step length (  0.019472527171) accepted
    Initial Ne1:    7192.00000000
      Final Ne1:    7192.00000000

=================== Penalty functional idempotency correction ==================
 RMS occupancy error at iteration   1:  0.000000 (step -0.5000 Ne1=   7192.0000)
            Final RMS occupancy error   :  0.000000 (Ne1=   7192.0000)
               Final occupancy bounds   : [  0.0000,  1.0000]
================================================================================

    9        -1.169861449380E+04     2.6929E-09     2.4356E-09     0.0000E+00

Reusing previously generated solute cavity.
MG BCs: +ve charge blocks (gridpoints):     29157 (   19520797).
MG BCs: -ve charge blocks (gridpoints):      8541 (    1059988).
MG BCs:     Elided blocks (gridpoints):    171483 (  175715680).
MG BCs: Computational effort saved:  99.9808%.
MG BCs: Charge after coarse-graining:           -9.0009794.
MG DL_MG: Calling solver with defect correction order = 8
MG DL_MG: Solver finished
MG Hartree energy from (\int phi*rho dr):              1202.980522
MG Hartree energy from (\int eps (grad phi)^2 dr):     1202.795688
MG Discrepancy due to finite box and discretization:     -0.184834 (  -0.01536%)
MG Correction to account for finite box:                  0.006399
MG Remaining discrepancy, due to discretization:         -0.178435 (  -0.01483%)
      ideal mu1:      -0.483758836774
   10        -1.169861449380E+04     2.5848E-09     2.3379E-09     0.0000E+00
Finished density kernel iterations (  10)

Writing density kernel to file "host_31641.dkn" ... done


>>> Density kernel optimised for the current NGWF basis:
     ~~~~~~~~~~~~~~~~~~~~~~~~~~~~~~~~~~~~~~~~~~~~~~~~~~~~~~~~~~~
     Total energy                =  -1.16986144937986E+04  Eh
     Estimated bandgap           =   7.5866E-02  Eh
     RMS occupancy error         =   3.4131E-16
     [H,K] commutator            =   2.3379E-09
     Occupancy bounds            = [ -0.000:  1.000]
     ~~~~~~~~~~~~~~~~~~~~~~~~~~~~~~~~~~~~~~~~~~~~~~~~~~~~~~~~~~~




################################################################################
########################### NGWF CG iteration  005 #############################
################################################################################
****** Reciprocal space K.E. preconditioning with k_zero =  3.5000 a0^-1 *******

>>> Checking for convergence of NGWFs: 
           ........................................................
           |         *** NGWF optimisation converged ***          |
           | RMS NGWF gradient =    0.00000090725524              |
           | Criteria satisfied:                                  |
           | -> RMS NGWF gradient lower than set threshold.       |
           ========================================================

Reusing previously generated solute cavity.
MG BCs: +ve charge blocks (gridpoints):     29157 (   19520797).
MG BCs: -ve charge blocks (gridpoints):      8541 (    1059988).
MG BCs:     Elided blocks (gridpoints):    171483 (  175715680).
MG BCs: Computational effort saved:  99.9808%.
MG BCs: Charge after coarse-graining:           -9.0009794.
MG DL_MG: Calling solver with defect correction order = 8
MG DL_MG: Solver finished
MG Hartree energy from (\int phi*rho dr):              1202.980522
MG Hartree energy from (\int eps (grad phi)^2 dr):     1202.795688
MG Discrepancy due to finite box and discretization:     -0.184834 (  -0.01536%)
MG Correction to account for finite box:                  0.006399
MG Remaining discrepancy, due to discretization:         -0.178435 (  -0.01483%)

================================================================================
           ---------------- ENERGY COMPONENTS (Eh) ----------------
           | Kinetic                    :     8557.96002434475304 |
           | Pseudo. (local,OBC,corr'd) :    -5073.34347074629750 |
           | Pseudopotential (non-local):     1403.90770746684757 |
           | Hartree (molecular)        :     1202.98052237672732 |
           | Exchange-correlation       :    -3381.48193535261225 |
           | Ion-ion (open BC)          :   826821.40188413066790 |
           | Smeared ion non-self corr. :  -826773.52451799809933 |
           | Smeared ion self corr.     :   -14457.16956389741972 |
           | Solvent cavitation energy  :        2.32982612060591 |
           | Solute-solvent dis-rep en. :       -1.67497024375660 |
           | Total                      :   -11698.61449379866099 |
           --------------------------------------------------------
           ------ LOCAL ENERGY COMPONENTS FROM MATRIX TRACES ------
           | Pseudopotential (local)    :    -5073.34347074630023 |
           | Hartree                    :    -1996.06626038936247 |
           --------------------------------------------------------
           Integrated density           :     7191.99999999889042
           Integrated density tr(KS)    :     7192.00000000000000
================================================================================


                        <<<<< CALCULATION SUMMARY >>>>>                         
|ITER|    RMS GRADIENT   |     TOTAL ENERGY    |   step   |     Epredicted              
   0     0.00003919600824 -11698.55338256817777   0.621569 -11698.60608984933424        
   1     0.00000998999295 -11698.61388679395895   0.091379 -11698.61439014914140        
   2     0.00000444275274 -11698.61447183392011   0.016952 -11698.61449030218682        
   3     0.00000200111903 -11698.61449288029689   0.003496 -11698.61449365290173        
   4     0.00000090725524 -11698.61449379858095  <-- CG                                 

=================== Finished the calculation in solvent ========================
= Adjusting the following parameters: 
= read_denskern: F
= read_tightbox_ngwfs: F
= maxit_pen: 0 (restored to user-specified value)
= restart read filename prefix: ""
= restart write filename prefix: ""
================================================================================

================================================================================
IS: Calculation in solvent completed (NGWFs converged).      

Individual components of total energy in solvent:     hartree           kcal/mol
- Usual non-electrostatic DFT terms:    -12902.24987205215621    -8096283.855792
- Electrostatic fixed charge energy:      1202.98052237672732      754881.658528
- Apolar cavitation energy:                  2.32982612060591        1461.987932
- Apolar dispersion-repulsion energy:       -1.67497024375660       -1051.059674
 -------------------------------------------------------------------------------
- Total energy in solvent:              -11698.61449379858095    -7340991.269007

Components of total energy in solvent:                hartree           kcal/mol
- Usual non-electrostatic DFT terms:    -12902.24987205215621    -8096283.855792
- Electrostatic energy:                   1202.98052237672732      754881.658528
- Apolar energy terms:                       0.65485587684931         410.928258
 -------------------------------------------------------------------------------
- Total energy in solvent:              -11698.61449379858095    -7340991.269007

Calculation of free energy of solvation:              hartree           kcal/mol
- Total energy in solvent:         (+)  -11698.61449379858095    -7340991.269007
- Total energy in vacuum:          (-)  -11694.75305686099455    -7338568.180798
 -------------------------------------------------------------------------------
- Total free energy of solvation:           -3.86143693758640       -2423.088209

Components of polar term in f.e. of solvation:        hartree           kcal/mol
- Electrostatic:                            -4.53462590058211       -2845.520652
- Change in nonelectrostatic DFT terms:      0.01833308614732          11.504185
 -------------------------------------------------------------------------------
- Polar term in f.e. of solvation:          -4.51629281443479       -2834.016467

Components of free energy of solvation:               hartree           kcal/mol
- Polar term in f.e. of solvation: (+)      -4.51629281443479       -2834.016467
- Apolar (cavitation, dis., rep.): (+)       0.65485587684931         410.928258
 -------------------------------------------------------------------------------
- Total free energy of solvation:           -3.86143693758549       -2423.088209
================================================================================


------------------------------ TIMING INFORMATION ------------------------------
AVERAGE TIME:   42095.047s on     60 node(s)                                    
TOTAL TIME:     42095.047s on     60 node(s)                                    
================= AVERAGE TIMINGS FROM ALL NODES (CUMULATIVE) ==================
|| TAG                                    #calls    cpu time   %total  Gflops ||
|| work_imbalance                       :     1        0.00s   0.000%  ------ ||
|| sparse_set_to_garbage                :   212        0.03s   0.000%  ------ ||
|| parallel_prepare_fd_halos_request    :  2301        0.04s   0.000%  ------ ||
|| ngwfs_initialise_from_radial         :     1        0.11s   0.000%  ------ ||
|| basis_extract_function_from_box      :  4228        0.18s   0.000%  ------ ||
|| parallel_prepare_fd_halos_alloc      :  2301        0.27s   0.001%  ------ ||
|| parallel_prepare_fd_halos_satisfy    :  2301        0.75s   0.002%  ------ ||
|| pseudopotentials_nonlocal_mat        :    36        3.10s   0.007%  ------ ||
|| restart_ngwfs_tightbox_input         :     1        3.74s   0.009%  ------ ||
|| openbc_locps_radial                  :     1        4.71s   0.011%  ------ ||
|| density_init_guess_real              :     1        9.23s   0.022%  ------ ||
|| restart_kernel_read                  :     1        9.99s   0.024%  ------ ||
|| parallel_prepare_fd_halos_comms_imbal:  2301       13.93s   0.033%  ------ ||
|| sparse_init                          :     2       22.40s   0.053%  ------ ||
|| parallel_prepare_fd_halos_clear      :  2301       22.55s   0.054%  ------ ||
|| parallel_prepare_fd_halos_comms_wait :  2301       32.08s   0.076%  ------ ||
|| projectors_func_ovlp_box             :    36       32.84s   0.078%  ------ ||
|| palser_mano_kernel_optimise          :     1       33.08s   0.079%  ------ ||
|| function_ops_brappd_ketppd           :    36       37.43s   0.089%  ------ ||
|| projectors_init_fftbox_recip         :   169       41.57s   0.099%  ------ ||
|| pseudo_make_structure_factor         :     2       51.96s   0.123%  ------ ||
|| basis_copy_function_to_box           : 68736       53.21s   0.126%  ------ ||
|| ngwf_gradient_coeffs                 :    19       59.41s   0.141%  ------ ||
|| fourier_apply_box_pair               :  6078       64.11s   0.152% 584.722 ||
|| parallel_prepare_fd_halos            :  2301       69.63s   0.165%  ------ ||
|| sparse_embed_hotelling_invert_embed  :    36       91.61s   0.218%  ------ ||
|| restart_kernel_write                 :    20      154.84s   0.368%  ------ ||
|| finite_difference_derivative         :  2301      172.69s   0.410%  ------ ||
|| integrals_kinetic                    :    36      183.57s   0.436%  ------ ||
|| projectors_gradient_batch            :   133      187.11s   0.444%  ------ ||
|| basis_dot_function_with_box          : 10.33M     201.16s   0.478%  ------ ||
|| sparse_trace                         :  6094      234.74s   0.558%  ------ ||
|| openbc_locps_on_grid                 :     2      271.50s   0.645%  ------ ||
|| kernel_purify                        :   587      356.98s   0.848%  ------ ||
|| basis_add_function_to_box            : 21.61M     501.76s   1.192%  ------ ||
|| lnv_gradient_norm                    :   190      525.98s   1.249%  ------ ||
|| hamiltonian_energy_components        :     4      543.69s   1.292%  ------ ||
|| kernel_fix                           :   190      599.88s   1.425%  ------ ||
|| integrals_locpot_mat_els_batch       :  1393      918.79s   2.183%  ------ ||
|| ngwf_gradient_build_batch            :   133      957.89s   2.276%  ------ ||
|| density_batch_row_sums               :  2674     1324.84s   3.147%  ------ ||
|| ngwf_gradient_batch                  :   133     1329.74s   3.159%  ------ ||
|| ngwf_gradient_lnv                    :    19     1517.84s   3.606%  ------ ||
|| cell_grid_deposit_box_real           : 43982     1589.06s   3.775%  ------ ||
|| fourier_apply_cell_forward           : 10725     1686.30s   4.006%  87.850 ||
|| restart_ngwfs_tightbox_output        :    17     1774.18s   4.215%  ------ ||
|| cell_grid_extract_box_real           : 48473     1842.11s   4.376%  ------ ||
|| fourier_apply_cell_backward          : 11493     1894.34s   4.500%  83.803 ||
|| sparse_product                       :  7744     2191.81s   5.207%  ------ ||
|| density_fftbox_deposit_to_cell       : 41638     2326.55s   5.527%  ------ ||
|| potential_apply_to_ngwf_batch        :  1393     4413.54s  10.485%  ------ ||
|| density_fftbox_interpolate_multiply  : 41638     4699.66s  11.164%  ------ ||
|| xc_energy_potential                  :   383     4710.18s  11.189%  ------ ||
|| integrals_locpot_dbl_grid            :   199     5354.63s  12.720%  ------ ||
|| multigrid_prepare_bound_cond         :   383     5434.72s  12.911%  ------ ||
|| fourier_apply_box                    : 143.3k    5741.10s  13.638% 745.843 ||
|| nlxc_vdw_energy                      :   766     7719.84s  18.339%  ------ ||
|| density_batch_interp_deposit         :  2674     8135.03s  19.325%  ------ ||
|| dl_mg_solver_calls                   :   383     8896.16s  21.134%  ------ ||
|| density_on_dbl_grid                  :   382     9962.22s  23.666%  ------ ||
|| multigrid_calculate_hartree          :   383    14569.09s  34.610%  ------ ||
|| hamiltonian_lhxc_calculate           :   378    29210.15s  69.391%  ------ ||
|| lnv_denskernel_optimise_cg           :    19    35494.86s  84.321%  ------ ||
|| ngwf_cg_optimise                     :     2    41146.49s  97.747%  ------ ||
|| total_time                           :     1    42095.05s 100.000%  ------ ||
================================================================================
Overhead of generating timer report: 
- 0 ms averaging over threads,
- 46 ms ensuring consistency across MPI ranks,
- 0 ms printing in order.

Job completed: 03-04-2020 00:43 (+0100)

Application 40075631 resources: utime ~8329237s, stime ~291216s, Rss ~3856784, inblocks ~415691689, outblocks ~80654068
