 +---------------------------------------------------------------+
 |                                                               |
 |        ####### #     # ####### ####### ####### ######         |
 |        #     # ##    # #          #    #       #     #        |
 |        #     # # #   # #          #    #       #     #        |
 |        #     # #  #  # #####      #    #####   ######         |
 |        #     # #   # # #          #    #       #              |
 |        #     # #    ## #          #    #       #              |
 |        ####### #     # #######    #    ####### #              |
 |                                                               |
 |        Linear-Scaling Ab Initio Total Energy Program          |
 |                                                               |
 |          Release for academic collaborators of ODG            |
 |                                             Version 5.3.2.6.  |
 |                                                               |
 +---------------------------------------------------------------+
 |                                                               |
 |  Authors:                                                     |
 |  Jacek Dziedzic, Peter D. Haynes, Nicholas D. M. Hine,        |
 |  Arash. A. Mostofi, Mike C. Payne and Chris-Kriton Skylaris   |
 |                                                               |
 |  Contributors:                                                |
 |  J. Aarons, L. Andrinopoulos, P. W. Avraam, R. A. Bell,       |
 |  A. Bhandari, G. A. Bramley, R. J. Charlton, S. J. Clark,     |
 |  R. J. Clements, G. C. Constantinescu, F. Corsetti,           |
 |  N. Corsini, O. Dieguez, S. M. M. Dubois, K. K. B. Duff,      |
 |  J. M. Escartin, A. Greco, H. Helal, Q. O. Hill, L. P. Lee,   |
 |  J.-H. Li, E. B. Linscott, G. Moynihan, D. D. O`Regan,        |
 |  O. K. Okan, M. J. S. Phipps, C. J. Pickard,                  |
 |  J. C. A. Prentice, M. I. J. Probert, L. E. Ratcliff,         |
 |  M. Robinson, A. Ruiz Serrano, J. S. Spencer, E. W. Tait,     |
 |  G. Teobaldi, D. Turban, V. Vitale, K. A. Wilkinson,          |
 |  C. Weber, J. C. Womack, N. Yeung and T. J. Zuehlsdorff       |
 |                                                               |
 |                                   Copyright (c) 2004-2019     |
 |                                                               |
 |  Please cite:                                                 |
 |  "Introducing ONETEP: Linear-scaling density functional       |
 |   simulations on parallel computers".                         |
 |   C.-K. Skylaris, P. D. Haynes, A. A. Mostofi, M. C. Payne.   |
 |   J. Chem. Phys. 122 084119 (2005).                           |
 |                                                               |
 |          in all publications arising from your use of ONETEP. |
 |                                                               |
 +---------------------------------------------------------------+
 |                                                               |
 |   ONETEP is based on developments described in the following  |
 |   publications:                                               |
 |                                                               |
 |  "Nonorthogonal generalized Wannier function pseudopotential  |
 |   plane-wave method".                                         |
 |   C.-K. Skylaris, A. A. Mostofi, P. D. Haynes, O. Dieguez,    |
 |   M. C. Payne.                                                |
 |   Phys. Rev. B 66 035119 (2002).                              |
 |                                                               |
 |  "Preconditioned iterative minimization for linear-scaling    |
 |   electronic structure calculations".                         |
 |   A. A. Mostofi, P. D. Haynes, C.-K. Skylaris, M. C. Payne.   |
 |   J. Chem. Phys. 119(17), pp.8842-8848 (2003).                |
 |                                                               |
 |  "Total-energy calculations on a real space grid with         |
 |   localized functions and a plane-wave basis".                |
 |   A. A. Mostofi, C.-K. Skylaris, P. D. Haynes, M. C. Payne.   |
 |   Comput. Phys. Commun. 147, pp.788-802 (2002).               |
 |                                                               |
 |  "Accurate kinetic energy evaluation in electronic structure  |
 |   calculations with localized functions on real space grids"  |
 |   C.-K. Skylaris, A. A. Mostofi, P. D. Haynes, C. J. Pickard, |
 |   M. C. Payne.                                                |
 |   Comput. Phys. Commun. 140, pp.315-322 (2001).               |
 |                                                               |
 |  "Accurate ionic forces and geometry optimization in linear-  |
 |   scaling density-functional theory with local orbitals"      |
 |   N. D. M. Hine, M. Robinson, P. D. Haynes, C.-K. Skylaris,   |
 |   M. C. Payne, and A. A. Mostofi.                             |
 |   Phys. Rev. B 83 195102 (2011).                              |
 |                                                               |
 +---------------------------------------------------------------+

Job started: 09-03-2020 07:32 (-0000)
 
Reading parameters from file "complex_8841.dat" ...... done

If your calculation crashes here, before "Checking processes and threads..."
is displayed, then your stack size is insufficient.
If so, use "ulimit -s unlimited" at runtime.
You can disable this check with "check_stack_size F".

Checking processes and threads...
   Determining the default number of threads...
      No default threads set at compilation time: defaulting to 1.
      OpenMP library call suggests 4 threads.
      Hybrid MPI-OpenMP compilation detected.
      Number of MPI processes > 1.
      OMP_NUM_THREADS environment variable present and
      its value matches the one obtained from the OpenMP library call.
      Using this value as default.
      Default threads: 4
      Default applies to threads_max and threads_num_fftboxes.
      Settings in the input file override this default.
   ... done

   Running with 60 MPI processes.
   There are 6 MPI processes running on the same node as the root process.
   Each MPI process is using: 
               1 threads for simulation cell FFTs.
               1 threads for parallel FFT box operations.
               4 threads for loops over batched FFT box operations.
               4 threads in other parallel regions.
... done

Basic input checks...... done

Reading geometry and species blocks from file "complex_8841.dat" ...
  <species_atomic_set> block not found: NGWF initialisation set to SOLVE
IS: Dielectric excluded regions:
    - NONE.
    
  Number of PPD points along a3 set to 1.  This is 
  the default value, it may have been provided also in the input file.
... done
 Writing xyz coordinates to file "complex_8841.xyz" ... done


--------------------------------------------------------------------------------
---------------------------------- INPUT FILE ----------------------------------
--------------------------------------------------------------------------------

cutoff_energy       : 800 eV                                                    
xc_functional PBE                                                               
task SINGLEPOINT                                                                
write_xyz true                                                                  
output_detail VERBOSE                                                           
ngwf_threshold_orig : 0.000002                                                  
kernel_cutoff       : 1000                                                      
k_zero              : 3.5                                                       
elec_cg_max 0                                                                   
occ_mix 1.0                                                                     
dispersion 1                                                                    
maxit_ngwf_cg 40                                                                
minit_lnv 10                                                                    
maxit_lnv 10                                                                    
write_denskern T                                                                
write_tightbox_ngwfs T                                                          
charge 9                                                                        
is_implicit_solvent T                                                           
is_auto_solvation T                                                             
is_include_apolar T                                                             
is_smeared_ion_rep T                                                            
is_solvent_surf_tension 4.7624E-5 Ha/bohr**2                                    
is_apolar_scaling_factor 0.281075                                               
is_solvation_beta 1.3                                                           
is_density_threshold 0.00035                                                    
is_bulk_permittivity 78.54                                                      
is_dielectric_model fix_initial                                                 
is_smeared_ion_width 0.8                                                        
mg_defco_fd_order 8                                                             
is_bc_coarseness 10                                                             
is_bc_surface_coarseness 1                                                      
fine_grid_scale 2.0                                                             
%block species                                                                  
N   N   7 4 8.0                                                                 
H   H   1 1 8.0                                                                 
C   C   6 4 8.0                                                                 
S   S  16 9 8.0                                                                 
O   O   8 4 8.0                                                                 
%endblock species                                                               
%block species_pot                                                              
N   N_00.recpot                                                                 
H   H_04.recpot                                                                 
C   C_01.recpot                                                                 
S   S_00.recpot                                                                 
O   O_02.recpot                                                                 
%endblock species_pot                                                           
%block lattice_cart                                                             
139.252   0.000   0.000                                                         
0.000 142.425   0.000                                                           
0.000   0.000   162.84                                                          
%endblock lattice_cart                                                          
%block positions_abs                                                            
     Hash =   000000814820758411760682
%endblock positions_abs                                                         

--------------------------------------------------------------------------------
-------------------------------- END INPUT FILE --------------------------------
--------------------------------------------------------------------------------


 
 ESDF WARNING(1): "kernelcutoff" (esdf_physical) has no units. Assume "bohr".
 ESDF WARNING(2): "kzero" (esdf_physical) has no units. Assume "1/bohr".
 ESDF WARNING(3
 ): "issmearedionwidth" (esdf_physical) has no units. Assume "bohr".
<<<<<<<<<<<<<<<<<<<<<<<<<<<<<<<<< Full system >>>>>>>>>>>>>>>>>>>>>>>>>>>>>>>>>>
<<<<<<<<<<<<<<<<<<<<<<<<< Pseudopotential information >>>>>>>>>>>>>>>>>>>>>>>>>>
File: N_00.recpot [ 2001 points up to Gmax=  52.9 (1/bohr)]
  Atomic number:  7;  ionic charge:  5.000000
    Shell 1: l = 0; rc = 1.48 bohr
File: H_04.recpot [ 2001 points up to Gmax=  52.9 (1/bohr)]
  Atomic number:  1;  ionic charge:  1.000000
    Local potential
File: C_01.recpot [ 2001 points up to Gmax=  52.9 (1/bohr)]
  Atomic number:  6;  ionic charge:  4.000000
    Shell 1: l = 0; rc = 1.48 bohr
File: S_00.recpot [ 2001 points up to Gmax=  52.9 (1/bohr)]
  Atomic number: 16;  ionic charge:  6.000000
    Shell 1: l = 0; rc = 1.90 bohr
    Shell 2: l = 2; rc = 1.84 bohr
File: O_02.recpot [ 2001 points up to Gmax=  52.9 (1/bohr)]
  Atomic number:  8;  ionic charge:  6.000000
    Shell 1: l = 0; rc = 1.31 bohr
<<<<<<<<<<<<<<<<<<<<<<<<<<<<<<<<<<<<<<<<>>>>>>>>>>>>>>>>>>>>>>>>>>>>>>>>>>>>>>>>

-------------------------- Atom counting information ---------------------------
Symbol    Natoms    Nngwfs    Nprojs
  N        237       948       237
  H       1318      1318         0
  C        816      3264       816
  S          6        54        36
  O        240       960       240
.......   ......    ......    ......
Totals:   2617      6544      1329
--------------------------------------------------------------------------------

=============================== PSINC grid sizes ===============================
                      Simulation cell:  275 x 280 x 320
                              FFT-box:   99 x  99 x  99
                                  PPD:    5 x   5 x   1
Grid space d1=  0.506370909091a0 (KE cutoff=  29.62556Eh = 806.15239eV)
Grid space d2=  0.508660714286a0 (KE cutoff=  29.35943Eh = 798.91072eV)
Grid space d3=  0.508875000000a0 (KE cutoff=  29.33471Eh = 798.23802eV)
================================================================================

********************* Fourier parallelisation information **********************
       Coarse grid (whole simulation cell) dimensions:    275   280   320
          Real-space ('12') slabs/node (min max mean):      5     6     5
         Recip-space ('23') slabs/node (min max mean):      2     3     2
********************************************************************************

********************* Fourier parallelisation information **********************
       Double grid (whole simulation cell) dimensions:    550   560   640
          Real-space ('12') slabs/node (min max mean):     10    11    10
         Recip-space ('23') slabs/node (min max mean):      4     5     4
********************************************************************************
ONETEP fine grid is 550 x 560 x 640 gridpoints, 139.2520 x 142.4250 x 162.8400 bohr.
FD multigrid is     545 x 553 x 633 gridpoints, 137.9861 x 140.6447 x 161.0589 bohr.


Calculating local pseudopotential in open BC on a radial grid ...
Discrepancy between calculated realspace psloc and -Z/x on [5a0,257.280a0]:
max |rel. diff| # avg |rel. diff| #  avg rel. diff #  f # pseudopotential file
 0.000256370913    0.000003612608   0.000000072509   55  'N_00.recpot'
 0.000395389207    0.000016224277  -0.000000076597   55  'H_04.recpot'
 0.000377360759    0.000017565724   0.000000149252   55  'C_01.recpot'
 0.000469715301    0.000020587835   0.000000455518   55  'S_00.recpot'
 0.000665442002    0.000026079317   0.000000158685   55  'O_02.recpot'
... done

Atom SCF Calculation for N  : Z (AE atom) =   7 : Z (PS atom) =   5
Config String:
Orbitals (num,occ):  2     2.00 3.00
Orbitals   (num,l):  2        0    1
Real-space Grid (nr,dr,rmax): 1203    0.0066555740    8.0000000000
Spherical Bessel Basis (nsws,lmax,cutoff):   47    1  176.3951722778
Confining potential (l,width,scale):  0    3.0000000000  100.0000000000
Confining potential (l,width,scale):  1    3.0000000000  100.0000000000
  1         -4.7312375307   -3.4155304497    7.0523828109   -1.9351020946
  2         -9.7309464766   -2.0532547791    8.2966052865   -2.2494486027
  3         -9.6627394379   -2.1124926340    8.2327997121   -2.2369778124
  4         -9.6814993499   -2.1215521045    8.2229805960   -2.2365178421
  5         -9.6843326483   -2.1250939529    8.2191374534   -2.2362718126
  6         -9.6859628709   -2.1267894855    8.2172963573   -2.2362066344
  7         -9.6867347035   -2.1276425665    8.2163697352   -2.2361903369
  8         -9.6870802100   -2.1280764625    8.2158983890   -2.2361891460
  9         -9.6872290423   -2.1282977424    8.2156580222   -2.2361920435
 10         -9.6872901988   -2.1284107021    8.2155353368   -2.2361953393
 11         -9.6873135296   -2.1284684031    8.2154726809   -2.2361979819
 12         -9.6873212476   -2.1284978948    8.2154406648   -2.2361998431
 13         -9.6873229586   -2.1285129774    8.2154242957   -2.2362010676
 14         -9.6873226456   -2.1285206957    8.2154159216   -2.2362018403
 15         -9.6873218534   -2.1285246479    8.2154116349   -2.2362023142
 16         -9.6873212599   -2.1285262679    8.2154098784   -2.2362025420
 17         -9.6873207834   -2.1285272564    8.2154088068   -2.2362026955
 18         -9.6873204210   -2.1285278596    8.2154081529   -2.2362027982
 19         -9.6873201550   -2.1285282280    8.2154077538   -2.2362028667
 20         -9.6873199645   -2.1285284529    8.2154075102   -2.2362029121
 21         -9.6873198305   -2.1285285903    8.2154073614   -2.2362029421
 22         -9.6873197377   -2.1285286742    8.2154072705   -2.2362029618
Atom SCF converged after  22 iterations to a total energy of     -9.68731974

Atom SCF Calculation for H  : Z (AE atom) =   1 : Z (PS atom) =   1
Config String:
Orbitals (num,occ):  1     1.00
Orbitals   (num,l):  1        0
Real-space Grid (nr,dr,rmax): 1203    0.0066555740    8.0000000000
Spherical Bessel Basis (nsws,lmax,cutoff):   47    0  176.3951722778
Confining potential (l,width,scale):  0    3.0000000000  100.0000000000
  1         -0.3194257691   -0.2393854593    0.2820953124   -0.2424203209
  2         -0.3951823392   -0.2377116493    0.2886404059   -0.2475147891
  3         -0.4317044583   -0.2352244387    0.2921333887   -0.2514046172
  4         -0.4470703708   -0.2341892222    0.2934391879   -0.2531009782
  5         -0.4532132900   -0.2338556667    0.2938388426   -0.2537313520
  6         -0.4556579251   -0.2337612552    0.2939448584   -0.2539550462
  7         -0.4566418315   -0.2337377355    0.2939680120   -0.2540342273
  8         -0.4570437922   -0.2337331116    0.2939708287   -0.2540627372
  9         -0.4572102946   -0.2337328328    0.2939698291   -0.2540732650
 10         -0.4572800424   -0.2337332404    0.2939687193   -0.2540772588
 11         -0.4573095100   -0.2337335791    0.2939680317   -0.2540788122
 12         -0.4573220379   -0.2337337762    0.2939676699   -0.2540794294
 13         -0.4573273880   -0.2337338775    0.2939674931   -0.2540796787
 14         -0.4573296803   -0.2337339266    0.2939674099   -0.2540797808
 15         -0.4573306647   -0.2337339495    0.2939673718   -0.2540798230
 16         -0.4573310882   -0.2337339601    0.2939673545   -0.2540798406
 17         -0.4573312706   -0.2337339649    0.2939673467   -0.2540798479
 18         -0.4573313493   -0.2337339670    0.2939673433   -0.2540798510
Atom SCF converged after  18 iterations to a total energy of     -0.45733135

Atom SCF Calculation for C  : Z (AE atom) =   6 : Z (PS atom) =   4
Config String:
Orbitals (num,occ):  2     2.00 2.00
Orbitals   (num,l):  2        0    1
Real-space Grid (nr,dr,rmax): 1203    0.0066555740    8.0000000000
Spherical Bessel Basis (nsws,lmax,cutoff):   47    1  176.3951722778
Confining potential (l,width,scale):  0    3.0000000000  100.0000000000
Confining potential (l,width,scale):  1    3.0000000000  100.0000000000
  1         -5.2976922011   -1.3069684169    4.5135249990   -1.4493313817
  2         -5.3721716256   -1.3429755895    4.4750154450   -1.4361613026
  3         -5.3809959565   -1.3617365618    4.4541655428   -1.4305930207
  4         -5.3918938866   -1.3667928461    4.4484735100   -1.4294652294
  5         -5.3956096428   -1.3688539142    4.4461376126   -1.4290734646
  6         -5.3968271862   -1.3696852393    4.4451910874   -1.4289366866
  7         -5.3972028401   -1.3700178062    4.4448112275   -1.4288900460
  8         -5.3973067903   -1.3701500158    4.4446598370   -1.4288749220
  9         -5.3973286940   -1.3702023868    4.4445997329   -1.4288704293
 10         -5.3973289850   -1.3702230869    4.4445759233   -1.4288693188
 11         -5.3973254264   -1.3702312560    4.4445665049   -1.4288691775
 12         -5.3973224003   -1.3702344755    4.4445627836   -1.4288692549
 13         -5.3973208708   -1.3702354890    4.4445616088   -1.4288693270
 14         -5.3973198783   -1.3702360102    4.4445610034   -1.4288693814
 15         -5.3973192535   -1.3702362780    4.4445606917   -1.4288694190
 16         -5.3973188684   -1.3702364155    4.4445605313   -1.4288694437
 17         -5.3973186349   -1.3702364860    4.4445604489   -1.4288694595
 18         -5.3973184951   -1.3702365221    4.4445604065   -1.4288694693
 19         -5.3973184122   -1.3702365405    4.4445603848   -1.4288694753
Atom SCF converged after  19 iterations to a total energy of     -5.39731841

Atom SCF Calculation for S  : Z (AE atom) =  16 : Z (PS atom) =   6
Config String:
Orbitals (num,occ):  3     2.00 4.00 0.00
Orbitals   (num,l):  3        0    1    2
Real-space Grid (nr,dr,rmax): 1203    0.0066555740    8.0000000000
Spherical Bessel Basis (nsws,lmax,cutoff):   47    2  176.3951722778
Confining potential (l,width,scale):  0    3.0000000000  100.0000000000
Confining potential (l,width,scale):  1    3.0000000000  100.0000000000
Confining potential (l,width,scale):  2    3.0000000000  100.0000000000
  1        -12.4735062396   -1.0328741412   10.1554312477   -2.4512393157
  2         -9.9458301913   -2.4607392455    8.3041325857   -2.0306994528
  3        -10.1450417646   -2.2931184565    8.4831893826   -2.0812538287
  4        -10.1528335592   -2.2733105793    8.5050388867   -2.0896035179
  5        -10.1571940363   -2.2633716629    8.5160794258   -2.0939370707
  6        -10.1594380571   -2.2584938667    8.5215163935   -2.0961289008
  7        -10.1605856507   -2.2561081821    8.5241804044   -2.0972291378
  8        -10.1611799191   -2.2549395235    8.5254868240   -2.0977806248
  9        -10.1614918752   -2.2543658586    8.5261285885   -2.0980571586
 10        -10.1616572884   -2.2540839121    8.5264441898   -2.0981959233
 11        -10.1617455602   -2.2539453058    8.5265994231   -2.0982656006
 12        -10.1617928447   -2.2538772062    8.5266757320   -2.0983006047
 13        -10.1618182292   -2.2538437891    8.5267131983   -2.0983181961
 14        -10.1618318741   -2.2538274201    8.5267315620   -2.0983270391
 15        -10.1618392144   -2.2538194197    8.5267405433   -2.0983314852
 16        -10.1618431651   -2.2538155200    8.5267449245   -2.0983337210
 17        -10.1618452923   -2.2538136252    8.5267470551   -2.0983348455
 18        -10.1618464380   -2.2538127080    8.5267480875   -2.0983354110
 19        -10.1618470552   -2.2538122659    8.5267485856   -2.0983356955
 20        -10.1618473878   -2.2538120540    8.5267488248   -2.0983358386
 21        -10.1618475670   -2.2538119530    8.5267489389   -2.0983359106
 22        -10.1618476637   -2.2538119053    8.5267489929   -2.0983359468
Atom SCF converged after  22 iterations to a total energy of    -10.16184766

Atom SCF Calculation for O  : Z (AE atom) =   8 : Z (PS atom) =   6
Config String:
Orbitals (num,occ):  2     2.00 4.00
Orbitals   (num,l):  2        0    1
Real-space Grid (nr,dr,rmax): 1203    0.0066555740    8.0000000000
Spherical Bessel Basis (nsws,lmax,cutoff):   47    1  176.3951722778
Confining potential (l,width,scale):  0    3.0000000000  100.0000000000
Confining potential (l,width,scale):  1    3.0000000000  100.0000000000
  1         -1.8735052164   -7.5539365035   10.1554312477   -2.4512393157
  2        -16.0318313751   -3.1285771268   13.6395848164   -3.2358799643
  3        -15.9524020423   -3.0762819706   13.6967272503   -3.2536856837
  4        -15.8521515939   -3.0781493909   13.6951909330   -3.2561700440
  5        -15.8357139793   -3.0748501933   13.6988803334   -3.2580493133
  6        -15.8246052853   -3.0740779781   13.6997881576   -3.2588327446
  7        -15.8189019501   -3.0737449687   13.7001869911   -3.2592378801
  8        -15.8159785510   -3.0736026016   13.7003615168   -3.2594475790
  9        -15.8144776168   -3.0735437994   13.7004360379   -3.2595560735
 10        -15.8137058024   -3.0735207882   13.7004667348   -3.2596122456
 11        -15.8133083127   -3.0735125946   13.7004786868   -3.2596413656
 12        -15.8131032938   -3.0735102195   13.7004828997   -3.2596564858
 13        -15.8129973902   -3.0735099286   13.7004840891   -3.2596643505
 14        -15.8129426040   -3.0735102506   13.7004842061   -3.2596684489
 15        -15.8129142203   -3.0735106556   13.7004840157   -3.2596705887
 16        -15.8128994940   -3.0735109855   13.7004837906   -3.2596717080
 17        -15.8128918425   -3.0735112169   13.7004836103   -3.2596722946
 18        -15.8128878614   -3.0735113674   13.7004834848   -3.2596726026
 19        -15.8128857871   -3.0735114608   13.7004834035   -3.2596727646
 20        -15.8128847048   -3.0735115170   13.7004833533   -3.2596728500
 21        -15.8128841394   -3.0735115501   13.7004833231   -3.2596728951
 22        -15.8128838436   -3.0735115693   13.7004833054   -3.2596729190
 23        -15.8128836887   -3.0735115802   13.7004832951   -3.2596729316
 24        -15.8128836074   -3.0735115864   13.7004832893   -3.2596729383
Atom SCF converged after  24 iterations to a total energy of    -15.81288361

========================== Calculation in vacuum ==============================
= Adjusting the following parameters: 
= is_implicit_solvent: F
= is_include_apolar: F
= write_denskern: T
= write_tightbox_ngwfs: T
= restart read filename prefix: ""
= restart write filename prefix: "vacuum_"
===============================================================================

Determining parallel strategy ...
... using space-filling curve
... NGWF load balancing: max    110;  min    109;  average    109
... Projector load balancing: max     26;  min     21;  average     22
... done
Calculating direct Ion-Ion energy ...
Ion-Ion Energy        :    832732.79069349996280
======================= Empirical dispersion information =======================
Model : Elstner
Dispersion Correction Energy: -0.32617642E+01 Hartree
================================================================================
Basis initialisation ...... NGWF spheres initialised
... Projector spheres initialised
... NGWF tight boxes initialised
... Tight-boxes gathered
... NGWF basis size (local,global):    1385835  83218384
... Nonlocal pseudopotential projector initialisation
... done

========================== Sparse matrix information ===========================
                        Overlap matrix filling:   6.73%
                        Density kernel filling: 100.00%
              NGWF-Proj overlap matrix filling:   1.75%
                    Hamiltonian matrix filling:   7.56%
                  NGWF diagonal matrix filling:   0.05%
                             KS matrix filling: 100.00% 
                           KSKS matrix filling: 100.00% 
================================================================================

Sparse matrix initialisation ... done

Generating smeared ion density ... done
Smeared ion self correction:     -14538.952731
Smeared ion non-self correction: -832684.522014
NGWF initialisation ...... done
============ Calculation of NGWF S^-1 using Hotelling algorithm ================ 
         Iteration  |  Frobenius norm and Maximum abs value    (of I-S*S_n^-1)   
               1       0.78775268E+02     0.98314904E+00
               2       0.76961533E+02     0.96671603E+00
               3       0.74009194E+02     0.93503536E+00
               4       0.69786211E+02     0.87599422E+00
               5       0.64499021E+02     0.77349516E+00
               6       0.58532281E+02     0.70473249E+00
               7       0.52501166E+02     0.66916460E+00
               8       0.46928164E+02     0.64554497E+00
               9       0.40912068E+02     0.60803968E+00
              10       0.32742605E+02     0.54267372E+00
              11       0.22207514E+02     0.43628957E+00
              12       0.11499629E+02     0.29796710E+00
              13       0.38709407E+01     0.14431709E+00
              14       0.63400455E+00     0.36540131E-01
              15       0.32005213E-01     0.35698402E-02
              16       0.20021828E-03     0.36837076E-04
              17       0.15368603E-07     0.40422714E-08
              18       0.98901299E-13     0.66613381E-14
================================================================================
Calculating local pseudopotential in open BC on the fine real space grid ...
... done

MG BCs: +ve charge blocks (gridpoints):     20131 (   15752305).
MG BCs: -ve charge blocks (gridpoints):      8070 (    1062308).
MG BCs:     Elided blocks (gridpoints):    176989 (  173962092).
MG BCs: Computational effort saved:  99.9852%.
MG BCs: Charge after coarse-graining:           -9.0002231.
MG DL_MG: Calling solver with defect correction order = 8
MG DL_MG: Solver finished
MG Hartree energy from (\int phi*rho dr):              1471.502921
MG Hartree energy from (\int eps (grad phi)^2 dr):     1470.878354
MG Discrepancy due to finite box and discretization:     -0.624567 (  -0.04244%)
MG Correction to account for finite box:                  0.464028
MG Remaining discrepancy, due to discretization:         -0.160539 (  -0.01091%)
Up spin density kernel initialisation ... 
======= Optimisation of K by Palser-Manolopoulos canonical purification ======== 
         Iteration  |  Band structure energy |    c_n   
               1       -2591.96894147371268    0.5267220
               2       -2768.86786473586835    0.5168861
               3       -2949.98110088910653    0.5152865
               4       -3100.93667227524747    0.5289804
               5       -3193.45152883536639    0.5650525
               6       -3232.00752653385098    0.6097141
               7       -3245.14390648934386    0.6224665
               8       -3250.83608046064046    0.6227326
               9       -3253.58875238102974    0.6357637
              10       -3254.75285937288845    0.6521457
              11       -3255.23246838768500    0.6625186
              12       -3255.44472748557473    0.6639548
              13       -3255.54448096378428    0.6267243
              14       -3255.60025021435013    0.5347593
              15       -3255.63401982007963    0.4222221
              16       -3255.64043178093743    0.3857340
              17       -3255.64136690193482    0.3779332
              18       -3255.64204234636736    0.3478025
              19       -3255.64242257922888    0.3223476
              20       -3255.64257845048542    0.3370255
              21       -3255.64269355438137    0.3665389
              22       -3255.64281021257102    0.4025617
              23       -3255.64292708213316    0.4434178
              24       -3255.64303294053116    0.4796276
              25       -3255.64310651074175    0.4973120
              26       -3255.64313511377395    0.4999550
              27       -3255.64313857430170    0.5000000
              28       -3255.64313861958999    0.5000000
Termination criterion satisfied: band energy change below threshold.
Final occupancy bounds: [    0.00000000000128:    0.99999999999995]
Closest occupancy to 0.5:     0.99999999999994
================================================================================
... done

Writing density kernel to file "complex_8841.vacuum_dkn" ... done

>>> Optimising kernel for current NGWFs:
   Initial electron number for spin 1:    7234.00000000
     Final electron number for spin 1:    7234.00000000

=================== Penalty functional idempotency correction ==================
 RMS occupancy error at iteration   1:  0.000000 (step -0.5000 Ne1=   7234.0000)
            Final RMS occupancy error   :  0.000000 (Ne1=   7234.0000)
               Final occupancy bounds   : [  0.0000,  1.0000]
================================================================================

................................................................................
<<<<<<<<<<<<<< LNV (Original version) density kernel optimisation >>>>>>>>>>>>>>
~~~~~~~~~~~~~~~~~~~~~~~~~~~~~~~~~~~~~~~~~~~~~~~~~~~~~~~~~~~~~~~~~~~~~~~~~~~~~~~~
   iter  |      energy (Eh)       | rms gradient |  commutator  |   dE (Eh)
MG BCs: +ve charge blocks (gridpoints):     30876 (   16990011).
MG BCs: -ve charge blocks (gridpoints):      8376 (    1094763).
MG BCs:     Elided blocks (gridpoints):    166237 (  172691931).
MG BCs: Computational effort saved:  99.9794%.
MG BCs: Charge after coarse-graining:           -9.0009486.
MG DL_MG: Calling solver with defect correction order = 8
MG DL_MG: Solver finished
MG Hartree energy from (\int phi*rho dr):              1426.292132
MG Hartree energy from (\int eps (grad phi)^2 dr):     1425.608177
MG Discrepancy due to finite box and discretization:     -0.683955 (  -0.04795%)
MG Correction to account for finite box:                  0.478604
MG Remaining discrepancy, due to discretization:         -0.205351 (  -0.01440%)
      ideal mu1:      -0.699630499641
             Q0:  -11568.901717046276
             G0:    -143.163711829177
   RMS gradient:       0.001828408301
MG BCs: +ve charge blocks (gridpoints):     30878 (   17072576).
MG BCs: -ve charge blocks (gridpoints):      8294 (    1074449).
MG BCs:     Elided blocks (gridpoints):    166230 (  172629680).
MG BCs: Computational effort saved:  99.9795%.
MG BCs: Charge after coarse-graining:           -9.0009697.
MG DL_MG: Calling solver with defect correction order = 8
MG DL_MG: Solver finished
MG Hartree energy from (\int phi*rho dr):              1452.387504
MG Hartree energy from (\int eps (grad phi)^2 dr):     1451.720084
MG Discrepancy due to finite box and discretization:     -0.667420 (  -0.04595%)
MG Correction to account for finite box:                  0.478489
MG Remaining discrepancy, due to discretization:         -0.188931 (  -0.01301%)
     Trial step:       0.500000000000
             Q1:  -11580.329751098529
 Quadratic coef:      60.153821862335
 Linear coef   :     -71.581855914589
           Qmin:  -11590.196964536548
Quadratic minimum step length (  0.297495045612) accepted
    Initial Ne1:    7234.00000000
      Final Ne1:    7234.00000000

=================== Penalty functional idempotency correction ==================
 RMS occupancy error at iteration   1:  0.003340 (step -0.4888 Ne1=   7234.0000)
 RMS occupancy error at iteration   2:  0.000026 (step -0.5001 Ne1=   7234.0000)
            Final RMS occupancy error   :  0.000000 (Ne1=   7234.0000)
               Final occupancy bounds   : [  0.0000,  1.0000]
================================================================================

    1        -1.156890171705E+04     1.8284E-03     1.6540E-03
MG BCs: +ve charge blocks (gridpoints):     30863 (   17039992).
MG BCs: -ve charge blocks (gridpoints):      8339 (    1082947).
MG BCs:     Elided blocks (gridpoints):    166247 (  172653766).
MG BCs: Computational effort saved:  99.9795%.
MG BCs: Charge after coarse-graining:           -9.0009618.
MG DL_MG: Calling solver with defect correction order = 8
MG DL_MG: Solver finished
MG Hartree energy from (\int phi*rho dr):              1433.993685
MG Hartree energy from (\int eps (grad phi)^2 dr):     1433.320545
MG Discrepancy due to finite box and discretization:     -0.673140 (  -0.04694%)
MG Correction to account for finite box:                  0.478427
MG Remaining discrepancy, due to discretization:         -0.194713 (  -0.01358%)
      ideal mu1:      -0.743747008807
             Q0:  -11590.580850802478
             G0:     -11.964512319740
   RMS gradient:       0.000525119665
MG BCs: +ve charge blocks (gridpoints):     30872 (   17056929).
MG BCs: -ve charge blocks (gridpoints):      8325 (    1077779).
MG BCs:     Elided blocks (gridpoints):    166238 (  172641997).
MG BCs: Computational effort saved:  99.9795%.
MG BCs: Charge after coarse-graining:           -9.0009654.
MG DL_MG: Calling solver with defect correction order = 8
MG DL_MG: Solver finished
MG Hartree energy from (\int phi*rho dr):              1439.271481
MG Hartree energy from (\int eps (grad phi)^2 dr):     1438.602546
MG Discrepancy due to finite box and discretization:     -0.668935 (  -0.04648%)
MG Correction to account for finite box:                  0.477536
MG Remaining discrepancy, due to discretization:         -0.191399 (  -0.01330%)
     Trial step:       0.385678004047
             Q1:  -11593.383038738044
 Quadratic coef:       1.812261295308
 Linear coef   :      -4.614449230875
           Qmin:  -11593.518222714498
Quadratic minimum step length (  0.491014064514) accepted
    Initial Ne1:    7233.99990996
      Final Ne1:    7234.00000000

=================== Penalty functional idempotency correction ==================
 RMS occupancy error at iteration   1:  0.001759 (step -0.4933 Ne1=   7234.0000)
 RMS occupancy error at iteration   2:  0.000010 (step -0.5001 Ne1=   7234.0000)
            Final RMS occupancy error   :  0.000000 (Ne1=   7234.0000)
               Final occupancy bounds   : [  0.0000,  1.0000]
================================================================================

    2        -1.159058085080E+04     5.2512E-04     4.7503E-04    -2.1679E+01
MG BCs: +ve charge blocks (gridpoints):     30880 (   17061412).
MG BCs: -ve charge blocks (gridpoints):      8318 (    1076520).
MG BCs:     Elided blocks (gridpoints):    166230 (  172638773).
MG BCs: Computational effort saved:  99.9795%.
MG BCs: Charge after coarse-graining:           -9.0009664.
MG DL_MG: Calling solver with defect correction order = 8
MG DL_MG: Solver finished
MG Hartree energy from (\int phi*rho dr):              1440.760699
MG Hartree energy from (\int eps (grad phi)^2 dr):     1440.092822
MG Discrepancy due to finite box and discretization:     -0.667878 (  -0.04636%)
MG Correction to account for finite box:                  0.477306
MG Remaining discrepancy, due to discretization:         -0.190572 (  -0.01323%)
      ideal mu1:      -0.768093996889
             Q0:  -11593.553708405700
             G0:      -1.896113867859
   RMS gradient:       0.000209117190
MG BCs: +ve charge blocks (gridpoints):     30876 (   17060935).
MG BCs: -ve charge blocks (gridpoints):      8321 (    1077511).
MG BCs:     Elided blocks (gridpoints):    166233 (  172638259).
MG BCs: Computational effort saved:  99.9795%.
MG BCs: Charge after coarse-graining:           -9.0009659.
MG DL_MG: Calling solver with defect correction order = 8
MG DL_MG: Solver finished
MG Hartree energy from (\int phi*rho dr):              1438.481843
MG Hartree energy from (\int eps (grad phi)^2 dr):     1437.814619
MG Discrepancy due to finite box and discretization:     -0.667224 (  -0.04638%)
MG Correction to account for finite box:                  0.476872
MG Remaining discrepancy, due to discretization:         -0.190353 (  -0.01323%)
     Trial step:       0.435170454375
             Q1:  -11594.039003284182
 Quadratic coef:       0.339837854939
 Linear coef   :      -0.825132733423
           Qmin:  -11594.054567872847
Quadratic minimum step length (  0.528301043136) accepted
    Initial Ne1:    7233.99995264
      Final Ne1:    7234.00000000

=================== Penalty functional idempotency correction ==================
 RMS occupancy error at iteration   1:  0.000619 (step -0.4972 Ne1=   7234.0000)
 RMS occupancy error at iteration   2:  0.000002 (step -0.5000 Ne1=   7234.0000)
            Final RMS occupancy error   :  0.000000 (Ne1=   7234.0000)
               Final occupancy bounds   : [  0.0000,  1.0000]
================================================================================

    3        -1.159355370841E+04     2.0912E-04     1.8917E-04    -2.9729E+00
MG BCs: +ve charge blocks (gridpoints):     30877 (   17060932).
MG BCs: -ve charge blocks (gridpoints):      8321 (    1077687).
MG BCs:     Elided blocks (gridpoints):    166234 (  172638086).
MG BCs: Computational effort saved:  99.9795%.
MG BCs: Charge after coarse-graining:           -9.0009658.
MG DL_MG: Calling solver with defect correction order = 8
MG DL_MG: Solver finished
MG Hartree energy from (\int phi*rho dr):              1438.003536
MG Hartree energy from (\int eps (grad phi)^2 dr):     1437.336440
MG Discrepancy due to finite box and discretization:     -0.667096 (  -0.04639%)
MG Correction to account for finite box:                  0.476780
MG Remaining discrepancy, due to discretization:         -0.190316 (  -0.01323%)
      ideal mu1:      -0.769089001065
             Q0:  -11594.059091420961
             G0:      -0.488422483092
   RMS gradient:       0.000106269403
MG BCs: +ve charge blocks (gridpoints):     30876 (   17061939).
MG BCs: -ve charge blocks (gridpoints):      8316 (    1077456).
MG BCs:     Elided blocks (gridpoints):    166235 (  172637310).
MG BCs: Computational effort saved:  99.9795%.
MG BCs: Charge after coarse-graining:           -9.0009659.
MG DL_MG: Calling solver with defect correction order = 8
MG DL_MG: Solver finished
MG Hartree energy from (\int phi*rho dr):              1439.310316
MG Hartree energy from (\int eps (grad phi)^2 dr):     1438.643355
MG Discrepancy due to finite box and discretization:     -0.666961 (  -0.04634%)
MG Correction to account for finite box:                  0.476534
MG Remaining discrepancy, due to discretization:         -0.190427 (  -0.01323%)
     Trial step:       0.479479931789
             Q1:  -11594.181544767926
 Quadratic coef:       0.111735431912
 Linear coef   :      -0.234188778877
           Qmin:  -11594.181801789582
Quadratic minimum step length (  0.502476330919) accepted
    Initial Ne1:    7233.99998838
      Final Ne1:    7234.00000000

=================== Penalty functional idempotency correction ==================
 RMS occupancy error at iteration   1:  0.000270 (step -0.4964 Ne1=   7234.0000)
 RMS occupancy error at iteration   2:  0.000002 (step -0.5000 Ne1=   7234.0000)
            Final RMS occupancy error   :  0.000000 (Ne1=   7234.0000)
               Final occupancy bounds   : [  0.0000,  1.0000]
================================================================================

    4        -1.159405909142E+04     1.0627E-04     9.6133E-05    -5.0538E-01
MG BCs: +ve charge blocks (gridpoints):     30877 (   17061945).
MG BCs: -ve charge blocks (gridpoints):      8316 (    1077471).
MG BCs:     Elided blocks (gridpoints):    166234 (  172637289).
MG BCs: Computational effort saved:  99.9795%.
MG BCs: Charge after coarse-graining:           -9.0009659.
MG DL_MG: Calling solver with defect correction order = 8
MG DL_MG: Solver finished
MG Hartree energy from (\int phi*rho dr):              1439.373530
MG Hartree energy from (\int eps (grad phi)^2 dr):     1438.706575
MG Discrepancy due to finite box and discretization:     -0.666955 (  -0.04634%)
MG Correction to account for finite box:                  0.476523
MG Remaining discrepancy, due to discretization:         -0.190432 (  -0.01323%)
      ideal mu1:      -0.769421161485
             Q0:  -11594.182367642876
             G0:      -0.183687240800
   RMS gradient:       0.000065351575
MG BCs: +ve charge blocks (gridpoints):     30879 (   17062124).
MG BCs: -ve charge blocks (gridpoints):      8314 (    1077345).
MG BCs:     Elided blocks (gridpoints):    166232 (  172637236).
MG BCs: Computational effort saved:  99.9795%.
MG BCs: Charge after coarse-graining:           -9.0009659.
MG DL_MG: Calling solver with defect correction order = 8
MG DL_MG: Solver finished
MG Hartree energy from (\int phi*rho dr):              1439.768977
MG Hartree energy from (\int eps (grad phi)^2 dr):     1439.101934
MG Discrepancy due to finite box and discretization:     -0.667043 (  -0.04633%)
MG Correction to account for finite box:                  0.476449
MG Remaining discrepancy, due to discretization:         -0.190594 (  -0.01324%)
     Trial step:       0.490843474923
             Q1:  -11594.242124609067
 Quadratic coef:       0.030404717381
 Linear coef   :      -0.090161683573
           Qmin:  -11594.249208662008
Quadratic minimum step length (  0.727769864046) accepted
    Initial Ne1:    7233.99999367
      Final Ne1:    7234.00000000

=================== Penalty functional idempotency correction ==================
 RMS occupancy error at iteration   1:  0.000468 (step -0.4733 Ne1=   7234.0000)
 RMS occupancy error at iteration   2:  0.000011 (step -0.5000 Ne1=   7234.0000)
            Final RMS occupancy error   :  0.000000 (Ne1=   7234.0000)
               Final occupancy bounds   : [  0.0000,  1.0000]
================================================================================

    5        -1.159418236764E+04     6.5352E-05     5.9118E-05    -1.2328E-01
MG BCs: +ve charge blocks (gridpoints):     30878 (   17062209).
MG BCs: -ve charge blocks (gridpoints):      8315 (    1077300).
MG BCs:     Elided blocks (gridpoints):    166233 (  172637196).
MG BCs: Computational effort saved:  99.9795%.
MG BCs: Charge after coarse-graining:           -9.0009659.
MG DL_MG: Calling solver with defect correction order = 8
MG DL_MG: Solver finished
MG Hartree energy from (\int phi*rho dr):              1439.957620
MG Hartree energy from (\int eps (grad phi)^2 dr):     1439.290535
MG Discrepancy due to finite box and discretization:     -0.667085 (  -0.04633%)
MG Correction to account for finite box:                  0.476413
MG Remaining discrepancy, due to discretization:         -0.190673 (  -0.01324%)
      ideal mu1:      -0.769443131152
             Q0:  -11594.248439212097
             G0:      -0.188384234466
   RMS gradient:       0.000066850017
MG BCs: +ve charge blocks (gridpoints):     30879 (   17061566).
MG BCs: -ve charge blocks (gridpoints):      8316 (    1077663).
MG BCs:     Elided blocks (gridpoints):    166232 (  172637476).
MG BCs: Computational effort saved:  99.9795%.
MG BCs: Charge after coarse-graining:           -9.0009656.
MG DL_MG: Calling solver with defect correction order = 8
MG DL_MG: Solver finished
MG Hartree energy from (\int phi*rho dr):              1438.604351
MG Hartree energy from (\int eps (grad phi)^2 dr):     1437.937362
MG Discrepancy due to finite box and discretization:     -0.666989 (  -0.04636%)
MG Correction to account for finite box:                  0.476326
MG Remaining discrepancy, due to discretization:         -0.190664 (  -0.01325%)
     Trial step:       0.597679754561
             Q1:  -11594.335637193406
 Quadratic coef:       0.025395461709
 Linear coef   :      -0.112593443019
           Qmin:  -11594.373237921764
Quadratic minimum step length (  1.324937938899) accepted
    Initial Ne1:    7233.99995010
      Final Ne1:    7234.00000000

=================== Penalty functional idempotency correction ==================
 RMS occupancy error at iteration   1:  0.005103 (step -0.2909 Ne1=   7234.0000)
 RMS occupancy error at iteration   2:  0.000481 (step -0.4784 Ne1=   7234.0000)
 RMS occupancy error at iteration   3:  0.000015 (step -0.5004 Ne1=   7234.0000)
            Final RMS occupancy error   :  0.000000 (Ne1=   7234.0000)
               Final occupancy bounds   : [  0.0000,  1.0000]
================================================================================

    6        -1.159424843921E+04     6.6850E-05     6.0474E-05    -6.6072E-02
MG BCs: +ve charge blocks (gridpoints):     30877 (   17060732).
MG BCs: -ve charge blocks (gridpoints):      8320 (    1078211).
MG BCs:     Elided blocks (gridpoints):    166234 (  172637762).
MG BCs: Computational effort saved:  99.9795%.
MG BCs: Charge after coarse-graining:           -9.0009653.
MG DL_MG: Calling solver with defect correction order = 8
MG DL_MG: Solver finished
MG Hartree energy from (\int phi*rho dr):              1436.982391
MG Hartree energy from (\int eps (grad phi)^2 dr):     1436.315500
MG Discrepancy due to finite box and discretization:     -0.666891 (  -0.04641%)
MG Correction to account for finite box:                  0.476238
MG Remaining discrepancy, due to discretization:         -0.190653 (  -0.01327%)
      ideal mu1:      -0.769368743342
             Q0:  -11594.335462160874
             G0:      -0.422406210612
   RMS gradient:       0.000099316603
MG BCs: +ve charge blocks (gridpoints):     30879 (   17063782).
MG BCs: -ve charge blocks (gridpoints):      8311 (    1076503).
MG BCs:     Elided blocks (gridpoints):    166232 (  172636420).
MG BCs: Computational effort saved:  99.9795%.
MG BCs: Charge after coarse-graining:           -9.0009665.
MG DL_MG: Calling solver with defect correction order = 8
MG DL_MG: Solver finished
MG Hartree energy from (\int phi*rho dr):              1441.109182
MG Hartree energy from (\int eps (grad phi)^2 dr):     1440.442542
MG Discrepancy due to finite box and discretization:     -0.666640 (  -0.04626%)
MG Correction to account for finite box:                  0.476218
MG Remaining discrepancy, due to discretization:         -0.190422 (  -0.01321%)
     Trial step:       0.889881217989
             Q1:  -11594.441198547371
 Quadratic coef:       0.270154966689
 Linear coef   :      -0.375891353185
           Qmin:  -11594.466215179347
Quadratic minimum step length (  0.619086628878) accepted
    Initial Ne1:    7233.99983779
      Final Ne1:    7234.00000000

=================== Penalty functional idempotency correction ==================
 RMS occupancy error at iteration   1:  0.000204 (step -0.4866 Ne1=   7234.0000)
 RMS occupancy error at iteration   2:  0.000002 (step -0.5000 Ne1=   7234.0000)
            Final RMS occupancy error   :  0.000000 (Ne1=   7234.0000)
               Final occupancy bounds   : [  0.0000,  1.0000]
================================================================================

    7        -1.159433546216E+04     9.9317E-05     8.9843E-05    -8.7023E-02
MG BCs: +ve charge blocks (gridpoints):     30881 (   17062771).
MG BCs: -ve charge blocks (gridpoints):      8315 (    1077024).
MG BCs:     Elided blocks (gridpoints):    166230 (  172636910).
MG BCs: Computational effort saved:  99.9795%.
MG BCs: Charge after coarse-graining:           -9.0009662.
MG DL_MG: Calling solver with defect correction order = 8
MG DL_MG: Solver finished
MG Hartree energy from (\int phi*rho dr):              1439.847627
MG Hartree energy from (\int eps (grad phi)^2 dr):     1439.180915
MG Discrepancy due to finite box and discretization:     -0.666712 (  -0.04630%)
MG Correction to account for finite box:                  0.476222
MG Remaining discrepancy, due to discretization:         -0.190490 (  -0.01323%)
      ideal mu1:      -0.770622889307
             Q0:  -11594.466562720365
             G0:      -0.270271048096
   RMS gradient:       0.000079334031
MG BCs: +ve charge blocks (gridpoints):     30879 (   17062670).
MG BCs: -ve charge blocks (gridpoints):      8314 (    1077201).
MG BCs:     Elided blocks (gridpoints):    166232 (  172636834).
MG BCs: Computational effort saved:  99.9795%.
MG BCs: Charge after coarse-graining:           -9.0009661.
MG DL_MG: Calling solver with defect correction order = 8
MG DL_MG: Solver finished
MG Hartree energy from (\int phi*rho dr):              1439.502248
MG Hartree energy from (\int eps (grad phi)^2 dr):     1438.835519
MG Discrepancy due to finite box and discretization:     -0.666729 (  -0.04632%)
MG Correction to account for finite box:                  0.476439
MG Remaining discrepancy, due to discretization:         -0.190290 (  -0.01322%)
     Trial step:       0.742235517438
             Q1:  -11594.572574040270
 Quadratic coef:       0.094593451327
 Linear coef   :      -0.200604771232
           Qmin:  -11594.572918587701
Quadratic minimum step length (  0.787031153249) accepted
    Initial Ne1:    7233.99986798
      Final Ne1:    7234.00000000

=================== Penalty functional idempotency correction ==================
 RMS occupancy error at iteration   1:  0.001216 (step -0.4296 Ne1=   7234.0000)
 RMS occupancy error at iteration   2:  0.000041 (step -0.4984 Ne1=   7234.0000)
            Final RMS occupancy error   :  0.000000 (Ne1=   7234.0000)
               Final occupancy bounds   : [ -0.0000,  1.0000]
================================================================================

    8        -1.159446656272E+04     7.9334E-05     7.1767E-05    -1.3110E-01
MG BCs: +ve charge blocks (gridpoints):     30879 (   17062644).
MG BCs: -ve charge blocks (gridpoints):      8314 (    1077224).
MG BCs:     Elided blocks (gridpoints):    166232 (  172636837).
MG BCs: Computational effort saved:  99.9795%.
MG BCs: Charge after coarse-graining:           -9.0009661.
MG DL_MG: Calling solver with defect correction order = 8
MG DL_MG: Solver finished
MG Hartree energy from (\int phi*rho dr):              1439.483853
MG Hartree energy from (\int eps (grad phi)^2 dr):     1438.817126
MG Discrepancy due to finite box and discretization:     -0.666727 (  -0.04632%)
MG Correction to account for finite box:                  0.476449
MG Remaining discrepancy, due to discretization:         -0.190278 (  -0.01322%)
      ideal mu1:      -0.770400830572
             Q0:  -11594.573081071139
             G0:      -0.231683731516
   RMS gradient:       0.000073221375
MG BCs: +ve charge blocks (gridpoints):     30877 (   17061619).
MG BCs: -ve charge blocks (gridpoints):      8320 (    1077710).
MG BCs:     Elided blocks (gridpoints):    166234 (  172637376).
MG BCs: Computational effort saved:  99.9795%.
MG BCs: Charge after coarse-graining:           -9.0009659.
MG DL_MG: Calling solver with defect correction order = 8
MG DL_MG: Solver finished
MG Hartree energy from (\int phi*rho dr):              1438.090919
MG Hartree energy from (\int eps (grad phi)^2 dr):     1437.423997
MG Discrepancy due to finite box and discretization:     -0.666922 (  -0.04638%)
MG Correction to account for finite box:                  0.476722
MG Remaining discrepancy, due to discretization:         -0.190200 (  -0.01323%)
     Trial step:       0.764305223894
             Q1:  -11594.649225665489
 Quadratic coef:       0.100932491940
 Linear coef   :      -0.177077086289
           Qmin:  -11594.650747573487
Quadratic minimum step length (  0.670452792168) accepted
    Initial Ne1:    7234.00075971
      Final Ne1:    7234.00000000

=================== Penalty functional idempotency correction ==================
 RMS occupancy error at iteration   1:  0.002497 (step -0.3789 Ne1=   7234.0000)
 RMS occupancy error at iteration   2:  0.000122 (step -0.4955 Ne1=   7234.0000)
 RMS occupancy error at iteration   3:  0.000001 (step -0.5000 Ne1=   7234.0000)
            Final RMS occupancy error   :  0.000000 (Ne1=   7234.0000)
               Final occupancy bounds   : [  0.0000,  1.0000]
================================================================================

    9        -1.159457308107E+04     7.3221E-05     6.6237E-05    -1.0652E-01
MG BCs: +ve charge blocks (gridpoints):     30878 (   17061758).
MG BCs: -ve charge blocks (gridpoints):      8320 (    1077658).
MG BCs:     Elided blocks (gridpoints):    166233 (  172637289).
MG BCs: Computational effort saved:  99.9795%.
MG BCs: Charge after coarse-graining:           -9.0009659.
MG DL_MG: Calling solver with defect correction order = 8
MG DL_MG: Solver finished
MG Hartree energy from (\int phi*rho dr):              1438.260830
MG Hartree energy from (\int eps (grad phi)^2 dr):     1437.593932
MG Discrepancy due to finite box and discretization:     -0.666898 (  -0.04637%)
MG Correction to account for finite box:                  0.476693
MG Remaining discrepancy, due to discretization:         -0.190206 (  -0.01322%)
      ideal mu1:      -0.769367469573
   10        -1.159465540210E+04     5.8313E-05     5.2751E-05    -8.2321E-02
Finished density kernel iterations (  10)

Writing density kernel to file "complex_8841.vacuum_dkn" ... done


>>> Density kernel optimised for the current NGWF basis:
     ~~~~~~~~~~~~~~~~~~~~~~~~~~~~~~~~~~~~~~~~~~~~~~~~~~~~~~~~~~~
     Total energy                =  -1.15946554020969E+04  Eh
     Estimated bandgap           =  -4.2782E-01  Eh
     RMS occupancy error         =   2.1909E-10
     [H,K] commutator            =   5.2751E-05
     Occupancy bounds            = [  0.000:  1.000]
     ~~~~~~~~~~~~~~~~~~~~~~~~~~~~~~~~~~~~~~~~~~~~~~~~~~~~~~~~~~~




################################################################################
########################### NGWF CG iteration  001 #############################
################################################################################
****** Reciprocal space K.E. preconditioning with k_zero =  3.5000 a0^-1 *******

>>> Checking for convergence of NGWFs:   NOT CONVERGED
  ========================================================================
         NGWF RMS gradient =  1.6332E-03 >  2.0000E-06  | above tolerance
  ========================================================================

>>> Improving NGWFs using line search:
============ Calculation of NGWF S^-1 using Hotelling algorithm ================ 
         Iteration  |  Frobenius norm and Maximum abs value    (of I-S*S_n^-1)   
               1       0.20369731E+00     0.57233351E-02
               2       0.96521872E-03     0.44485158E-04
               3       0.37211839E-07     0.29144804E-08
               4       0.12780383E-12     0.57523430E-14
================================================================================
MG BCs: +ve charge blocks (gridpoints):     30400 (   17001242).
MG BCs: -ve charge blocks (gridpoints):      8324 (    1077387).
MG BCs:     Elided blocks (gridpoints):    166716 (  172698076).
MG BCs: Computational effort saved:  99.9797%.
MG BCs: Charge after coarse-graining:           -9.0009725.
MG DL_MG: Calling solver with defect correction order = 8
MG DL_MG: Solver finished
MG Hartree energy from (\int phi*rho dr):              1405.788583
MG Hartree energy from (\int eps (grad phi)^2 dr):     1405.122639
MG Discrepancy due to finite box and discretization:     -0.665944 (  -0.04737%)
MG Correction to account for finite box:                  0.476612
MG Remaining discrepancy, due to discretization:         -0.189332 (  -0.01347%)
============ Calculation of NGWF S^-1 using Hotelling algorithm ================ 
         Iteration  |  Frobenius norm and Maximum abs value    (of I-S*S_n^-1)   
               1       0.18371010E+01     0.43946169E-01
               2       0.70019584E-01     0.24539351E-02
               3       0.13893636E-03     0.85554891E-05
               4       0.99276263E-09     0.11170831E-09
               5       0.11013942E-12     0.46629367E-14
================================================================================
------------------------------- NGWF line search -------------------------------
RMS gradient                =       0.00163319417321
Trial step length           =               0.122474
Gradient along search dir.  =       -285.60739335762
Functional at step 0        =  -11594.65540209691972
Functional at step 1        =  -11626.88895478646737
Functional predicted        =  -11706.04871873658885
Selected quadratic step     =               0.780045
--------------------------- NGWF line search finished --------------------------
                                               
Writing NGWFs to file "complex_8841.vacuum_tightbox_ngwfs"....  done

>>> Optimising kernel for current NGWFs:
   Initial electron number for spin 1:    7268.88160277
     Final electron number for spin 1:    7234.00000000

=================== Penalty functional idempotency correction ==================
 RMS occupancy error at iteration   1:  0.004350 (step -0.4853 Ne1=   7234.0000)
 RMS occupancy error at iteration   2:  0.000076 (step -0.5003 Ne1=   7234.0000)
            Final RMS occupancy error   :  0.000000 (Ne1=   7234.0000)
               Final occupancy bounds   : [  0.0000,  1.0000]
================================================================================

................................................................................
<<<<<<<<<<<<<< LNV (Original version) density kernel optimisation >>>>>>>>>>>>>>
~~~~~~~~~~~~~~~~~~~~~~~~~~~~~~~~~~~~~~~~~~~~~~~~~~~~~~~~~~~~~~~~~~~~~~~~~~~~~~~~
   iter  |      energy (Eh)       | rms gradient |  commutator  |   dE (Eh)
MG BCs: +ve charge blocks (gridpoints):     24593 (   16661523).
MG BCs: -ve charge blocks (gridpoints):      8436 (    1062244).
MG BCs:     Elided blocks (gridpoints):    172527 (  173052938).
MG BCs: Computational effort saved:  99.9827%.
MG BCs: Charge after coarse-graining:           -9.0006860.
MG DL_MG: Calling solver with defect correction order = 8
MG DL_MG: Solver finished
MG Hartree energy from (\int phi*rho dr):              1253.221810
MG Hartree energy from (\int eps (grad phi)^2 dr):     1252.555834
MG Discrepancy due to finite box and discretization:     -0.665976 (  -0.05314%)
MG Correction to account for finite box:                  0.476274
MG Remaining discrepancy, due to discretization:         -0.189702 (  -0.01514%)
      ideal mu1:      -0.711039191787
             Q0:  -11705.279462770326
             G0:      -9.866614564622
   RMS gradient:       0.000479999506
MG BCs: +ve charge blocks (gridpoints):     24648 (   16676537).
MG BCs: -ve charge blocks (gridpoints):      8428 (    1058870).
MG BCs:     Elided blocks (gridpoints):    172472 (  173041298).
MG BCs: Computational effort saved:  99.9827%.
MG BCs: Charge after coarse-graining:           -9.0006811.
MG DL_MG: Calling solver with defect correction order = 8
MG DL_MG: Solver finished
MG Hartree energy from (\int phi*rho dr):              1268.565534
MG Hartree energy from (\int eps (grad phi)^2 dr):     1267.894799
MG Discrepancy due to finite box and discretization:     -0.670735 (  -0.05287%)
MG Correction to account for finite box:                  0.474886
MG Remaining discrepancy, due to discretization:         -0.195849 (  -0.01544%)
     Trial step:       0.715842560504
             Q1:  -11704.723880815902
 Quadratic coef:       7.618524587864
 Linear coef   :      -7.062942633441
           Qmin:  -11706.916431912709
Quadratic minimum step length (  0.331819821614) accepted
    Initial Ne1:    7233.99949927
      Final Ne1:    7234.00000000

=================== Penalty functional idempotency correction ==================
 RMS occupancy error at iteration   1:  0.000358 (step -0.4986 Ne1=   7234.0000)
 RMS occupancy error at iteration   2:  0.000000 (step -0.5000 Ne1=   7234.0000)
            Final RMS occupancy error   :  0.000000 (Ne1=   7234.0000)
               Final occupancy bounds   : [  0.0000,  1.0000]
================================================================================

    1        -1.170527946277E+04     4.8000E-04     4.3422E-04
MG BCs: +ve charge blocks (gridpoints):     24612 (   16668683).
MG BCs: -ve charge blocks (gridpoints):      8432 (    1060625).
MG BCs:     Elided blocks (gridpoints):    172508 (  173047397).
MG BCs: Computational effort saved:  99.9827%.
MG BCs: Charge after coarse-graining:           -9.0006836.
MG DL_MG: Calling solver with defect correction order = 8
MG DL_MG: Solver finished
MG Hartree energy from (\int phi*rho dr):              1259.406522
MG Hartree energy from (\int eps (grad phi)^2 dr):     1258.738452
MG Discrepancy due to finite box and discretization:     -0.668070 (  -0.05305%)
MG Correction to account for finite box:                  0.475596
MG Remaining discrepancy, due to discretization:         -0.192474 (  -0.01528%)
      ideal mu1:      -0.717314447435
             Q0:  -11706.891552628484
             G0:      -1.018436938302
   RMS gradient:       0.000154844160
MG BCs: +ve charge blocks (gridpoints):     24617 (   16668141).
MG BCs: -ve charge blocks (gridpoints):      8435 (    1061607).
MG BCs:     Elided blocks (gridpoints):    172503 (  173046957).
MG BCs: Computational effort saved:  99.9827%.
MG BCs: Charge after coarse-graining:           -9.0006835.
MG DL_MG: Calling solver with defect correction order = 8
MG DL_MG: Solver finished
MG Hartree energy from (\int phi*rho dr):              1260.385791
MG Hartree energy from (\int eps (grad phi)^2 dr):     1259.717502
MG Discrepancy due to finite box and discretization:     -0.668288 (  -0.05302%)
MG Correction to account for finite box:                  0.475399
MG Remaining discrepancy, due to discretization:         -0.192889 (  -0.01530%)
     Trial step:       0.487371265802
             Q1:  -11707.106363098370
 Quadratic coef:       0.281546429875
 Linear coef   :      -0.496356899760
           Qmin:  -11707.110317764353
Quadratic minimum step length (  0.429609586301) accepted
    Initial Ne1:    7233.99993252
      Final Ne1:    7234.00000000

=================== Penalty functional idempotency correction ==================
 RMS occupancy error at iteration   1:  0.000153 (step -0.4992 Ne1=   7234.0000)
 RMS occupancy error at iteration   2:  0.000000 (step -0.5000 Ne1=   7234.0000)
            Final RMS occupancy error   :  0.000000 (Ne1=   7234.0000)
               Final occupancy bounds   : [  0.0000,  1.0000]
================================================================================

    2        -1.170689155263E+04     1.5484E-04     1.4007E-04    -1.6121E+00
MG BCs: +ve charge blocks (gridpoints):     24617 (   16668143).
MG BCs: -ve charge blocks (gridpoints):      8435 (    1061531).
MG BCs:     Elided blocks (gridpoints):    172503 (  173047031).
MG BCs: Computational effort saved:  99.9827%.
MG BCs: Charge after coarse-graining:           -9.0006836.
MG DL_MG: Calling solver with defect correction order = 8
MG DL_MG: Solver finished
MG Hartree energy from (\int phi*rho dr):              1260.269632
MG Hartree energy from (\int eps (grad phi)^2 dr):     1259.601370
MG Discrepancy due to finite box and discretization:     -0.668261 (  -0.05303%)
MG Correction to account for finite box:                  0.475423
MG Remaining discrepancy, due to discretization:         -0.192839 (  -0.01530%)
      ideal mu1:      -0.717906593308
             Q0:  -11707.110789887258
             G0:      -0.172783850361
   RMS gradient:       0.000063451001
MG BCs: +ve charge blocks (gridpoints):     24616 (   16667357).
MG BCs: -ve charge blocks (gridpoints):      8439 (    1062036).
MG BCs:     Elided blocks (gridpoints):    172504 (  173047312).
MG BCs: Computational effort saved:  99.9827%.
MG BCs: Charge after coarse-graining:           -9.0006836.
MG DL_MG: Calling solver with defect correction order = 8
MG DL_MG: Solver finished
MG Hartree energy from (\int phi*rho dr):              1259.740756
MG Hartree energy from (\int eps (grad phi)^2 dr):     1259.072676
MG Discrepancy due to finite box and discretization:     -0.668080 (  -0.05303%)
MG Correction to account for finite box:                  0.475258
MG Remaining discrepancy, due to discretization:         -0.192822 (  -0.01531%)
     Trial step:       0.457579903270
             Q1:  -11707.165732394555
 Quadratic coef:       0.024119910238
 Linear coef   :      -0.079062417535
           Qmin:  -11707.175579368279
Quadratic minimum step length (  0.749948341648) accepted
    Initial Ne1:    7233.99998022
      Final Ne1:    7234.00000000

=================== Penalty functional idempotency correction ==================
 RMS occupancy error at iteration   1:  0.000173 (step -0.4928 Ne1=   7234.0000)
 RMS occupancy error at iteration   2:  0.000001 (step -0.5000 Ne1=   7234.0000)
            Final RMS occupancy error   :  0.000000 (Ne1=   7234.0000)
               Final occupancy bounds   : [  0.0000,  1.0000]
================================================================================

    3        -1.170711078989E+04     6.3451E-05     5.7399E-05    -2.1924E-01
MG BCs: +ve charge blocks (gridpoints):     24615 (   16666964).
MG BCs: -ve charge blocks (gridpoints):      8441 (    1062243).
MG BCs:     Elided blocks (gridpoints):    172505 (  173047498).
MG BCs: Computational effort saved:  99.9827%.
MG BCs: Charge after coarse-graining:           -9.0006836.
MG DL_MG: Calling solver with defect correction order = 8
MG DL_MG: Solver finished
MG Hartree energy from (\int phi*rho dr):              1259.402792
MG Hartree energy from (\int eps (grad phi)^2 dr):     1258.734832
MG Discrepancy due to finite box and discretization:     -0.667960 (  -0.05304%)
MG Correction to account for finite box:                  0.475148
MG Remaining discrepancy, due to discretization:         -0.192812 (  -0.01531%)
      ideal mu1:      -0.716898246775
             Q0:  -11707.175623501302
             G0:      -0.074999282698
   RMS gradient:       0.000041814782
MG BCs: +ve charge blocks (gridpoints):     24614 (   16666854).
MG BCs: -ve charge blocks (gridpoints):      8440 (    1062265).
MG BCs:     Elided blocks (gridpoints):    172506 (  173047586).
MG BCs: Computational effort saved:  99.9827%.
MG BCs: Charge after coarse-graining:           -9.0006837.
MG DL_MG: Calling solver with defect correction order = 8
MG DL_MG: Solver finished
MG Hartree energy from (\int phi*rho dr):              1259.424734
MG Hartree energy from (\int eps (grad phi)^2 dr):     1258.757087
MG Discrepancy due to finite box and discretization:     -0.667647 (  -0.05301%)
MG Correction to account for finite box:                  0.474975
MG Remaining discrepancy, due to discretization:         -0.192672 (  -0.01530%)
     Trial step:       0.585799700946
             Q1:  -11707.203679388389
 Quadratic coef:       0.015878670289
 Linear coef   :      -0.043934557376
           Qmin:  -11707.206014039311
Quadratic minimum step length (  0.810422097822) accepted
    Initial Ne1:    7233.99999048
      Final Ne1:    7234.00000000

=================== Penalty functional idempotency correction ==================
 RMS occupancy error at iteration   1:  0.000356 (step -0.4802 Ne1=   7234.0000)
 RMS occupancy error at iteration   2:  0.000002 (step -0.5000 Ne1=   7234.0000)
            Final RMS occupancy error   :  0.000000 (Ne1=   7234.0000)
               Final occupancy bounds   : [  0.0000,  1.0000]
================================================================================

    4        -1.170717562350E+04     4.1815E-05     3.7826E-05    -6.4834E-02
MG BCs: +ve charge blocks (gridpoints):     24611 (   16666836).
MG BCs: -ve charge blocks (gridpoints):      8439 (    1062273).
MG BCs:     Elided blocks (gridpoints):    172509 (  173047596).
MG BCs: Computational effort saved:  99.9827%.
MG BCs: Charge after coarse-graining:           -9.0006837.
MG DL_MG: Calling solver with defect correction order = 8
MG DL_MG: Solver finished
MG Hartree energy from (\int phi*rho dr):              1259.434674
MG Hartree energy from (\int eps (grad phi)^2 dr):     1258.767151
MG Discrepancy due to finite box and discretization:     -0.667523 (  -0.05300%)
MG Correction to account for finite box:                  0.474905
MG Remaining discrepancy, due to discretization:         -0.192618 (  -0.01529%)
      ideal mu1:      -0.717197443921
             Q0:  -11707.205894717248
             G0:      -0.082603666856
   RMS gradient:       0.000043950433
MG BCs: +ve charge blocks (gridpoints):     24614 (   16668253).
MG BCs: -ve charge blocks (gridpoints):      8434 (    1061712).
MG BCs:     Elided blocks (gridpoints):    172506 (  173046740).
MG BCs: Computational effort saved:  99.9827%.
MG BCs: Charge after coarse-graining:           -9.0006834.
MG DL_MG: Calling solver with defect correction order = 8
MG DL_MG: Solver finished
MG Hartree energy from (\int phi*rho dr):              1260.393078
MG Hartree energy from (\int eps (grad phi)^2 dr):     1259.726115
MG Discrepancy due to finite box and discretization:     -0.666963 (  -0.05292%)
MG Correction to account for finite box:                  0.474443
MG Remaining discrepancy, due to discretization:         -0.192520 (  -0.01527%)
     Trial step:       0.689017432685
             Q1:  -11707.240958999959
 Quadratic coef:       0.021851083757
 Linear coef   :      -0.056915366468
           Qmin:  -11707.242956482425
Quadratic minimum step length (  0.897339466557) accepted
    Initial Ne1:    7233.99998746
      Final Ne1:    7234.00000000

=================== Penalty functional idempotency correction ==================
 RMS occupancy error at iteration   1:  0.001462 (step -0.4263 Ne1=   7234.0000)
 RMS occupancy error at iteration   2:  0.000016 (step -0.4999 Ne1=   7234.0000)
            Final RMS occupancy error   :  0.000000 (Ne1=   7234.0000)
               Final occupancy bounds   : [ -0.0000,  1.0000]
================================================================================

    5        -1.170720589472E+04     4.3950E-05     3.9758E-05    -3.0271E-02
MG BCs: +ve charge blocks (gridpoints):     24615 (   16668690).
MG BCs: -ve charge blocks (gridpoints):      8432 (    1061556).
MG BCs:     Elided blocks (gridpoints):    172505 (  173046459).
MG BCs: Computational effort saved:  99.9827%.
MG BCs: Charge after coarse-graining:           -9.0006833.
MG DL_MG: Calling solver with defect correction order = 8
MG DL_MG: Solver finished
MG Hartree energy from (\int phi*rho dr):              1260.686237
MG Hartree energy from (\int eps (grad phi)^2 dr):     1260.019430
MG Discrepancy due to finite box and discretization:     -0.666807 (  -0.05289%)
MG Correction to account for finite box:                  0.474317
MG Remaining discrepancy, due to discretization:         -0.192490 (  -0.01527%)
      ideal mu1:      -0.718511299878
             Q0:  -11707.242746328935
             G0:      -0.087594630071
   RMS gradient:       0.000044737746
MG BCs: +ve charge blocks (gridpoints):     24612 (   16668658).
MG BCs: -ve charge blocks (gridpoints):      8434 (    1061657).
MG BCs:     Elided blocks (gridpoints):    172508 (  173046390).
MG BCs: Computational effort saved:  99.9827%.
MG BCs: Charge after coarse-graining:           -9.0006833.
MG DL_MG: Calling solver with defect correction order = 8
MG DL_MG: Solver finished
MG Hartree energy from (\int phi*rho dr):              1260.408977
MG Hartree energy from (\int eps (grad phi)^2 dr):     1259.742772
MG Discrepancy due to finite box and discretization:     -0.666205 (  -0.05286%)
MG Correction to account for finite box:                  0.473686
MG Remaining discrepancy, due to discretization:         -0.192519 (  -0.01527%)
     Trial step:       0.786309440039
             Q1:  -11707.281429343624
 Quadratic coef:       0.030193469833
 Linear coef   :      -0.068876484522
           Qmin:  -11707.282026098255
Quadratic minimum step length (  0.896853363927) accepted
    Initial Ne1:    7234.00005517
      Final Ne1:    7234.00000000

=================== Penalty functional idempotency correction ==================
 RMS occupancy error at iteration   1:  0.003436 (step -0.3570 Ne1=   7234.0000)
 RMS occupancy error at iteration   2:  0.000053 (step -0.4994 Ne1=   7234.0000)
            Final RMS occupancy error   :  0.000000 (Ne1=   7234.0000)
               Final occupancy bounds   : [  0.0000,  1.0000]
================================================================================

    6        -1.170724274633E+04     4.4738E-05     4.0471E-05    -3.6852E-02
MG BCs: +ve charge blocks (gridpoints):     24613 (   16668666).
MG BCs: -ve charge blocks (gridpoints):      8434 (    1061676).
MG BCs:     Elided blocks (gridpoints):    172507 (  173046363).
MG BCs: Computational effort saved:  99.9827%.
MG BCs: Charge after coarse-graining:           -9.0006833.
MG DL_MG: Calling solver with defect correction order = 8
MG DL_MG: Solver finished
MG Hartree energy from (\int phi*rho dr):              1260.372131
MG Hartree energy from (\int eps (grad phi)^2 dr):     1259.705959
MG Discrepancy due to finite box and discretization:     -0.666172 (  -0.05286%)
MG Correction to account for finite box:                  0.473650
MG Remaining discrepancy, due to discretization:         -0.192521 (  -0.01527%)
      ideal mu1:      -0.718195599717
             Q0:  -11707.285026459722
             G0:      -0.075503583349
   RMS gradient:       0.000041989479
MG BCs: +ve charge blocks (gridpoints):     24610 (   16666603).
MG BCs: -ve charge blocks (gridpoints):      8440 (    1062278).
MG BCs:     Elided blocks (gridpoints):    172510 (  173047824).
MG BCs: Computational effort saved:  99.9827%.
MG BCs: Charge after coarse-graining:           -9.0006837.
MG DL_MG: Calling solver with defect correction order = 8
MG DL_MG: Solver finished
MG Hartree energy from (\int phi*rho dr):              1259.283618
MG Hartree energy from (\int eps (grad phi)^2 dr):     1258.617426
MG Discrepancy due to finite box and discretization:     -0.666192 (  -0.05290%)
MG Correction to account for finite box:                  0.473600
MG Remaining discrepancy, due to discretization:         -0.192592 (  -0.01529%)
     Trial step:       0.839764411241
             Q1:  -11707.311223455239
 Quadratic coef:       0.037208226700
 Linear coef   :      -0.063405222218
           Qmin:  -11707.312038108495
Quadratic minimum step length (  0.715506405802) accepted
    Initial Ne1:    7234.00077409
      Final Ne1:    7234.00000000

=================== Penalty functional idempotency correction ==================
 RMS occupancy error at iteration   1:  0.000062 (step -0.4964 Ne1=   7234.0000)
            Final RMS occupancy error   :  0.000000 (Ne1=   7234.0000)
               Final occupancy bounds   : [ -0.0000,  1.0000]
================================================================================

    7        -1.170728502646E+04     4.1989E-05     3.7984E-05    -4.2280E-02
MG BCs: +ve charge blocks (gridpoints):     24610 (   16666919).
MG BCs: -ve charge blocks (gridpoints):      8437 (    1062187).
MG BCs:     Elided blocks (gridpoints):    172510 (  173047599).
MG BCs: Computational effort saved:  99.9827%.
MG BCs: Charge after coarse-graining:           -9.0006836.
MG DL_MG: Calling solver with defect correction order = 8
MG DL_MG: Solver finished
MG Hartree energy from (\int phi*rho dr):              1259.443601
MG Hartree energy from (\int eps (grad phi)^2 dr):     1258.777411
MG Discrepancy due to finite box and discretization:     -0.666190 (  -0.05290%)
MG Correction to account for finite box:                  0.473609
MG Remaining discrepancy, due to discretization:         -0.192582 (  -0.01529%)
      ideal mu1:      -0.717156418471
             Q0:  -11707.312055293354
             G0:      -0.071787729340
   RMS gradient:       0.000040947501
MG BCs: +ve charge blocks (gridpoints):     24612 (   16666963).
MG BCs: -ve charge blocks (gridpoints):      8441 (    1062121).
MG BCs:     Elided blocks (gridpoints):    172508 (  173047621).
MG BCs: Computational effort saved:  99.9827%.
MG BCs: Charge after coarse-graining:           -9.0006836.
MG DL_MG: Calling solver with defect correction order = 8
MG DL_MG: Solver finished
MG Hartree energy from (\int phi*rho dr):              1259.304017
MG Hartree energy from (\int eps (grad phi)^2 dr):     1258.637946
MG Discrepancy due to finite box and discretization:     -0.666071 (  -0.05289%)
MG Correction to account for finite box:                  0.473356
[...]
MG Correction to account for finite box:                  0.006338
MG Remaining discrepancy, due to discretization:         -0.191610 (  -0.01575%)
     Trial step:       0.304650224152
             Q1:  -11742.376839125063
 Quadratic coef:       0.000000000986
 Linear coef   :      -0.000000001452
           Qmin:  -11742.376839125132
Quadratic minimum step length (  0.224280659670) accepted
    Initial Ne1:    7234.00000000
      Final Ne1:    7234.00000000

=================== Penalty functional idempotency correction ==================
 RMS occupancy error at iteration   1:  0.000000 (step -0.5000 Ne1=   7234.0000)
            Final RMS occupancy error   :  0.000000 (Ne1=   7234.0000)
               Final occupancy bounds   : [  0.0000,  1.0000]
================================================================================

    7        -1.174237683912E+04     1.0548E-08     9.5421E-09    -9.3132E-10

Reusing previously generated solute cavity.
MG BCs: +ve charge blocks (gridpoints):     29038 (   18881780).
MG BCs: -ve charge blocks (gridpoints):      8435 (    1031145).
MG BCs:     Elided blocks (gridpoints):    168082 (  170863780).
MG BCs: Computational effort saved:  99.9804%.
MG BCs: Charge after coarse-graining:           -9.0009538.
MG DL_MG: Calling solver with defect correction order = 8
MG DL_MG: Solver finished
MG Hartree energy from (\int phi*rho dr):              1216.586947
MG Hartree energy from (\int eps (grad phi)^2 dr):     1216.388999
MG Discrepancy due to finite box and discretization:     -0.197948 (  -0.01627%)
MG Correction to account for finite box:                  0.006338
MG Remaining discrepancy, due to discretization:         -0.191610 (  -0.01575%)
      ideal mu1:      -0.480951892061
             Q0:  -11742.376839124947
             G0:      -0.000000002885
   RMS gradient:       0.000000006572

Reusing previously generated solute cavity.
MG BCs: +ve charge blocks (gridpoints):     29038 (   18881780).
MG BCs: -ve charge blocks (gridpoints):      8435 (    1031145).
MG BCs:     Elided blocks (gridpoints):    168082 (  170863780).
MG BCs: Computational effort saved:  99.9804%.
MG BCs: Charge after coarse-graining:           -9.0009538.
MG DL_MG: Calling solver with defect correction order = 8
MG DL_MG: Solver finished
MG Hartree energy from (\int phi*rho dr):              1216.586956
MG Hartree energy from (\int eps (grad phi)^2 dr):     1216.389008
MG Discrepancy due to finite box and discretization:     -0.197948 (  -0.01627%)
MG Correction to account for finite box:                  0.006338
MG Remaining discrepancy, due to discretization:         -0.191610 (  -0.01575%)
     Trial step:       0.261394631241
             Q1:  -11742.376839125063
 Quadratic coef:       0.000000000638
 Linear coef   :      -0.000000000754
           Qmin:  -11742.376839125169
Quadratic minimum step length (  0.154367167093) accepted
    Initial Ne1:    7234.00000000
      Final Ne1:    7234.00000000

=================== Penalty functional idempotency correction ==================
 RMS occupancy error at iteration   1:  0.000000 (step -0.5000 Ne1=   7234.0000)
            Final RMS occupancy error   :  0.000000 (Ne1=   7234.0000)
               Final occupancy bounds   : [ -0.0000,  1.0000]
================================================================================

    8        -1.174237683912E+04     6.5723E-09     5.9454E-09    -3.4925E-10

Reusing previously generated solute cavity.
MG BCs: +ve charge blocks (gridpoints):     29038 (   18881780).
MG BCs: -ve charge blocks (gridpoints):      8435 (    1031145).
MG BCs:     Elided blocks (gridpoints):    168082 (  170863780).
MG BCs: Computational effort saved:  99.9804%.
MG BCs: Charge after coarse-graining:           -9.0009538.
MG DL_MG: Calling solver with defect correction order = 8
MG DL_MG: Solver finished
MG Hartree energy from (\int phi*rho dr):              1216.586952
MG Hartree energy from (\int eps (grad phi)^2 dr):     1216.389005
MG Discrepancy due to finite box and discretization:     -0.197948 (  -0.01627%)
MG Correction to account for finite box:                  0.006338
MG Remaining discrepancy, due to discretization:         -0.191610 (  -0.01575%)
      ideal mu1:      -0.480951895125
             Q0:  -11742.376839125063
             G0:      -0.000000002237
   RMS gradient:       0.000000005060

Reusing previously generated solute cavity.
MG BCs: +ve charge blocks (gridpoints):     29038 (   18881780).
MG BCs: -ve charge blocks (gridpoints):      8435 (    1031145).
MG BCs:     Elided blocks (gridpoints):    168082 (  170863780).
MG BCs: Computational effort saved:  99.9804%.
MG BCs: Charge after coarse-graining:           -9.0009538.
MG DL_MG: Calling solver with defect correction order = 8
MG DL_MG: Solver finished
MG Hartree energy from (\int phi*rho dr):              1216.586956
MG Hartree energy from (\int eps (grad phi)^2 dr):     1216.389009
MG Discrepancy due to finite box and discretization:     -0.197948 (  -0.01627%)
MG Correction to account for finite box:                  0.006338
MG Remaining discrepancy, due to discretization:         -0.191610 (  -0.01575%)
     Trial step:       0.200874957916
             Q1:  -11742.376839124830
 Quadratic coef:       0.000000000682
 Linear coef   :      -0.000000000449
           Qmin:  -11742.376839125138
Quadratic minimum step length (  0.066152260640) accepted
    Initial Ne1:    7234.00000000
      Final Ne1:    7234.00000000

=================== Penalty functional idempotency correction ==================
 RMS occupancy error at iteration   1:  0.000000 (step -0.5000 Ne1=   7234.0000)
            Final RMS occupancy error   :  0.000000 (Ne1=   7234.0000)
               Final occupancy bounds   : [ -0.0000,  1.0000]
================================================================================

    9        -1.174237683913E+04     5.0596E-09     4.5770E-09    -1.1642E-10

Reusing previously generated solute cavity.
MG BCs: +ve charge blocks (gridpoints):     29038 (   18881780).
MG BCs: -ve charge blocks (gridpoints):      8435 (    1031145).
MG BCs:     Elided blocks (gridpoints):    168082 (  170863780).
MG BCs: Computational effort saved:  99.9804%.
MG BCs: Charge after coarse-graining:           -9.0009538.
MG DL_MG: Calling solver with defect correction order = 8
MG DL_MG: Solver finished
MG Hartree energy from (\int phi*rho dr):              1216.586954
MG Hartree energy from (\int eps (grad phi)^2 dr):     1216.389006
MG Discrepancy due to finite box and discretization:     -0.197948 (  -0.01627%)
MG Correction to account for finite box:                  0.006338
MG Remaining discrepancy, due to discretization:         -0.191610 (  -0.01575%)
      ideal mu1:      -0.480951894625
   10        -1.174237683912E+04     4.5131E-09     4.0827E-09     1.1642E-10
Finished density kernel iterations (  10)

Writing density kernel to file "complex_8841.dkn" ... done


>>> Density kernel optimised for the current NGWF basis:
     ~~~~~~~~~~~~~~~~~~~~~~~~~~~~~~~~~~~~~~~~~~~~~~~~~~~~~~~~~~~
     Total energy                =  -1.17423768391249E+04  Eh
     Estimated bandgap           =   9.7610E-02  Eh
     RMS occupancy error         =   3.6586E-16
     [H,K] commutator            =   4.0827E-09
     Occupancy bounds            = [ -0.000:  1.000]
     ~~~~~~~~~~~~~~~~~~~~~~~~~~~~~~~~~~~~~~~~~~~~~~~~~~~~~~~~~~~




################################################################################
########################### NGWF CG iteration  005 #############################
################################################################################
****** Reciprocal space K.E. preconditioning with k_zero =  3.5000 a0^-1 *******

>>> Checking for convergence of NGWFs: 
           ........................................................
           |         *** NGWF optimisation converged ***          |
           | RMS NGWF gradient =    0.00000093683983              |
           | Criteria satisfied:                                  |
           | -> RMS NGWF gradient lower than set threshold.       |
           ========================================================

Reusing previously generated solute cavity.
MG BCs: +ve charge blocks (gridpoints):     29038 (   18881780).
MG BCs: -ve charge blocks (gridpoints):      8435 (    1031145).
MG BCs:     Elided blocks (gridpoints):    168082 (  170863780).
MG BCs: Computational effort saved:  99.9804%.
MG BCs: Charge after coarse-graining:           -9.0009538.
MG DL_MG: Calling solver with defect correction order = 8
MG DL_MG: Solver finished
MG Hartree energy from (\int phi*rho dr):              1216.586954
MG Hartree energy from (\int eps (grad phi)^2 dr):     1216.389006
MG Discrepancy due to finite box and discretization:     -0.197948 (  -0.01627%)
MG Correction to account for finite box:                  0.006338
MG Remaining discrepancy, due to discretization:         -0.191610 (  -0.01575%)

================================================================================
           ---------------- ENERGY COMPONENTS (Eh) ----------------
           | Kinetic                    :     8573.98119325534390 |
           | Pseudo. (local,OBC,corr'd) :    -5074.53874950606405 |
           | Pseudopotential (non-local):     1411.60364873950675 |
           | Hartree (molecular)        :     1216.58695369709221 |
           | Exchange-correlation       :    -3376.72124060231863 |
           | Ion-ion (open BC)          :   832732.79069349996280 |
           | Dispersion Correction      :       -3.26176415015889 |
           | Smeared ion non-self corr. :  -832684.52201379940379 |
           | Smeared ion self corr.     :   -14538.95273137971526 |
           | Solvent cavitation energy  :        2.33806322398152 |
           | Solute-solvent dis-rep en. :       -1.68089210330092 |
           | Total                      :   -11742.37683912506145 |
           --------------------------------------------------------
           ------ LOCAL ENERGY COMPONENTS FROM MATRIX TRACES ------
           | Pseudopotential (local)    :    -5074.53874950607133 |
           | Hartree                    :    -2002.06306743807477 |
           --------------------------------------------------------
           Integrated density           :     7233.99999999897864
           Integrated density tr(KS)    :     7233.99999999999818
================================================================================


                        <<<<< CALCULATION SUMMARY >>>>>                         
|ITER|    RMS GRADIENT   |     TOTAL ENERGY    |   step   |     Epredicted              
   0     0.00004018652526 -11742.31614811357576   0.606484 -11742.36858588391988        
   1     0.00001051021220 -11742.37617689743638   0.093315 -11742.37672876971010        
   2     0.00000468070996 -11742.37681497854646   0.017306 -11742.37683527772424        
   3     0.00000210725682 -11742.37683811830357   0.003564 -11742.37683896566887        
   4     0.00000093683983 -11742.37683912494686  <-- CG                                 

=================== Finished the calculation in solvent ========================
= Adjusting the following parameters: 
= read_denskern: F
= read_tightbox_ngwfs: F
= maxit_pen: 0 (restored to user-specified value)
= restart read filename prefix: ""
= restart write filename prefix: ""
================================================================================

================================================================================
IS: Calculation in solvent completed (NGWFs converged).      

Individual components of total energy in solvent:     hartree           kcal/mol
- Usual non-electrostatic DFT terms:    -12959.62096394272157    -8132284.758710
- Electrostatic fixed charge energy:      1216.58695369709221      763419.822904
- Apolar cavitation energy:                  2.33806322398152        1467.156792
- Apolar dispersion-repulsion energy:       -1.68089210330092       -1054.775697
 -------------------------------------------------------------------------------
- Total energy in solvent:              -11742.37683912494686    -7368452.554711

Components of total energy in solvent:                hartree           kcal/mol
- Usual non-electrostatic DFT terms:    -12959.62096394272157    -8132284.758710
- Electrostatic energy:                   1216.58695369709221      763419.822904
- Apolar energy terms:                       0.65717112068061         412.381095
 -------------------------------------------------------------------------------
- Total energy in solvent:              -11742.37683912494686    -7368452.554711

Calculation of free energy of solvation:              hartree           kcal/mol
- Total energy in solvent:         (+)  -11742.37683912494686    -7368452.554711
- Total energy in vacuum:          (-)  -11738.52119557640981    -7366033.101908
 -------------------------------------------------------------------------------
- Total free energy of solvation:           -3.85564354853705       -2419.452803

Components of polar term in f.e. of solvation:        hartree           kcal/mol
- Electrostatic:                            -4.73055455839926       -2968.467739
- Change in nonelectrostatic DFT terms:      0.21773988917994         136.633840
 -------------------------------------------------------------------------------
- Polar term in f.e. of solvation:          -4.51281466921932       -2831.833898

Components of free energy of solvation:               hartree           kcal/mol
- Polar term in f.e. of solvation: (+)      -4.51281466921932       -2831.833898
- Apolar (cavitation, dis., rep.): (+)       0.65717112068061         412.381095
 -------------------------------------------------------------------------------
- Total free energy of solvation:           -3.85564354853872       -2419.452803
================================================================================


------------------------------ TIMING INFORMATION ------------------------------
AVERAGE TIME:   33072.976s on     60 node(s)                                    
TOTAL TIME:     33072.976s on     60 node(s)                                    
================= AVERAGE TIMINGS FROM ALL NODES (CUMULATIVE) ==================
|| TAG                                    #calls    cpu time   %total  Gflops ||
|| work_imbalance                       :     1        0.00s   0.000%  ------ ||
|| sparse_set_to_garbage                :   194        0.03s   0.000%  ------ ||
|| parallel_prepare_fd_halos_request    :  2073        0.04s   0.000%  ------ ||
|| ngwfs_initialise_from_radial         :     1        0.09s   0.000%  ------ ||
|| basis_extract_function_from_box      :  3817        0.17s   0.001%  ------ ||
|| parallel_prepare_fd_halos_satisfy    :  2073        0.71s   0.002%  ------ ||
|| parallel_prepare_fd_halos_alloc      :  2073        1.84s   0.006%  ------ ||
|| pseudopotentials_nonlocal_mat        :    33        2.51s   0.008%  ------ ||
|| restart_kernel_read                  :     1        4.29s   0.013%  ------ ||
|| openbc_locps_radial                  :     1        4.62s   0.014%  ------ ||
|| restart_ngwfs_tightbox_input         :     1        7.96s   0.024%  ------ ||
|| parallel_prepare_fd_halos_comms_imbal:  2073        9.97s   0.030%  ------ ||
|| density_init_guess_real              :     1       12.02s   0.036%  ------ ||
|| parallel_prepare_fd_halos_clear      :  2073       21.30s   0.064%  ------ ||
|| sparse_init                          :     2       22.48s   0.068%  ------ ||
|| projectors_func_ovlp_box             :    33       28.51s   0.086%  ------ ||
|| parallel_prepare_fd_halos_comms_wait :  2073       28.96s   0.088%  ------ ||
|| function_ops_brappd_ketppd           :    33       31.68s   0.096%  ------ ||
|| projectors_init_fftbox_recip         :   152       34.16s   0.103%  ------ ||
|| palser_mano_kernel_optimise          :     1       36.97s   0.112%  ------ ||
|| basis_copy_function_to_box           : 62277       44.73s   0.135%  ------ ||
|| ngwf_gradient_coeffs                 :    17       51.63s   0.156%  ------ ||
|| fourier_apply_box_pair               :  5523       57.51s   0.174% 556.042 ||
|| pseudo_make_structure_factor         :     2       58.21s   0.176%  ------ ||
|| parallel_prepare_fd_halos            :  2073       62.84s   0.190%  ------ ||
|| sparse_embed_hotelling_invert_embed  :    33       81.94s   0.248%  ------ ||
|| restart_kernel_write                 :    18      114.13s   0.345%  ------ ||
|| finite_difference_derivative         :  2073      144.95s   0.438%  ------ ||
|| integrals_kinetic                    :    33      161.28s   0.488%  ------ ||
|| projectors_gradient_batch            :   119      161.31s   0.488%  ------ ||
|| fourier_apply_cell_backward          :  1383      186.13s   0.563% 101.141 ||
|| sparse_trace                         :  5661      209.41s   0.633%  ------ ||
|| basis_dot_function_with_box          : 9.469M     209.47s   0.633%  ------ ||
|| fourier_apply_cell_forward           :  1381      242.27s   0.733%  77.590 ||
|| openbc_locps_on_grid                 :     2      267.34s   0.808%  ------ ||
|| kernel_purify                        :   527      315.54s   0.954%  ------ ||
|| lnv_gradient_norm                    :   170      456.04s   1.379%  ------ ||
|| basis_add_function_to_box            : 19.78M     457.05s   1.382%  ------ ||
|| hamiltonian_energy_components        :     4      484.69s   1.466%  ------ ||
|| xc_energy_potential                  :   345      497.33s   1.504%  ------ ||
|| kernel_fix                           :   170      566.09s   1.712%  ------ ||
|| integrals_locpot_mat_els_batch       :  1253      781.71s   2.364%  ------ ||
|| ngwf_gradient_build_batch            :   119      818.50s   2.475%  ------ ||
|| restart_ngwfs_tightbox_output        :    15     1066.94s   3.226%  ------ ||
|| density_batch_row_sums               :  2408     1091.55s   3.300%  ------ ||
|| ngwf_gradient_batch                  :   119     1132.93s   3.426%  ------ ||
|| ngwf_gradient_lnv                    :    17     1292.95s   3.909%  ------ ||
|| cell_grid_deposit_box_real           : 39956     1476.97s   4.466%  ------ ||
|| cell_grid_extract_box_real           : 43640     1650.30s   4.990%  ------ ||
|| sparse_product                       :  7111     1970.61s   5.958%  ------ ||
|| density_fftbox_deposit_to_cell       : 37840     2191.42s   6.626%  ------ ||
|| potential_apply_to_ngwf_batch        :  1253     3907.45s  11.815%  ------ ||
|| density_fftbox_interpolate_multiply  : 37840     3929.15s  11.880%  ------ ||
|| integrals_locpot_dbl_grid            :   179     4708.94s  14.238%  ------ ||
|| multigrid_prepare_bound_cond         :   345     4772.53s  14.430%  ------ ||
|| fourier_apply_box                    : 130.0k    4845.68s  14.651% 752.542 ||
|| density_batch_interp_deposit         :  2408     7124.98s  21.543%  ------ ||
|| dl_mg_solver_calls                   :   345     8102.13s  24.498%  ------ ||
|| density_on_dbl_grid                  :   344     8620.44s  26.065%  ------ ||
|| multigrid_calculate_hartree          :   345    13079.64s  39.548%  ------ ||
|| hamiltonian_lhxc_calculate           :   340    22140.79s  66.945%  ------ ||
|| lnv_denskernel_optimise_cg           :    17    27779.65s  83.995%  ------ ||
|| ngwf_cg_optimise                     :     2    32086.62s  97.018%  ------ ||
|| total_time                           :     1    33072.98s 100.000%  ------ ||
================================================================================
Overhead of generating timer report: 
- 0 ms averaging over threads,
- 15 ms ensuring consistency across MPI ranks,
- 0 ms printing in order.

Job completed: 09-03-2020 16:43 (-0000)

Application 39596508 resources: utime ~6954257s, stime ~232600s, Rss ~3656308, inblocks ~350168777, outblocks ~70806311
