 +---------------------------------------------------------------+
 |                                                               |
 |        ####### #     # ####### ####### ####### ######         |
 |        #     # ##    # #          #    #       #     #        |
 |        #     # # #   # #          #    #       #     #        |
 |        #     # #  #  # #####      #    #####   ######         |
 |        #     # #   # # #          #    #       #              |
 |        #     # #    ## #          #    #       #              |
 |        ####### #     # #######    #    ####### #              |
 |                                                               |
 |        Linear-Scaling Ab Initio Total Energy Program          |
 |                                                               |
 |          Release for academic collaborators of ODG            |
 |                                             Version 5.3.2.6.  |
 |                                                               |
 +---------------------------------------------------------------+
 |                                                               |
 |  Authors:                                                     |
 |  Jacek Dziedzic, Peter D. Haynes, Nicholas D. M. Hine,        |
 |  Arash. A. Mostofi, Mike C. Payne and Chris-Kriton Skylaris   |
 |                                                               |
 |  Contributors:                                                |
 |  J. Aarons, L. Andrinopoulos, P. W. Avraam, R. A. Bell,       |
 |  A. Bhandari, G. A. Bramley, R. J. Charlton, S. J. Clark,     |
 |  R. J. Clements, G. C. Constantinescu, F. Corsetti,           |
 |  N. Corsini, O. Dieguez, S. M. M. Dubois, K. K. B. Duff,      |
 |  J. M. Escartin, A. Greco, H. Helal, Q. O. Hill, L. P. Lee,   |
 |  J.-H. Li, E. B. Linscott, G. Moynihan, D. D. O`Regan,        |
 |  O. K. Okan, M. J. S. Phipps, C. J. Pickard,                  |
 |  J. C. A. Prentice, M. I. J. Probert, L. E. Ratcliff,         |
 |  M. Robinson, A. Ruiz Serrano, J. S. Spencer, E. W. Tait,     |
 |  G. Teobaldi, D. Turban, V. Vitale, K. A. Wilkinson,          |
 |  C. Weber, J. C. Womack, N. Yeung and T. J. Zuehlsdorff       |
 |                                                               |
 |                                   Copyright (c) 2004-2019     |
 |                                                               |
 |  Please cite:                                                 |
 |  "Introducing ONETEP: Linear-scaling density functional       |
 |   simulations on parallel computers".                         |
 |   C.-K. Skylaris, P. D. Haynes, A. A. Mostofi, M. C. Payne.   |
 |   J. Chem. Phys. 122 084119 (2005).                           |
 |                                                               |
 |          in all publications arising from your use of ONETEP. |
 |                                                               |
 +---------------------------------------------------------------+
 |                                                               |
 |   ONETEP is based on developments described in the following  |
 |   publications:                                               |
 |                                                               |
 |  "Nonorthogonal generalized Wannier function pseudopotential  |
 |   plane-wave method".                                         |
 |   C.-K. Skylaris, A. A. Mostofi, P. D. Haynes, O. Dieguez,    |
 |   M. C. Payne.                                                |
 |   Phys. Rev. B 66 035119 (2002).                              |
 |                                                               |
 |  "Preconditioned iterative minimization for linear-scaling    |
 |   electronic structure calculations".                         |
 |   A. A. Mostofi, P. D. Haynes, C.-K. Skylaris, M. C. Payne.   |
 |   J. Chem. Phys. 119(17), pp.8842-8848 (2003).                |
 |                                                               |
 |  "Total-energy calculations on a real space grid with         |
 |   localized functions and a plane-wave basis".                |
 |   A. A. Mostofi, C.-K. Skylaris, P. D. Haynes, M. C. Payne.   |
 |   Comput. Phys. Commun. 147, pp.788-802 (2002).               |
 |                                                               |
 |  "Accurate kinetic energy evaluation in electronic structure  |
 |   calculations with localized functions on real space grids"  |
 |   C.-K. Skylaris, A. A. Mostofi, P. D. Haynes, C. J. Pickard, |
 |   M. C. Payne.                                                |
 |   Comput. Phys. Commun. 140, pp.315-322 (2001).               |
 |                                                               |
 |  "Accurate ionic forces and geometry optimization in linear-  |
 |   scaling density-functional theory with local orbitals"      |
 |   N. D. M. Hine, M. Robinson, P. D. Haynes, C.-K. Skylaris,   |
 |   M. C. Payne, and A. A. Mostofi.                             |
 |   Phys. Rev. B 83 195102 (2011).                              |
 |                                                               |
 +---------------------------------------------------------------+

Job started: 02-02-2020 19:50 (-0000)
 
Reading parameters from file "complex_3521.dat" ...... done

If your calculation crashes here, before "Checking processes and threads..."
is displayed, then your stack size is insufficient.
If so, use "ulimit -s unlimited" at runtime.
You can disable this check with "check_stack_size F".

Checking processes and threads...
   Determining the default number of threads...
      No default threads set at compilation time: defaulting to 1.
      OpenMP library call suggests 4 threads.
      Hybrid MPI-OpenMP compilation detected.
      Number of MPI processes > 1.
      OMP_NUM_THREADS environment variable present and
      its value matches the one obtained from the OpenMP library call.
      Using this value as default.
      Default threads: 4
      Default applies to threads_max and threads_num_fftboxes.
      Settings in the input file override this default.
   ... done

   Running with 30 MPI processes.
   There are 4 MPI processes running on the same node as the root process.
   Each MPI process is using: 
               1 threads for simulation cell FFTs.
               1 threads for parallel FFT box operations.
               4 threads for loops over batched FFT box operations.
               4 threads in other parallel regions.
... done

Basic input checks...... done

Reading geometry and species blocks from file "complex_3521.dat" ...
  <species_atomic_set> block not found: NGWF initialisation set to SOLVE
IS: Dielectric excluded regions:
    - NONE.
    
  Number of PPD points along a3 set to 1.  This is 
  the default value, it may have been provided also in the input file.
... done
 Writing xyz coordinates to file "complex_3521.xyz" ... done


--------------------------------------------------------------------------------
---------------------------------- INPUT FILE ----------------------------------
--------------------------------------------------------------------------------

cutoff_energy       : 800 eV                                                    
xc_functional PBE                                                               
task SINGLEPOINT                                                                
write_xyz true                                                                  
output_detail VERBOSE                                                           
ngwf_threshold_orig : 0.000002                                                  
kernel_cutoff       : 1000                                                      
k_zero              : 3.5                                                       
elec_cg_max 0                                                                   
occ_mix 1.0                                                                     
dispersion 1                                                                    
maxit_ngwf_cg 40                                                                
minit_lnv 10                                                                    
maxit_lnv 10                                                                    
write_denskern T                                                                
write_tightbox_ngwfs T                                                          
charge 9                                                                        
is_implicit_solvent T                                                           
is_auto_solvation T                                                             
is_include_apolar T                                                             
is_smeared_ion_rep T                                                            
is_solvent_surf_tension 4.7624E-5 Ha/bohr**2                                    
is_apolar_scaling_factor 0.281075                                               
is_solvation_beta 1.3                                                           
is_density_threshold 0.00035                                                    
is_bulk_permittivity 78.54                                                      
is_dielectric_model fix_initial                                                 
is_smeared_ion_width 0.8                                                        
mg_defco_fd_order 8                                                             
is_bc_coarseness 10                                                             
is_bc_surface_coarseness 1                                                      
fine_grid_scale 2.0                                                             
%block species                                                                  
N   N   7 4 8.0                                                                 
H   H   1 1 8.0                                                                 
C   C   6 4 8.0                                                                 
S   S  16 9 8.0                                                                 
O   O   8 4 8.0                                                                 
%endblock species                                                               
%block species_pot                                                              
N   N_00.recpot                                                                 
H   H_04.recpot                                                                 
C   C_01.recpot                                                                 
S   S_00.recpot                                                                 
O   O_02.recpot                                                                 
%endblock species_pot                                                           
%block lattice_cart                                                             
139.252   0.000   0.000                                                         
0.000 142.425   0.000                                                           
0.000   0.000   162.84                                                          
%endblock lattice_cart                                                          
%block positions_abs                                                            
     Hash =  -000006864680930369537910
%endblock positions_abs                                                         

--------------------------------------------------------------------------------
-------------------------------- END INPUT FILE --------------------------------
--------------------------------------------------------------------------------


 
 ESDF WARNING(1): "kernelcutoff" (esdf_physical) has no units. Assume "bohr".
 ESDF WARNING(2): "kzero" (esdf_physical) has no units. Assume "1/bohr".
 ESDF WARNING(3
 ): "issmearedionwidth" (esdf_physical) has no units. Assume "bohr".
<<<<<<<<<<<<<<<<<<<<<<<<<<<<<<<<< Full system >>>>>>>>>>>>>>>>>>>>>>>>>>>>>>>>>>
<<<<<<<<<<<<<<<<<<<<<<<<< Pseudopotential information >>>>>>>>>>>>>>>>>>>>>>>>>>
File: N_00.recpot [ 2001 points up to Gmax=  52.9 (1/bohr)]
  Atomic number:  7;  ionic charge:  5.000000
    Shell 1: l = 0; rc = 1.48 bohr
File: H_04.recpot [ 2001 points up to Gmax=  52.9 (1/bohr)]
  Atomic number:  1;  ionic charge:  1.000000
    Local potential
File: C_01.recpot [ 2001 points up to Gmax=  52.9 (1/bohr)]
  Atomic number:  6;  ionic charge:  4.000000
    Shell 1: l = 0; rc = 1.48 bohr
File: S_00.recpot [ 2001 points up to Gmax=  52.9 (1/bohr)]
  Atomic number: 16;  ionic charge:  6.000000
    Shell 1: l = 0; rc = 1.90 bohr
    Shell 2: l = 2; rc = 1.84 bohr
File: O_02.recpot [ 2001 points up to Gmax=  52.9 (1/bohr)]
  Atomic number:  8;  ionic charge:  6.000000
    Shell 1: l = 0; rc = 1.31 bohr
<<<<<<<<<<<<<<<<<<<<<<<<<<<<<<<<<<<<<<<<>>>>>>>>>>>>>>>>>>>>>>>>>>>>>>>>>>>>>>>>

-------------------------- Atom counting information ---------------------------
Symbol    Natoms    Nngwfs    Nprojs
  N        237       948       237
  H       1318      1318         0
  C        816      3264       816
  S          6        54        36
  O        240       960       240
.......   ......    ......    ......
Totals:   2617      6544      1329
--------------------------------------------------------------------------------

=============================== PSINC grid sizes ===============================
                      Simulation cell:  275 x 280 x 320
                              FFT-box:   99 x  99 x  99
                                  PPD:    5 x   5 x   1
Grid space d1=  0.506370909091a0 (KE cutoff=  29.62556Eh = 806.15239eV)
Grid space d2=  0.508660714286a0 (KE cutoff=  29.35943Eh = 798.91072eV)
Grid space d3=  0.508875000000a0 (KE cutoff=  29.33471Eh = 798.23802eV)
================================================================================

********************* Fourier parallelisation information **********************
       Coarse grid (whole simulation cell) dimensions:    275   280   320
          Real-space ('12') slabs/node (min max mean):     10    11    10
         Recip-space ('23') slabs/node (min max mean):      4     5     4
********************************************************************************

********************* Fourier parallelisation information **********************
       Double grid (whole simulation cell) dimensions:    550   560   640
          Real-space ('12') slabs/node (min max mean):     21    22    21
         Recip-space ('23') slabs/node (min max mean):      9    10     9
********************************************************************************
ONETEP fine grid is 550 x 560 x 640 gridpoints, 139.2520 x 142.4250 x 162.8400 bohr.
FD multigrid is     545 x 553 x 633 gridpoints, 137.9861 x 140.6447 x 161.0589 bohr.


Calculating local pseudopotential in open BC on a radial grid ...
Discrepancy between calculated realspace psloc and -Z/x on [5a0,257.280a0]:
max |rel. diff| # avg |rel. diff| #  avg rel. diff #  f # pseudopotential file
 0.000256370913    0.000003612608   0.000000072509   55  'N_00.recpot'
 0.000395389207    0.000016224277  -0.000000076597   55  'H_04.recpot'
 0.000377360759    0.000017565724   0.000000149252   55  'C_01.recpot'
 0.000469715301    0.000020587835   0.000000455518   55  'S_00.recpot'
 0.000665442002    0.000026079317   0.000000158685   55  'O_02.recpot'
... done

Atom SCF Calculation for N  : Z (AE atom) =   7 : Z (PS atom) =   5
Config String:
Orbitals (num,occ):  2     2.00 3.00
Orbitals   (num,l):  2        0    1
Real-space Grid (nr,dr,rmax): 1203    0.0066555740    8.0000000000
Spherical Bessel Basis (nsws,lmax,cutoff):   47    1  176.3951722778
Confining potential (l,width,scale):  0    3.0000000000  100.0000000000
Confining potential (l,width,scale):  1    3.0000000000  100.0000000000
  1         -4.7312375307   -3.4155304497    7.0523828109   -1.9351020946
  2         -9.7309464766   -2.0532547791    8.2966052865   -2.2494486027
  3         -9.6627394379   -2.1124926340    8.2327997121   -2.2369778124
  4         -9.6814993499   -2.1215521045    8.2229805960   -2.2365178421
  5         -9.6843326483   -2.1250939529    8.2191374534   -2.2362718126
  6         -9.6859628709   -2.1267894855    8.2172963573   -2.2362066344
  7         -9.6867347035   -2.1276425665    8.2163697352   -2.2361903369
  8         -9.6870802100   -2.1280764625    8.2158983890   -2.2361891460
  9         -9.6872290423   -2.1282977424    8.2156580222   -2.2361920435
 10         -9.6872901988   -2.1284107021    8.2155353368   -2.2361953393
 11         -9.6873135296   -2.1284684031    8.2154726809   -2.2361979819
 12         -9.6873212476   -2.1284978948    8.2154406648   -2.2361998431
 13         -9.6873229586   -2.1285129774    8.2154242957   -2.2362010676
 14         -9.6873226456   -2.1285206957    8.2154159216   -2.2362018403
 15         -9.6873218534   -2.1285246479    8.2154116349   -2.2362023142
 16         -9.6873212599   -2.1285262679    8.2154098784   -2.2362025420
 17         -9.6873207834   -2.1285272564    8.2154088068   -2.2362026955
 18         -9.6873204210   -2.1285278597    8.2154081529   -2.2362027982
 19         -9.6873201550   -2.1285282280    8.2154077538   -2.2362028667
 20         -9.6873199645   -2.1285284529    8.2154075102   -2.2362029121
 21         -9.6873198305   -2.1285285903    8.2154073614   -2.2362029421
 22         -9.6873197377   -2.1285286742    8.2154072705   -2.2362029618
Atom SCF converged after  22 iterations to a total energy of     -9.68731974

Atom SCF Calculation for H  : Z (AE atom) =   1 : Z (PS atom) =   1
Config String:
Orbitals (num,occ):  1     1.00
Orbitals   (num,l):  1        0
Real-space Grid (nr,dr,rmax): 1203    0.0066555740    8.0000000000
Spherical Bessel Basis (nsws,lmax,cutoff):   47    0  176.3951722778
Confining potential (l,width,scale):  0    3.0000000000  100.0000000000
  1         -0.3194257691   -0.2393854593    0.2820953124   -0.2424203209
  2         -0.3951823392   -0.2377116493    0.2886404059   -0.2475147891
  3         -0.4317044583   -0.2352244387    0.2921333887   -0.2514046172
  4         -0.4470703708   -0.2341892222    0.2934391879   -0.2531009782
  5         -0.4532132900   -0.2338556667    0.2938388426   -0.2537313520
  6         -0.4556579251   -0.2337612552    0.2939448584   -0.2539550462
  7         -0.4566418315   -0.2337377355    0.2939680120   -0.2540342273
  8         -0.4570437922   -0.2337331116    0.2939708287   -0.2540627372
  9         -0.4572102946   -0.2337328328    0.2939698291   -0.2540732650
 10         -0.4572800424   -0.2337332404    0.2939687193   -0.2540772588
 11         -0.4573095100   -0.2337335791    0.2939680317   -0.2540788122
 12         -0.4573220379   -0.2337337762    0.2939676699   -0.2540794294
 13         -0.4573273880   -0.2337338775    0.2939674931   -0.2540796787
 14         -0.4573296803   -0.2337339266    0.2939674099   -0.2540797808
 15         -0.4573306647   -0.2337339495    0.2939673718   -0.2540798230
 16         -0.4573310882   -0.2337339601    0.2939673545   -0.2540798406
 17         -0.4573312706   -0.2337339649    0.2939673467   -0.2540798479
 18         -0.4573313493   -0.2337339670    0.2939673433   -0.2540798510
Atom SCF converged after  18 iterations to a total energy of     -0.45733135

Atom SCF Calculation for C  : Z (AE atom) =   6 : Z (PS atom) =   4
Config String:
Orbitals (num,occ):  2     2.00 2.00
Orbitals   (num,l):  2        0    1
Real-space Grid (nr,dr,rmax): 1203    0.0066555740    8.0000000000
Spherical Bessel Basis (nsws,lmax,cutoff):   47    1  176.3951722778
Confining potential (l,width,scale):  0    3.0000000000  100.0000000000
Confining potential (l,width,scale):  1    3.0000000000  100.0000000000
  1         -5.2976922011   -1.3069684169    4.5135249990   -1.4493313817
  2         -5.3721716256   -1.3429755895    4.4750154450   -1.4361613026
  3         -5.3809959565   -1.3617365618    4.4541655428   -1.4305930207
  4         -5.3918938866   -1.3667928461    4.4484735100   -1.4294652294
  5         -5.3956096428   -1.3688539142    4.4461376126   -1.4290734646
  6         -5.3968271862   -1.3696852393    4.4451910874   -1.4289366866
  7         -5.3972028401   -1.3700178062    4.4448112275   -1.4288900460
  8         -5.3973067903   -1.3701500158    4.4446598370   -1.4288749220
  9         -5.3973286940   -1.3702023868    4.4445997329   -1.4288704293
 10         -5.3973289850   -1.3702230869    4.4445759233   -1.4288693188
 11         -5.3973254264   -1.3702312560    4.4445665049   -1.4288691775
 12         -5.3973224003   -1.3702344755    4.4445627836   -1.4288692549
 13         -5.3973208708   -1.3702354890    4.4445616088   -1.4288693270
 14         -5.3973198783   -1.3702360102    4.4445610034   -1.4288693814
 15         -5.3973192535   -1.3702362780    4.4445606917   -1.4288694190
 16         -5.3973188684   -1.3702364155    4.4445605313   -1.4288694437
 17         -5.3973186349   -1.3702364860    4.4445604489   -1.4288694595
 18         -5.3973184951   -1.3702365221    4.4445604065   -1.4288694693
 19         -5.3973184122   -1.3702365405    4.4445603848   -1.4288694753
Atom SCF converged after  19 iterations to a total energy of     -5.39731841

Atom SCF Calculation for S  : Z (AE atom) =  16 : Z (PS atom) =   6
Config String:
Orbitals (num,occ):  3     2.00 4.00 0.00
Orbitals   (num,l):  3        0    1    2
Real-space Grid (nr,dr,rmax): 1203    0.0066555740    8.0000000000
Spherical Bessel Basis (nsws,lmax,cutoff):   47    2  176.3951722778
Confining potential (l,width,scale):  0    3.0000000000  100.0000000000
Confining potential (l,width,scale):  1    3.0000000000  100.0000000000
Confining potential (l,width,scale):  2    3.0000000000  100.0000000000
  1        -12.4735062396   -1.0328741412   10.1554312477   -2.4512393157
  2         -9.9458301913   -2.4607392455    8.3041325857   -2.0306994528
  3        -10.1450417646   -2.2931184565    8.4831893826   -2.0812538287
  4        -10.1528335592   -2.2733105793    8.5050388867   -2.0896035179
  5        -10.1571940363   -2.2633716629    8.5160794258   -2.0939370707
  6        -10.1594380571   -2.2584938667    8.5215163935   -2.0961289008
  7        -10.1605856507   -2.2561081821    8.5241804044   -2.0972291378
  8        -10.1611799191   -2.2549395235    8.5254868240   -2.0977806248
  9        -10.1614918752   -2.2543658586    8.5261285885   -2.0980571586
 10        -10.1616572884   -2.2540839121    8.5264441898   -2.0981959233
 11        -10.1617455602   -2.2539453058    8.5265994231   -2.0982656006
 12        -10.1617928447   -2.2538772062    8.5266757320   -2.0983006047
 13        -10.1618182292   -2.2538437891    8.5267131983   -2.0983181961
 14        -10.1618318741   -2.2538274201    8.5267315620   -2.0983270391
 15        -10.1618392144   -2.2538194197    8.5267405433   -2.0983314852
 16        -10.1618431651   -2.2538155200    8.5267449245   -2.0983337210
 17        -10.1618452923   -2.2538136252    8.5267470551   -2.0983348455
 18        -10.1618464380   -2.2538127080    8.5267480875   -2.0983354110
 19        -10.1618470552   -2.2538122659    8.5267485856   -2.0983356955
 20        -10.1618473878   -2.2538120540    8.5267488248   -2.0983358386
 21        -10.1618475670   -2.2538119530    8.5267489389   -2.0983359106
 22        -10.1618476637   -2.2538119053    8.5267489929   -2.0983359468
Atom SCF converged after  22 iterations to a total energy of    -10.16184766

Atom SCF Calculation for O  : Z (AE atom) =   8 : Z (PS atom) =   6
Config String:
Orbitals (num,occ):  2     2.00 4.00
Orbitals   (num,l):  2        0    1
Real-space Grid (nr,dr,rmax): 1203    0.0066555740    8.0000000000
Spherical Bessel Basis (nsws,lmax,cutoff):   47    1  176.3951722778
Confining potential (l,width,scale):  0    3.0000000000  100.0000000000
Confining potential (l,width,scale):  1    3.0000000000  100.0000000000
  1         -1.8735052164   -7.5539365035   10.1554312477   -2.4512393157
  2        -16.0318313751   -3.1285771268   13.6395848164   -3.2358799643
  3        -15.9524020423   -3.0762819706   13.6967272503   -3.2536856837
  4        -15.8521515939   -3.0781493909   13.6951909330   -3.2561700440
  5        -15.8357139793   -3.0748501933   13.6988803334   -3.2580493133
  6        -15.8246052853   -3.0740779781   13.6997881576   -3.2588327446
  7        -15.8189019501   -3.0737449687   13.7001869911   -3.2592378801
  8        -15.8159785510   -3.0736026016   13.7003615168   -3.2594475790
  9        -15.8144776168   -3.0735437994   13.7004360379   -3.2595560735
 10        -15.8137058024   -3.0735207882   13.7004667348   -3.2596122456
 11        -15.8133083127   -3.0735125946   13.7004786868   -3.2596413656
 12        -15.8131032938   -3.0735102195   13.7004828997   -3.2596564858
 13        -15.8129973902   -3.0735099286   13.7004840891   -3.2596643505
 14        -15.8129426040   -3.0735102506   13.7004842061   -3.2596684489
 15        -15.8129142203   -3.0735106556   13.7004840157   -3.2596705887
 16        -15.8128994940   -3.0735109855   13.7004837906   -3.2596717080
 17        -15.8128918425   -3.0735112169   13.7004836103   -3.2596722946
 18        -15.8128878614   -3.0735113674   13.7004834848   -3.2596726026
 19        -15.8128857871   -3.0735114608   13.7004834035   -3.2596727646
 20        -15.8128847048   -3.0735115170   13.7004833533   -3.2596728500
 21        -15.8128841394   -3.0735115501   13.7004833231   -3.2596728951
 22        -15.8128838436   -3.0735115693   13.7004833054   -3.2596729190
 23        -15.8128836887   -3.0735115802   13.7004832951   -3.2596729316
 24        -15.8128836074   -3.0735115864   13.7004832893   -3.2596729383
Atom SCF converged after  24 iterations to a total energy of    -15.81288361

========================== Calculation in vacuum ==============================
= Adjusting the following parameters: 
= is_implicit_solvent: F
= is_include_apolar: F
= write_denskern: T
= write_tightbox_ngwfs: T
= restart read filename prefix: ""
= restart write filename prefix: "vacuum_"
===============================================================================

Determining parallel strategy ...
... using space-filling curve
... NGWF load balancing: max    219;  min    218;  average    218
... Projector load balancing: max     47;  min     43;  average     44
... done
Calculating direct Ion-Ion energy ...
Ion-Ion Energy        :    838779.50543567910790
======================= Empirical dispersion information =======================
Model : Elstner
Dispersion Correction Energy: -0.33070015E+01 Hartree
================================================================================
Basis initialisation ...... NGWF spheres initialised
... Projector spheres initialised
... NGWF tight boxes initialised
... Tight-boxes gathered
... NGWF basis size (local,global):    2201634  66081672
... Nonlocal pseudopotential projector initialisation
... done

========================== Sparse matrix information ===========================
                        Overlap matrix filling:   6.77%
                        Density kernel filling: 100.00%
              NGWF-Proj overlap matrix filling:   1.77%
                    Hamiltonian matrix filling:   7.65%
                  NGWF diagonal matrix filling:   0.05%
                             KS matrix filling: 100.00% 
                           KSKS matrix filling: 100.00% 
================================================================================

Sparse matrix initialisation ... done

Generating smeared ion density ... done
Smeared ion self correction:     -14538.952731
Smeared ion non-self correction: -838730.972503
NGWF initialisation ...... done
============ Calculation of NGWF S^-1 using Hotelling algorithm ================ 
         Iteration  |  Frobenius norm and Maximum abs value    (of I-S*S_n^-1)   
               1       0.78662331E+02     0.98232023E+00
               2       0.76768310E+02     0.96511702E+00
               3       0.73714702E+02     0.93204132E+00
               4       0.69396997E+02     0.87064379E+00
               5       0.64041991E+02     0.76373106E+00
               6       0.58046279E+02     0.70124666E+00
               7       0.52045698E+02     0.66761391E+00
               8       0.46496837E+02     0.64342157E+00
               9       0.40366705E+02     0.60120341E+00
              10       0.31997580E+02     0.52717115E+00
              11       0.21361268E+02     0.41012639E+00
              12       0.10798006E+02     0.26653745E+00
              13       0.34903311E+01     0.11753115E+00
              14       0.53476203E+00     0.33734026E-01
              15       0.25200939E-01     0.32305082E-02
              16       0.14497338E-03     0.31981813E-04
              17       0.10472771E-07     0.31801588E-08
              18       0.92846319E-13     0.57731597E-14
================================================================================
Calculating local pseudopotential in open BC on the fine real space grid ...
... done

MG BCs: +ve charge blocks (gridpoints):     20063 (   15712693).
MG BCs: -ve charge blocks (gridpoints):      7935 (    1062174).
MG BCs:     Elided blocks (gridpoints):    177057 (  174001838).
MG BCs: Computational effort saved:  99.9853%.
MG BCs: Charge after coarse-graining:           -9.0002221.
MG DL_MG: Calling solver with defect correction order = 8
MG DL_MG: Solver finished
MG Hartree energy from (\int phi*rho dr):              1471.887610
MG Hartree energy from (\int eps (grad phi)^2 dr):     1471.263827
MG Discrepancy due to finite box and discretization:     -0.623783 (  -0.04238%)
MG Correction to account for finite box:                  0.463346
MG Remaining discrepancy, due to discretization:         -0.160438 (  -0.01090%)
Up spin density kernel initialisation ... 
======= Optimisation of K by Palser-Manolopoulos canonical purification ======== 
         Iteration  |  Band structure energy |    c_n   
               1       -2587.06757743110211    0.5281959
               2       -2763.59731200480292    0.5180080
               3       -2945.98877995108251    0.5154465
               4       -3100.27965169941308    0.5276616
               5       -3197.12426593701821    0.5618414
               6       -3238.56757057911909    0.6072849
               7       -3252.65159512614628    0.6219848
               8       -3258.62325093591789    0.6221520
               9       -3261.51053203206857    0.6380489
              10       -3262.71286533455623    0.6614851
              11       -3263.19256371147776    0.6714199
              12       -3263.41078500909953    0.6591185
              13       -3263.52553951677510    0.6271232
              14       -3263.58850210355058    0.5837886
              15       -3263.61923198196382    0.5357665
              16       -3263.63076707395885    0.4984672
              17       -3263.63403357538755    0.4787077
              18       -3263.63552139147578    0.4642770
              19       -3263.63638938450458    0.4706669
              20       -3263.63674477537961    0.4920692
              21       -3263.63683152532667    0.4995762
              22       -3263.63683676281153    0.4999994
              23       -3263.63683678090501    0.4999994
Termination criterion satisfied: band energy change below threshold.
Final occupancy bounds: [    0.00000000000002:    1.00000000000000]
Closest occupancy to 0.5:     1.00000000000000
================================================================================
... done

Writing density kernel to file "complex_3521.vacuum_dkn" ... done

>>> Optimising kernel for current NGWFs:
   Initial electron number for spin 1:    7234.00000000
     Final electron number for spin 1:    7234.00000000

=================== Penalty functional idempotency correction ==================
 RMS occupancy error at iteration   1:  0.000000 (step -0.5000 Ne1=   7234.0000)
            Final RMS occupancy error   :  0.000000 (Ne1=   7234.0000)
               Final occupancy bounds   : [ -0.0000,  1.0000]
================================================================================

................................................................................
<<<<<<<<<<<<<< LNV (Original version) density kernel optimisation >>>>>>>>>>>>>>
~~~~~~~~~~~~~~~~~~~~~~~~~~~~~~~~~~~~~~~~~~~~~~~~~~~~~~~~~~~~~~~~~~~~~~~~~~~~~~~~
   iter  |      energy (Eh)       | rms gradient |  commutator  |   dE (Eh)
MG BCs: +ve charge blocks (gridpoints):     30434 (   16925529).
MG BCs: -ve charge blocks (gridpoints):      8305 (    1094372).
MG BCs:     Elided blocks (gridpoints):    166677 (  172756804).
MG BCs: Computational effort saved:  99.9797%.
MG BCs: Charge after coarse-graining:           -9.0009297.
MG DL_MG: Calling solver with defect correction order = 8
MG DL_MG: Solver finished
MG Hartree energy from (\int phi*rho dr):              1427.113139
MG Hartree energy from (\int eps (grad phi)^2 dr):     1426.434404
MG Discrepancy due to finite box and discretization:     -0.678735 (  -0.04756%)
MG Correction to account for finite box:                  0.473237
MG Remaining discrepancy, due to discretization:         -0.205498 (  -0.01440%)
      ideal mu1:      -0.701264277717
             Q0:  -11568.561075412086
             G0:    -143.133645946495
   RMS gradient:       0.001828216298
MG BCs: +ve charge blocks (gridpoints):     30446 (   17007570).
MG BCs: -ve charge blocks (gridpoints):      8201 (    1074780).
MG BCs:     Elided blocks (gridpoints):    166663 (  172694355).
MG BCs: Computational effort saved:  99.9797%.
MG BCs: Charge after coarse-graining:           -9.0009503.
MG DL_MG: Calling solver with defect correction order = 8
MG DL_MG: Solver finished
MG Hartree energy from (\int phi*rho dr):              1452.843835
MG Hartree energy from (\int eps (grad phi)^2 dr):     1452.182312
MG Discrepancy due to finite box and discretization:     -0.661524 (  -0.04553%)
MG Correction to account for finite box:                  0.472573
MG Remaining discrepancy, due to discretization:         -0.188951 (  -0.01301%)
     Trial step:       0.500000000000
             Q1:  -11579.919170333422
 Quadratic coef:      60.208728051912
 Linear coef   :     -71.566822973248
           Qmin:  -11589.827967755618
Quadratic minimum step length (  0.297161330628) accepted
    Initial Ne1:    7234.00000000
      Final Ne1:    7234.00000000

=================== Penalty functional idempotency correction ==================
 RMS occupancy error at iteration   1:  0.003340 (step -0.4887 Ne1=   7234.0000)
 RMS occupancy error at iteration   2:  0.000026 (step -0.5001 Ne1=   7234.0000)
            Final RMS occupancy error   :  0.000000 (Ne1=   7234.0000)
               Final occupancy bounds   : [  0.0000,  1.0000]
================================================================================

    1        -1.156856107541E+04     1.8282E-03     1.6538E-03
MG BCs: +ve charge blocks (gridpoints):     30437 (   16975863).
MG BCs: -ve charge blocks (gridpoints):      8240 (    1083075).
MG BCs:     Elided blocks (gridpoints):    166674 (  172717767).
MG BCs: Computational effort saved:  99.9797%.
MG BCs: Charge after coarse-graining:           -9.0009418.
MG DL_MG: Calling solver with defect correction order = 8
MG DL_MG: Solver finished
MG Hartree energy from (\int phi*rho dr):              1434.583510
MG Hartree energy from (\int eps (grad phi)^2 dr):     1433.915966
MG Discrepancy due to finite box and discretization:     -0.667544 (  -0.04653%)
MG Correction to account for finite box:                  0.472759
MG Remaining discrepancy, due to discretization:         -0.194785 (  -0.01358%)
      ideal mu1:      -0.746636288697
             Q0:  -11590.215473817429
             G0:     -12.054259246678
   RMS gradient:       0.000527048266
MG BCs: +ve charge blocks (gridpoints):     30437 (   16992946).
MG BCs: -ve charge blocks (gridpoints):      8216 (    1077936).
MG BCs:     Elided blocks (gridpoints):    166673 (  172705823).
MG BCs: Computational effort saved:  99.9797%.
MG BCs: Charge after coarse-graining:           -9.0009453.
MG DL_MG: Calling solver with defect correction order = 8
MG DL_MG: Solver finished
MG Hartree energy from (\int phi*rho dr):              1439.854737
MG Hartree energy from (\int eps (grad phi)^2 dr):     1439.191343
MG Discrepancy due to finite box and discretization:     -0.663394 (  -0.04607%)
MG Correction to account for finite box:                  0.471905
MG Remaining discrepancy, due to discretization:         -0.191489 (  -0.01330%)
     Trial step:       0.385461626253
             Q1:  -11593.033301928663
 Quadratic coef:       1.828626261269
 Linear coef   :      -4.646454372504
           Qmin:  -11593.167079989373
Quadratic minimum step length (  0.489720041944) accepted
    Initial Ne1:    7233.99988697
      Final Ne1:    7234.00000000

=================== Penalty functional idempotency correction ==================
 RMS occupancy error at iteration   1:  0.001781 (step -0.4929 Ne1=   7234.0000)
 RMS occupancy error at iteration   2:  0.000013 (step -0.5003 Ne1=   7234.0000)
            Final RMS occupancy error   :  0.000000 (Ne1=   7234.0000)
               Final occupancy bounds   : [  0.0000,  1.0000]
================================================================================

    2        -1.159021547382E+04     5.2705E-04     4.7678E-04    -2.1654E+01
MG BCs: +ve charge blocks (gridpoints):     30440 (   16997636).
MG BCs: -ve charge blocks (gridpoints):      8210 (    1076498).
MG BCs:     Elided blocks (gridpoints):    166670 (  172702571).
MG BCs: Computational effort saved:  99.9797%.
MG BCs: Charge after coarse-graining:           -9.0009463.
MG DL_MG: Calling solver with defect correction order = 8
MG DL_MG: Solver finished
MG Hartree energy from (\int phi*rho dr):              1441.329224
MG Hartree energy from (\int eps (grad phi)^2 dr):     1440.666863
MG Discrepancy due to finite box and discretization:     -0.662362 (  -0.04595%)
MG Correction to account for finite box:                  0.471687
MG Remaining discrepancy, due to discretization:         -0.190675 (  -0.01323%)
      ideal mu1:      -0.771802639644
             Q0:  -11593.203320592060
             G0:      -1.930179805721
   RMS gradient:       0.000210952164
MG BCs: +ve charge blocks (gridpoints):     30434 (   16997116).
MG BCs: -ve charge blocks (gridpoints):      8210 (    1077533).
MG BCs:     Elided blocks (gridpoints):    166675 (  172702056).
MG BCs: Computational effort saved:  99.9797%.
MG BCs: Charge after coarse-graining:           -9.0009458.
MG DL_MG: Calling solver with defect correction order = 8
MG DL_MG: Solver finished
MG Hartree energy from (\int phi*rho dr):              1439.064275
MG Hartree energy from (\int eps (grad phi)^2 dr):     1438.402578
MG Discrepancy due to finite box and discretization:     -0.661697 (  -0.04598%)
MG Correction to account for finite box:                  0.471227
MG Remaining discrepancy, due to discretization:         -0.190470 (  -0.01324%)
     Trial step:       0.434474721677
             Q1:  -11593.695608841139
 Quadratic coef:       0.346326084798
 Linear coef   :      -0.838614333878
           Qmin:  -11593.710988099543
Quadratic minimum step length (  0.526031311673) accepted
    Initial Ne1:    7233.99987940
      Final Ne1:    7234.00000000

=================== Penalty functional idempotency correction ==================
 RMS occupancy error at iteration   1:  0.000641 (step -0.4965 Ne1=   7234.0000)
 RMS occupancy error at iteration   2:  0.000004 (step -0.5000 Ne1=   7234.0000)
            Final RMS occupancy error   :  0.000000 (Ne1=   7234.0000)
               Final occupancy bounds   : [  0.0000,  1.0000]
================================================================================

    3        -1.159320332059E+04     2.1095E-04     1.9083E-04    -2.9878E+00
MG BCs: +ve charge blocks (gridpoints):     30434 (   16997055).
MG BCs: -ve charge blocks (gridpoints):      8210 (    1077759).
MG BCs:     Elided blocks (gridpoints):    166675 (  172701891).
MG BCs: Computational effort saved:  99.9797%.
MG BCs: Charge after coarse-graining:           -9.0009456.
MG DL_MG: Calling solver with defect correction order = 8
MG DL_MG: Solver finished
MG Hartree energy from (\int phi*rho dr):              1438.596867
MG Hartree energy from (\int eps (grad phi)^2 dr):     1437.935298
MG Discrepancy due to finite box and discretization:     -0.661569 (  -0.04599%)
MG Correction to account for finite box:                  0.471131
MG Remaining discrepancy, due to discretization:         -0.190437 (  -0.01324%)
      ideal mu1:      -0.772643924858
             Q0:  -11593.715670527192
             G0:      -0.508369020951
   RMS gradient:       0.000108406079
MG BCs: +ve charge blocks (gridpoints):     30435 (   16997863).
MG BCs: -ve charge blocks (gridpoints):      8203 (    1077614).
MG BCs:     Elided blocks (gridpoints):    166674 (  172701228).
MG BCs: Computational effort saved:  99.9797%.
MG BCs: Charge after coarse-graining:           -9.0009459.
MG DL_MG: Calling solver with defect correction order = 8
MG DL_MG: Solver finished
MG Hartree energy from (\int phi*rho dr):              1439.800826
MG Hartree energy from (\int eps (grad phi)^2 dr):     1439.139321
MG Discrepancy due to finite box and discretization:     -0.661505 (  -0.04594%)
MG Correction to account for finite box:                  0.470949
MG Remaining discrepancy, due to discretization:         -0.190556 (  -0.01323%)
     Trial step:       0.478066216891
             Q1:  -11593.841215151246
 Quadratic coef:       0.117489430577
 Linear coef   :      -0.243034054631
           Qmin:  -11593.841353219286
Quadratic minimum step length (  0.494454567115) accepted
    Initial Ne1:    7233.99997035
      Final Ne1:    7234.00000000

=================== Penalty functional idempotency correction ==================
 RMS occupancy error at iteration   1:  0.000294 (step -0.4943 Ne1=   7234.0000)
 RMS occupancy error at iteration   2:  0.000004 (step -0.5000 Ne1=   7234.0000)
            Final RMS occupancy error   :  0.000000 (Ne1=   7234.0000)
               Final occupancy bounds   : [  0.0000,  1.0000]
================================================================================

    4        -1.159371567053E+04     1.0841E-04     9.8066E-05    -5.1235E-01
MG BCs: +ve charge blocks (gridpoints):     30435 (   16997903).
MG BCs: -ve charge blocks (gridpoints):      8203 (    1077598).
MG BCs:     Elided blocks (gridpoints):    166674 (  172701204).
MG BCs: Computational effort saved:  99.9797%.
MG BCs: Charge after coarse-graining:           -9.0009459.
MG DL_MG: Calling solver with defect correction order = 8
MG DL_MG: Solver finished
MG Hartree energy from (\int phi*rho dr):              1439.842698
MG Hartree energy from (\int eps (grad phi)^2 dr):     1439.181196
MG Discrepancy due to finite box and discretization:     -0.661503 (  -0.04594%)
MG Correction to account for finite box:                  0.470943
MG Remaining discrepancy, due to discretization:         -0.190560 (  -0.01323%)
      ideal mu1:      -0.773339636621
             Q0:  -11593.841968176304
             G0:      -0.191344386144
   RMS gradient:       0.000066685552
MG BCs: +ve charge blocks (gridpoints):     30436 (   16998135).
MG BCs: -ve charge blocks (gridpoints):      8204 (    1077438).
MG BCs:     Elided blocks (gridpoints):    166672 (  172701132).
MG BCs: Computational effort saved:  99.9797%.
MG BCs: Charge after coarse-graining:           -9.0009458.
MG DL_MG: Calling solver with defect correction order = 8
MG DL_MG: Solver finished
MG Hartree energy from (\int phi*rho dr):              1440.287945
MG Hartree energy from (\int eps (grad phi)^2 dr):     1439.626362
MG Discrepancy due to finite box and discretization:     -0.661583 (  -0.04593%)
MG Correction to account for finite box:                  0.470862
MG Remaining discrepancy, due to discretization:         -0.190720 (  -0.01324%)
     Trial step:       0.486191345383
             Q1:  -11593.902860026690
 Quadratic coef:       0.032138134145
 Linear coef   :      -0.093029984531
           Qmin:  -11593.909291453245
Quadratic minimum step length (  0.703686983433) accepted
    Initial Ne1:    7233.99998383
      Final Ne1:    7234.00000000

=================== Penalty functional idempotency correction ==================
 RMS occupancy error at iteration   1:  0.000497 (step -0.4693 Ne1=   7234.0000)
 RMS occupancy error at iteration   2:  0.000013 (step -0.5000 Ne1=   7234.0000)
            Final RMS occupancy error   :  0.000000 (Ne1=   7234.0000)
               Final occupancy bounds   : [  0.0000,  1.0000]
================================================================================

    5        -1.159384196818E+04     6.6686E-05     6.0325E-05    -1.2630E-01
MG BCs: +ve charge blocks (gridpoints):     30435 (   16998153).
MG BCs: -ve charge blocks (gridpoints):      8203 (    1077416).
MG BCs:     Elided blocks (gridpoints):    166673 (  172701136).
MG BCs: Computational effort saved:  99.9797%.
MG BCs: Charge after coarse-graining:           -9.0009459.
MG DL_MG: Calling solver with defect correction order = 8
MG DL_MG: Solver finished
MG Hartree energy from (\int phi*rho dr):              1440.485641
MG Hartree energy from (\int eps (grad phi)^2 dr):     1439.824023
MG Discrepancy due to finite box and discretization:     -0.661617 (  -0.04593%)
MG Correction to account for finite box:                  0.470825
MG Remaining discrepancy, due to discretization:         -0.190792 (  -0.01324%)
      ideal mu1:      -0.773444768133
             Q0:  -11593.908667169628
             G0:      -0.180614480622
   RMS gradient:       0.000065321408
MG BCs: +ve charge blocks (gridpoints):     30440 (   16997481).
MG BCs: -ve charge blocks (gridpoints):      8204 (    1077785).
MG BCs:     Elided blocks (gridpoints):    166669 (  172701439).
MG BCs: Computational effort saved:  99.9797%.
MG BCs: Charge after coarse-graining:           -9.0009456.
MG DL_MG: Calling solver with defect correction order = 8
MG DL_MG: Solver finished
MG Hartree energy from (\int phi*rho dr):              1439.235252
MG Hartree energy from (\int eps (grad phi)^2 dr):     1438.573771
MG Discrepancy due to finite box and discretization:     -0.661481 (  -0.04596%)
MG Correction to account for finite box:                  0.470701
MG Remaining discrepancy, due to discretization:         -0.190780 (  -0.01326%)
     Trial step:       0.584915824033
             Q1:  -11593.989182643942
 Quadratic coef:       0.025128793452
 Linear coef   :      -0.105644267765
           Qmin:  -11594.019702259047
Quadratic minimum step length (  1.229525883390) accepted
    Initial Ne1:    7233.99995704
      Final Ne1:    7234.00000000

=================== Penalty functional idempotency correction ==================
 RMS occupancy error at iteration   1:  0.004227 (step -0.3062 Ne1=   7234.0000)
 RMS occupancy error at iteration   2:  0.000331 (step -0.4861 Ne1=   7234.0000)
 RMS occupancy error at iteration   3:  0.000007 (step -0.5001 Ne1=   7234.0000)
            Final RMS occupancy error   :  0.000000 (Ne1=   7234.0000)
               Final occupancy bounds   : [  0.0000,  1.0000]
================================================================================

    6        -1.159390866717E+04     6.5321E-05     5.9091E-05    -6.6699E-02
MG BCs: +ve charge blocks (gridpoints):     30441 (   16996782).
MG BCs: -ve charge blocks (gridpoints):      8210 (    1078179).
MG BCs:     Elided blocks (gridpoints):    166668 (  172701744).
MG BCs: Computational effort saved:  99.9797%.
MG BCs: Charge after coarse-graining:           -9.0009453.
MG DL_MG: Calling solver with defect correction order = 8
MG DL_MG: Solver finished
MG Hartree energy from (\int phi*rho dr):              1437.868726
MG Hartree energy from (\int eps (grad phi)^2 dr):     1437.207354
MG Discrepancy due to finite box and discretization:     -0.661372 (  -0.04600%)
MG Correction to account for finite box:                  0.470603
MG Remaining discrepancy, due to discretization:         -0.190768 (  -0.01327%)
      ideal mu1:      -0.773862619378
             Q0:  -11593.998075425508
             G0:      -0.362039612453
   RMS gradient:       0.000091946405
MG BCs: +ve charge blocks (gridpoints):     30435 (   16998952).
MG BCs: -ve charge blocks (gridpoints):      8201 (    1077032).
MG BCs:     Elided blocks (gridpoints):    166673 (  172700721).
MG BCs: Computational effort saved:  99.9797%.
MG BCs: Charge after coarse-graining:           -9.0009464.
MG DL_MG: Calling solver with defect correction order = 8
MG DL_MG: Solver finished
MG Hartree energy from (\int phi*rho dr):              1441.169402
MG Hartree energy from (\int eps (grad phi)^2 dr):     1440.508379
MG Discrepancy due to finite box and discretization:     -0.661023 (  -0.04587%)
MG Correction to account for finite box:                  0.470491
MG Remaining discrepancy, due to discretization:         -0.190531 (  -0.01322%)
     Trial step:       0.848038410246
             Q1:  -11594.094856052077
 Quadratic coef:       0.210242870822
 Linear coef   :      -0.307023497391
           Qmin:  -11594.110164158388
Quadratic minimum step length (  0.619207009534) accepted
    Initial Ne1:    7233.99996965
      Final Ne1:    7234.00000000

=================== Penalty functional idempotency correction ==================
 RMS occupancy error at iteration   1:  0.000195 (step -0.4877 Ne1=   7234.0000)
 RMS occupancy error at iteration   2:  0.000001 (step -0.5000 Ne1=   7234.0000)
            Final RMS occupancy error   :  0.000000 (Ne1=   7234.0000)
               Final occupancy bounds   : [  0.0000,  1.0000]
================================================================================

    7        -1.159399807543E+04     9.1946E-05     8.3176E-05    -8.9408E-02
MG BCs: +ve charge blocks (gridpoints):     30439 (   16998388).
MG BCs: -ve charge blocks (gridpoints):      8203 (    1077315).
MG BCs:     Elided blocks (gridpoints):    166670 (  172701002).
MG BCs: Computational effort saved:  99.9797%.
MG BCs: Charge after coarse-graining:           -9.0009461.
MG DL_MG: Calling solver with defect correction order = 8
MG DL_MG: Solver finished
MG Hartree energy from (\int phi*rho dr):              1440.274223
MG Hartree energy from (\int eps (grad phi)^2 dr):     1439.613108
MG Discrepancy due to finite box and discretization:     -0.661115 (  -0.04590%)
MG Correction to account for finite box:                  0.470522
MG Remaining discrepancy, due to discretization:         -0.190593 (  -0.01323%)
      ideal mu1:      -0.775209644198
             Q0:  -11594.110455453745
             G0:      -0.267108494102
   RMS gradient:       0.000078886810
MG BCs: +ve charge blocks (gridpoints):     30438 (   16998534).
MG BCs: -ve charge blocks (gridpoints):      8202 (    1077279).
MG BCs:     Elided blocks (gridpoints):    166671 (  172700892).
MG BCs: Computational effort saved:  99.9797%.
MG BCs: Charge after coarse-graining:           -9.0009461.
MG DL_MG: Calling solver with defect correction order = 8
MG DL_MG: Solver finished
MG Hartree energy from (\int phi*rho dr):              1440.236502
MG Hartree energy from (\int eps (grad phi)^2 dr):     1439.575607
MG Discrepancy due to finite box and discretization:     -0.660895 (  -0.04589%)
MG Correction to account for finite box:                  0.470468
MG Remaining discrepancy, due to discretization:         -0.190427 (  -0.01322%)
     Trial step:       0.724645656841
             Q1:  -11594.222444334649
 Quadratic coef:       0.081570129252
 Linear coef   :      -0.193559010156
           Qmin:  -11594.225280239350
Quadratic minimum step length (  0.859761393895) accepted
    Initial Ne1:    7233.99996867
      Final Ne1:    7234.00000000

=================== Penalty functional idempotency correction ==================
 RMS occupancy error at iteration   1:  0.001570 (step -0.4170 Ne1=   7234.0000)
 RMS occupancy error at iteration   2:  0.000055 (step -0.4985 Ne1=   7234.0000)
 RMS occupancy error at iteration   3:  0.000000 (step -0.5000 Ne1=   7234.0000)
            Final RMS occupancy error   :  0.000000 (Ne1=   7234.0000)
               Final occupancy bounds   : [  0.0000,  1.0000]
================================================================================

    8        -1.159411045545E+04     7.8887E-05     7.1362E-05    -1.1238E-01
MG BCs: +ve charge blocks (gridpoints):     30438 (   16998558).
MG BCs: -ve charge blocks (gridpoints):      8203 (    1077248).
MG BCs:     Elided blocks (gridpoints):    166671 (  172700899).
MG BCs: Computational effort saved:  99.9797%.
MG BCs: Charge after coarse-graining:           -9.0009461.
MG DL_MG: Calling solver with defect correction order = 8
MG DL_MG: Solver finished
MG Hartree energy from (\int phi*rho dr):              1440.233891
MG Hartree energy from (\int eps (grad phi)^2 dr):     1439.573035
MG Discrepancy due to finite box and discretization:     -0.660857 (  -0.04589%)
MG Correction to account for finite box:                  0.470459
MG Remaining discrepancy, due to discretization:         -0.190398 (  -0.01322%)
      ideal mu1:      -0.774924586983
             Q0:  -11594.224093080265
             G0:      -0.288140840387
   RMS gradient:       0.000082043412
MG BCs: +ve charge blocks (gridpoints):     30436 (   16997481).
MG BCs: -ve charge blocks (gridpoints):      8209 (    1077825).
MG BCs:     Elided blocks (gridpoints):    166673 (  172701399).
MG BCs: Computational effort saved:  99.9797%.
MG BCs: Charge after coarse-graining:           -9.0009458.
MG DL_MG: Calling solver with defect correction order = 8
MG DL_MG: Solver finished
MG Hartree energy from (\int phi*rho dr):              1438.626622
MG Hartree energy from (\int eps (grad phi)^2 dr):     1437.965783
MG Discrepancy due to finite box and discretization:     -0.660839 (  -0.04594%)
MG Correction to account for finite box:                  0.470565
MG Remaining discrepancy, due to discretization:         -0.190274 (  -0.01323%)
     Trial step:       0.789317654690
             Q1:  -11594.309250292252
 Quadratic coef:       0.142277440369
 Linear coef   :      -0.227434652355
           Qmin:  -11594.314983317252
Quadratic minimum step length (  0.630873685689) accepted
    Initial Ne1:    7233.99997513
      Final Ne1:    7234.00000000

=================== Penalty functional idempotency correction ==================
 RMS occupancy error at iteration   1:  0.003455 (step -0.3539 Ne1=   7234.0000)
 RMS occupancy error at iteration   2:  0.000146 (step -0.4973 Ne1=   7234.0000)
 RMS occupancy error at iteration   3:  0.000002 (step -0.5000 Ne1=   7234.0000)
            Final RMS occupancy error   :  0.000000 (Ne1=   7234.0000)
               Final occupancy bounds   : [  0.0000,  1.0000]
================================================================================

    9        -1.159422409308E+04     8.2043E-05     7.4218E-05    -1.1364E-01
MG BCs: +ve charge blocks (gridpoints):     30436 (   16997632).
MG BCs: -ve charge blocks (gridpoints):      8209 (    1077720).
MG BCs:     Elided blocks (gridpoints):    166673 (  172701353).
MG BCs: Computational effort saved:  99.9797%.
MG BCs: Charge after coarse-graining:           -9.0009459.
MG DL_MG: Calling solver with defect correction order = 8
MG DL_MG: Solver finished
MG Hartree energy from (\int phi*rho dr):              1438.942712
MG Hartree energy from (\int eps (grad phi)^2 dr):     1438.281897
MG Discrepancy due to finite box and discretization:     -0.660815 (  -0.04592%)
MG Correction to account for finite box:                  0.470525
MG Remaining discrepancy, due to discretization:         -0.190291 (  -0.01322%)
      ideal mu1:      -0.773917904889
   10        -1.159432434746E+04     6.8154E-05     6.1653E-05    -1.0025E-01
Finished density kernel iterations (  10)

Writing density kernel to file "complex_3521.vacuum_dkn" ... done


>>> Density kernel optimised for the current NGWF basis:
     ~~~~~~~~~~~~~~~~~~~~~~~~~~~~~~~~~~~~~~~~~~~~~~~~~~~~~~~~~~~
     Total energy                =  -1.15943243474554E+04  Eh
     Estimated bandgap           =  -3.9612E-01  Eh
     RMS occupancy error         =   3.9724E-10
     [H,K] commutator            =   6.1653E-05
     Occupancy bounds            = [  0.000:  1.000]
     ~~~~~~~~~~~~~~~~~~~~~~~~~~~~~~~~~~~~~~~~~~~~~~~~~~~~~~~~~~~




################################################################################
########################### NGWF CG iteration  001 #############################
################################################################################
****** Reciprocal space K.E. preconditioning with k_zero =  3.5000 a0^-1 *******

>>> Checking for convergence of NGWFs:   NOT CONVERGED
  ========================================================================
         NGWF RMS gradient =  1.6351E-03 >  2.0000E-06  | above tolerance
  ========================================================================

>>> Improving NGWFs using line search:
============ Calculation of NGWF S^-1 using Hotelling algorithm ================ 
         Iteration  |  Frobenius norm and Maximum abs value    (of I-S*S_n^-1)   
               1       0.20564632E+00     0.56320180E-02
               2       0.99634892E-03     0.45948549E-04
               3       0.40736919E-07     0.34810284E-08
               4       0.14108670E-12     0.71054274E-14
================================================================================
MG BCs: +ve charge blocks (gridpoints):     30021 (   16941671).
MG BCs: -ve charge blocks (gridpoints):      8210 (    1077505).
MG BCs:     Elided blocks (gridpoints):    167093 (  172757529).
MG BCs: Computational effort saved:  99.9800%.
MG BCs: Charge after coarse-graining:           -9.0009519.
MG DL_MG: Calling solver with defect correction order = 8
MG DL_MG: Solver finished
MG Hartree energy from (\int phi*rho dr):              1406.372501
MG Hartree energy from (\int eps (grad phi)^2 dr):     1405.712641
MG Discrepancy due to finite box and discretization:     -0.659860 (  -0.04692%)
MG Correction to account for finite box:                  0.470457
MG Remaining discrepancy, due to discretization:         -0.189403 (  -0.01347%)
============ Calculation of NGWF S^-1 using Hotelling algorithm ================ 
         Iteration  |  Frobenius norm and Maximum abs value    (of I-S*S_n^-1)   
               1       0.18446159E+01     0.42410108E-01
               2       0.71143874E-01     0.25197487E-02
               3       0.14780806E-03     0.10698525E-04
               4       0.12763782E-08     0.20461033E-09
               5       0.11532013E-12     0.57731597E-14
================================================================================
------------------------------- NGWF line search -------------------------------
RMS gradient                =       0.00163508113579
Trial step length           =               0.122474
Gradient along search dir.  =       -286.26774570152
Functional at step 0        =  -11594.32434745540377
Functional at step 1        =  -11626.63068866729736
Functional predicted        =  -11705.90473444369673
Selected quadratic step     =               0.779553
--------------------------- NGWF line search finished --------------------------
                                               
Writing NGWFs to file "complex_3521.vacuum_tightbox_ngwfs"....  done

>>> Optimising kernel for current NGWFs:
   Initial electron number for spin 1:    7269.00818074
     Final electron number for spin 1:    7234.00000000

=================== Penalty functional idempotency correction ==================
 RMS occupancy error at iteration   1:  0.004369 (step -0.4852 Ne1=   7234.0000)
 RMS occupancy error at iteration   2:  0.000076 (step -0.5003 Ne1=   7234.0000)
            Final RMS occupancy error   :  0.000000 (Ne1=   7234.0000)
               Final occupancy bounds   : [  0.0000,  1.0000]
================================================================================

................................................................................
<<<<<<<<<<<<<< LNV (Original version) density kernel optimisation >>>>>>>>>>>>>>
~~~~~~~~~~~~~~~~~~~~~~~~~~~~~~~~~~~~~~~~~~~~~~~~~~~~~~~~~~~~~~~~~~~~~~~~~~~~~~~~
   iter  |      energy (Eh)       | rms gradient |  commutator  |   dE (Eh)
MG BCs: +ve charge blocks (gridpoints):     24264 (   16605718).
MG BCs: -ve charge blocks (gridpoints):      8368 (    1061332).
MG BCs:     Elided blocks (gridpoints):    172856 (  173109655).
MG BCs: Computational effort saved:  99.9829%.
MG BCs: Charge after coarse-graining:           -9.0006765.
MG DL_MG: Calling solver with defect correction order = 8
MG DL_MG: Solver finished
MG Hartree energy from (\int phi*rho dr):              1253.491874
MG Hartree energy from (\int eps (grad phi)^2 dr):     1252.832028
MG Discrepancy due to finite box and discretization:     -0.659846 (  -0.05264%)
MG Correction to account for finite box:                  0.470163
MG Remaining discrepancy, due to discretization:         -0.189683 (  -0.01513%)
      ideal mu1:      -0.714676718606
             Q0:  -11705.130361351185
             G0:      -9.854374483663
   RMS gradient:       0.000479701681
MG BCs: +ve charge blocks (gridpoints):     24323 (   16618556).
MG BCs: -ve charge blocks (gridpoints):      8356 (    1058245).
MG BCs:     Elided blocks (gridpoints):    172797 (  173099904).
MG BCs: Computational effort saved:  99.9829%.
MG BCs: Charge after coarse-graining:           -9.0006726.
MG DL_MG: Calling solver with defect correction order = 8
MG DL_MG: Solver finished
MG Hartree energy from (\int phi*rho dr):              1268.412168
MG Hartree energy from (\int eps (grad phi)^2 dr):     1267.747017
MG Discrepancy due to finite box and discretization:     -0.665151 (  -0.05244%)
MG Correction to account for finite box:                  0.469389
MG Remaining discrepancy, due to discretization:         -0.195762 (  -0.01543%)
     Trial step:       0.705662623351
             Q1:  -11704.679737240309
 Quadratic coef:       7.404487860496
 Linear coef   :      -6.953863749621
           Qmin:  -11706.763027308620
Quadratic minimum step length (  0.331358618478) accepted
    Initial Ne1:    7233.99949919
      Final Ne1:    7234.00000000

=================== Penalty functional idempotency correction ==================
 RMS occupancy error at iteration   1:  0.000357 (step -0.4986 Ne1=   7234.0000)
 RMS occupancy error at iteration   2:  0.000000 (step -0.5000 Ne1=   7234.0000)
            Final RMS occupancy error   :  0.000000 (Ne1=   7234.0000)
               Final occupancy bounds   : [  0.0000,  1.0000]
================================================================================

    1        -1.170513036135E+04     4.7970E-04     4.3395E-04
MG BCs: +ve charge blocks (gridpoints):     24297 (   16611797).
MG BCs: -ve charge blocks (gridpoints):      8361 (    1059944).
MG BCs:     Elided blocks (gridpoints):    172823 (  173104964).
MG BCs: Computational effort saved:  99.9829%.
MG BCs: Charge after coarse-graining:           -9.0006746.
MG DL_MG: Calling solver with defect correction order = 8
MG DL_MG: Solver finished
MG Hartree energy from (\int phi*rho dr):              1259.596204
MG Hartree energy from (\int eps (grad phi)^2 dr):     1258.933964
MG Discrepancy due to finite box and discretization:     -0.662240 (  -0.05258%)
MG Correction to account for finite box:                  0.469776
MG Remaining discrepancy, due to discretization:         -0.192463 (  -0.01528%)
      ideal mu1:      -0.720847627082
             Q0:  -11706.738867921638
             G0:      -1.045134398905
   RMS gradient:       0.000156827049
MG BCs: +ve charge blocks (gridpoints):     24300 (   16611005).
MG BCs: -ve charge blocks (gridpoints):      8360 (    1060887).
MG BCs:     Elided blocks (gridpoints):    172820 (  173104813).
MG BCs: Computational effort saved:  99.9829%.
MG BCs: Charge after coarse-graining:           -9.0006747.
MG DL_MG: Calling solver with defect correction order = 8
MG DL_MG: Solver finished
MG Hartree energy from (\int phi*rho dr):              1260.517281
MG Hartree energy from (\int eps (grad phi)^2 dr):     1259.854664
MG Discrepancy due to finite box and discretization:     -0.662616 (  -0.05257%)
MG Correction to account for finite box:                  0.469721
MG Remaining discrepancy, due to discretization:         -0.192895 (  -0.01530%)
     Trial step:       0.483557020407
             Q1:  -11706.962406532140
 Quadratic coef:       0.281843465356
 Linear coef   :      -0.505382075859
           Qmin:  -11706.965421908155
Quadratic minimum step length (  0.433540388209) accepted
    Initial Ne1:    7233.99992996
      Final Ne1:    7234.00000000

=================== Penalty functional idempotency correction ==================
 RMS occupancy error at iteration   1:  0.000165 (step -0.4988 Ne1=   7234.0000)
 RMS occupancy error at iteration   2:  0.000000 (step -0.5000 Ne1=   7234.0000)
            Final RMS occupancy error   :  0.000000 (Ne1=   7234.0000)
               Final occupancy bounds   : [  0.0000,  1.0000]
================================================================================

    2        -1.170673886792E+04     1.5683E-04     1.4187E-04    -1.6085E+00
MG BCs: +ve charge blocks (gridpoints):     24300 (   16611078).
MG BCs: -ve charge blocks (gridpoints):      8361 (    1060786).
MG BCs:     Elided blocks (gridpoints):    172820 (  173104841).
MG BCs: Computational effort saved:  99.9829%.
MG BCs: Charge after coarse-graining:           -9.0006747.
MG DL_MG: Calling solver with defect correction order = 8
MG DL_MG: Solver finished
MG Hartree energy from (\int phi*rho dr):              1260.421942
MG Hartree energy from (\int eps (grad phi)^2 dr):     1259.759365
MG Discrepancy due to finite box and discretization:     -0.662576 (  -0.05257%)
MG Correction to account for finite box:                  0.469727
MG Remaining discrepancy, due to discretization:         -0.192849 (  -0.01530%)
      ideal mu1:      -0.721514208705
             Q0:  -11706.965925193741
             G0:      -0.187215003726
   RMS gradient:       0.000066045980
MG BCs: +ve charge blocks (gridpoints):     24295 (   16610380).
MG BCs: -ve charge blocks (gridpoints):      8360 (    1061178).
MG BCs:     Elided blocks (gridpoints):    172825 (  173105147).
MG BCs: Computational effort saved:  99.9829%.
MG BCs: Charge after coarse-graining:           -9.0006747.
MG DL_MG: Calling solver with defect correction order = 8
MG DL_MG: Solver finished
MG Hartree energy from (\int phi*rho dr):              1259.869455
MG Hartree energy from (\int eps (grad phi)^2 dr):     1259.206949
MG Discrepancy due to finite box and discretization:     -0.662506 (  -0.05259%)
MG Correction to account for finite box:                  0.469673
MG Remaining discrepancy, due to discretization:         -0.192832 (  -0.01531%)
     Trial step:       0.457866245042
             Q1:  -11707.026262712432
 Quadratic coef:       0.025381912081
 Linear coef   :      -0.085719430772
           Qmin:  -11707.038297802908
Quadratic minimum step length (  0.773149669923) accepted
    Initial Ne1:    7233.99997782
      Final Ne1:    7234.00000000

=================== Penalty functional idempotency correction ==================
 RMS occupancy error at iteration   1:  0.000248 (step -0.4880 Ne1=   7234.0000)
 RMS occupancy error at iteration   2:  0.000002 (step -0.5000 Ne1=   7234.0000)
            Final RMS occupancy error   :  0.000000 (Ne1=   7234.0000)
               Final occupancy bounds   : [  0.0000,  1.0000]
================================================================================

    3        -1.170696592519E+04     6.6046E-05     5.9746E-05    -2.2706E-01
MG BCs: +ve charge blocks (gridpoints):     24296 (   16609973).
MG BCs: -ve charge blocks (gridpoints):      8362 (    1061447).
MG BCs:     Elided blocks (gridpoints):    172824 (  173105285).
MG BCs: Computational effort saved:  99.9829%.
MG BCs: Charge after coarse-graining:           -9.0006747.
MG DL_MG: Calling solver with defect correction order = 8
MG DL_MG: Solver finished
MG Hartree energy from (\int phi*rho dr):              1259.489307
MG Hartree energy from (\int eps (grad phi)^2 dr):     1258.826849
MG Discrepancy due to finite box and discretization:     -0.662458 (  -0.05260%)
MG Correction to account for finite box:                  0.469636
MG Remaining discrepancy, due to discretization:         -0.192822 (  -0.01531%)
      ideal mu1:      -0.720237500463
             Q0:  -11707.038249349920
             G0:      -0.090856597826
   RMS gradient:       0.000046054387
MG BCs: +ve charge blocks (gridpoints):     24295 (   16609927).
MG BCs: -ve charge blocks (gridpoints):      8361 (    1061399).
MG BCs:     Elided blocks (gridpoints):    172825 (  173105379).
MG BCs: Computational effort saved:  99.9829%.
MG BCs: Charge after coarse-graining:           -9.0006747.
MG DL_MG: Calling solver with defect correction order = 8
MG DL_MG: Solver finished
MG Hartree energy from (\int phi*rho dr):              1259.503574
MG Hartree energy from (\int eps (grad phi)^2 dr):     1258.841322
MG Discrepancy due to finite box and discretization:     -0.662252 (  -0.05258%)
MG Correction to account for finite box:                  0.469578
MG Remaining discrepancy, due to discretization:         -0.192674 (  -0.01530%)
     Trial step:       0.594978265336
             Q1:  -11707.072949950700
 Quadratic coef:       0.019357100189
 Linear coef   :      -0.054057700969
           Qmin:  -11707.075990475985
Quadratic minimum step length (  0.830784488278) accepted
    Initial Ne1:    7233.99998755
      Final Ne1:    7234.00000000

=================== Penalty functional idempotency correction ==================
 RMS occupancy error at iteration   1:  0.000548 (step -0.4698 Ne1=   7234.0000)
 RMS occupancy error at iteration   2:  0.000004 (step -0.5000 Ne1=   7234.0000)
            Final RMS occupancy error   :  0.000000 (Ne1=   7234.0000)
               Final occupancy bounds   : [  0.0000,  1.0000]
================================================================================

    4        -1.170703824935E+04     4.6054E-05     4.1662E-05    -7.2324E-02
MG BCs: +ve charge blocks (gridpoints):     24293 (   16609921).
MG BCs: -ve charge blocks (gridpoints):      8362 (    1061354).
MG BCs:     Elided blocks (gridpoints):    172827 (  173105430).
MG BCs: Computational effort saved:  99.9829%.
MG BCs: Charge after coarse-graining:           -9.0006747.
MG DL_MG: Calling solver with defect correction order = 8
MG DL_MG: Solver finished
MG Hartree energy from (\int phi*rho dr):              1259.511848
MG Hartree energy from (\int eps (grad phi)^2 dr):     1258.849678
MG Discrepancy due to finite box and discretization:     -0.662169 (  -0.05257%)
MG Correction to account for finite box:                  0.469554
MG Remaining discrepancy, due to discretization:         -0.192616 (  -0.01529%)
      ideal mu1:      -0.720102928578
             Q0:  -11707.075778171420
             G0:      -0.102866986488
   RMS gradient:       0.000049002214
MG BCs: +ve charge blocks (gridpoints):     24290 (   16611533).
MG BCs: -ve charge blocks (gridpoints):      8359 (    1060798).
MG BCs:     Elided blocks (gridpoints):    172830 (  173104374).
MG BCs: Computational effort saved:  99.9829%.
MG BCs: Charge after coarse-graining:           -9.0006744.
MG DL_MG: Calling solver with defect correction order = 8
MG DL_MG: Solver finished
MG Hartree energy from (\int phi*rho dr):              1260.589916
MG Hartree energy from (\int eps (grad phi)^2 dr):     1259.928027
MG Discrepancy due to finite box and discretization:     -0.661889 (  -0.05251%)
MG Correction to account for finite box:                  0.469382
MG Remaining discrepancy, due to discretization:         -0.192507 (  -0.01527%)
     Trial step:       0.703063804860
             Q1:  -11707.117040581186
 Quadratic coef:       0.031059645149
 Linear coef   :      -0.072322054914
           Qmin:  -11707.117878456227
Quadratic minimum step length (  0.818538313291) accepted
    Initial Ne1:    7233.99998297
      Final Ne1:    7234.00000000

=================== Penalty functional idempotency correction ==================
 RMS occupancy error at iteration   1:  0.001793 (step -0.4126 Ne1=   7234.0000)
 RMS occupancy error at iteration   2:  0.000022 (step -0.4999 Ne1=   7234.0000)
            Final RMS occupancy error   :  0.000000 (Ne1=   7234.0000)
               Final occupancy bounds   : [ -0.0000,  1.0000]
================================================================================

    5        -1.170707577817E+04     4.9002E-05     4.4328E-05    -3.7529E-02
MG BCs: +ve charge blocks (gridpoints):     24290 (   16611821).
MG BCs: -ve charge blocks (gridpoints):      8359 (    1060717).
MG BCs:     Elided blocks (gridpoints):    172830 (  173104167).
MG BCs: Computational effort saved:  99.9829%.
MG BCs: Charge after coarse-graining:           -9.0006743.
MG DL_MG: Calling solver with defect correction order = 8
MG DL_MG: Solver finished
MG Hartree energy from (\int phi*rho dr):              1260.770208
MG Hartree energy from (\int eps (grad phi)^2 dr):     1260.108358
MG Discrepancy due to finite box and discretization:     -0.661849 (  -0.05250%)
MG Correction to account for finite box:                  0.469361
MG Remaining discrepancy, due to discretization:         -0.192489 (  -0.01527%)
      ideal mu1:      -0.720968324309
             Q0:  -11707.118021735456
             G0:      -0.096302557095
   RMS gradient:       0.000046439312
MG BCs: +ve charge blocks (gridpoints):     24293 (   16612059).
MG BCs: -ve charge blocks (gridpoints):      8358 (    1060722).
MG BCs:     Elided blocks (gridpoints):    172827 (  173103924).
MG BCs: Computational effort saved:  99.9829%.
MG BCs: Charge after coarse-graining:           -9.0006742.
MG DL_MG: Calling solver with defect correction order = 8
MG DL_MG: Solver finished
MG Hartree energy from (\int phi*rho dr):              1260.566304
MG Hartree energy from (\int eps (grad phi)^2 dr):     1259.904652
MG Discrepancy due to finite box and discretization:     -0.661652 (  -0.05249%)
MG Correction to account for finite box:                  0.469120
MG Remaining discrepancy, due to discretization:         -0.192532 (  -0.01527%)
     Trial step:       0.758607053069
             Q1:  -11707.159631482209
 Quadratic coef:       0.031446052288
 Linear coef   :      -0.073055799041
           Qmin:  -11707.160452735416
Quadratic minimum step length (  0.881201937731) accepted
    Initial Ne1:    7234.00006357
      Final Ne1:    7234.00000000

=================== Penalty functional idempotency correction ==================
 RMS occupancy error at iteration   1:  0.003554 (step -0.3530 Ne1=   7234.0000)
 RMS occupancy error at iteration   2:  0.000080 (step -0.4996 Ne1=   7234.0000)
 RMS occupancy error at iteration   3:  0.000001 (step -0.5000 Ne1=   7234.0000)
            Final RMS occupancy error   :  0.000000 (Ne1=   7234.0000)
               Final occupancy bounds   : [  0.0000,  1.0000]
================================================================================

    6        -1.170711802174E+04     4.6439E-05     4.2010E-05    -4.2244E-02
MG BCs: +ve charge blocks (gridpoints):     24293 (   16612098).
MG BCs: -ve charge blocks (gridpoints):      8358 (    1060729).
MG BCs:     Elided blocks (gridpoints):    172827 (  173103878).
MG BCs: Computational effort saved:  99.9829%.
MG BCs: Charge after coarse-graining:           -9.0006742.
MG DL_MG: Calling solver with defect correction order = 8
MG DL_MG: Solver finished
MG Hartree energy from (\int phi*rho dr):              1260.534801
MG Hartree energy from (\int eps (grad phi)^2 dr):     1259.873147
MG Discrepancy due to finite box and discretization:     -0.661654 (  -0.05249%)
MG Correction to account for finite box:                  0.469116
MG Remaining discrepancy, due to discretization:         -0.192538 (  -0.01527%)
      ideal mu1:      -0.720316984816
             Q0:  -11707.163181037526
             G0:      -0.080781835219
   RMS gradient:       0.000043432374
MG BCs: +ve charge blocks (gridpoints):     24290 (   16609703).
MG BCs: -ve charge blocks (gridpoints):      8362 (    1061391).
MG BCs:     Elided blocks (gridpoints):    172830 (  173105611).
MG BCs: Computational effort saved:  99.9829%.
MG BCs: Charge after coarse-graining:           -9.0006748.
MG DL_MG: Calling solver with defect correction order = 8
MG DL_MG: Solver finished
MG Hartree energy from (\int phi*rho dr):              1259.351982
MG Hartree energy from (\int eps (grad phi)^2 dr):     1258.690271
MG Discrepancy due to finite box and discretization:     -0.661711 (  -0.05254%)
MG Correction to account for finite box:                  0.469124
MG Remaining discrepancy, due to discretization:         -0.192587 (  -0.01529%)
     Trial step:       0.817609934590
             Q1:  -11707.187270625494
 Quadratic coef:       0.041958443040
 Linear coef   :      -0.066048031010
           Qmin:  -11707.189173079199
Quadratic minimum step length (  0.643512037159) accepted
    Initial Ne1:    7233.99999999
      Final Ne1:    7234.00000000

=================== Penalty functional idempotency correction ==================
 RMS occupancy error at iteration   1:  0.000059 (step -0.4957 Ne1=   7234.0000)
            Final RMS occupancy error   :  0.000000 (Ne1=   7234.0000)
               Final occupancy bounds   : [ -0.0000,  1.0000]
================================================================================

    7        -1.170716318104E+04     4.3432E-05     3.9290E-05    -4.5159E-02
MG BCs: +ve charge blocks (gridpoints):     24292 (   16610213).
MG BCs: -ve charge blocks (gridpoints):      8363 (    1061252).
MG BCs:     Elided blocks (gridpoints):    172828 (  173105240).
MG BCs: Computational effort saved:  99.9829%.
MG BCs: Charge after coarse-graining:           -9.0006747.
MG DL_MG: Calling solver with defect correction order = 8
MG DL_MG: Solver finished
MG Hartree energy from (\int phi*rho dr):              1259.602037
MG Hartree energy from (\int eps (grad phi)^2 dr):     1258.940338
MG Discrepancy due to finite box and discretization:     -0.661699 (  -0.05253%)
MG Correction to account for finite box:                  0.469122
MG Remaining discrepancy, due to discretization:         -0.192577 (  -0.01529%)
      ideal mu1:      -0.719258538519
             Q0:  -11707.189199684421
             G0:      -0.067004452874
   RMS gradient:       0.000039545284
MG BCs: +ve charge blocks (gridpoints):     24293 (   16610170).
MG BCs: -ve charge blocks (gridpoints):      8360 (    1061226).
MG BCs:     Elided blocks (gridpoints):    172827 (  173105309).
MG BCs: Computational effort saved:  99.9829%.
MG BCs: Charge after coarse-graining:           -9.0006747.
MG DL_MG: Calling solver with defect correction order = 8
MG DL_MG: Solver finished
MG Hartree energy from (\int phi*rho dr):              1259.482754
MG Hartree energy from (\int eps (grad phi)^2 dr):     1258.821036
MG Discrepancy due to finite box and discretization:     -0.661718 (  -0.05254%)
MG Correction to account for finite box:                  0.469029
MG Remaining discrepancy, due to discretization:         -0.192689 (  -0.01530%)
     Trial step:       0.725356350086
             Q1:  -11707.218122424209
 Quadratic coef:       0.019679365589
[...]
MG DL_MG: Calling solver with defect correction order = 8
MG DL_MG: Solver finished
MG Hartree energy from (\int phi*rho dr):              1216.624991
MG Hartree energy from (\int eps (grad phi)^2 dr):     1216.426867
MG Discrepancy due to finite box and discretization:     -0.198124 (  -0.01628%)
MG Correction to account for finite box:                  0.006384
MG Remaining discrepancy, due to discretization:         -0.191740 (  -0.01576%)
             Q2:  -11742.300763922045
  Cubic LS coeff:       1.018986741310
Predicted energy:  -11742.300763922058
Cubic minimum step length accepted
    Initial Ne1:    7234.00000000
      Final Ne1:    7234.00000000

=================== Penalty functional idempotency correction ==================
 RMS occupancy error at iteration   1:  0.000000 (step -0.5000 Ne1=   7234.0000)
            Final RMS occupancy error   :  0.000000 (Ne1=   7234.0000)
               Final occupancy bounds   : [  0.0000,  1.0000]
================================================================================

    7        -1.174230076392E+04     9.7990E-09     8.8643E-09    -2.9104E-09

Reusing previously generated solute cavity.
MG BCs: +ve charge blocks (gridpoints):     28828 (   18812301).
MG BCs: -ve charge blocks (gridpoints):      8338 (    1030810).
MG BCs:     Elided blocks (gridpoints):    168292 (  170933594).
MG BCs: Computational effort saved:  99.9805%.
MG BCs: Charge after coarse-graining:           -9.0009417.
MG DL_MG: Calling solver with defect correction order = 8
MG DL_MG: Solver finished
MG Hartree energy from (\int phi*rho dr):              1216.624991
MG Hartree energy from (\int eps (grad phi)^2 dr):     1216.426867
MG Discrepancy due to finite box and discretization:     -0.198124 (  -0.01628%)
MG Correction to account for finite box:                  0.006384
MG Remaining discrepancy, due to discretization:         -0.191740 (  -0.01576%)
      ideal mu1:      -0.481413242927
             Q0:  -11742.300763922045
             G0:      -0.000000005395
   RMS gradient:       0.000000011343

Reusing previously generated solute cavity.
MG BCs: +ve charge blocks (gridpoints):     28828 (   18812301).
MG BCs: -ve charge blocks (gridpoints):      8338 (    1030811).
MG BCs:     Elided blocks (gridpoints):    168292 (  170933593).
MG BCs: Computational effort saved:  99.9805%.
MG BCs: Charge after coarse-graining:           -9.0009417.
MG DL_MG: Calling solver with defect correction order = 8
MG DL_MG: Solver finished
MG Hartree energy from (\int phi*rho dr):              1216.624956
MG Hartree energy from (\int eps (grad phi)^2 dr):     1216.426832
MG Discrepancy due to finite box and discretization:     -0.198124 (  -0.01628%)
MG Correction to account for finite box:                  0.006384
MG Remaining discrepancy, due to discretization:         -0.191740 (  -0.01576%)
     Trial step:       0.712680348791
             Q1:  -11742.300763923791
 Quadratic coef:       0.000000002099
 Linear coef   :      -0.000000003845
           Qmin:  -11742.300763923806
Quadratic minimum step length (  0.652657332179) accepted
    Initial Ne1:    7234.00000000
      Final Ne1:    7234.00000000

=================== Penalty functional idempotency correction ==================
 RMS occupancy error at iteration   1:  0.000000 (step -0.5000 Ne1=   7234.0000)
            Final RMS occupancy error   :  0.000000 (Ne1=   7234.0000)
               Final occupancy bounds   : [  0.0000,  1.0000]
================================================================================

    8        -1.174230076392E+04     1.1343E-08     1.0261E-08    -4.4238E-09

Reusing previously generated solute cavity.
MG BCs: +ve charge blocks (gridpoints):     28828 (   18812301).
MG BCs: -ve charge blocks (gridpoints):      8338 (    1030811).
MG BCs:     Elided blocks (gridpoints):    168292 (  170933593).
MG BCs: Computational effort saved:  99.9805%.
MG BCs: Charge after coarse-graining:           -9.0009417.
MG DL_MG: Calling solver with defect correction order = 8
MG DL_MG: Solver finished
MG Hartree energy from (\int phi*rho dr):              1216.624959
MG Hartree energy from (\int eps (grad phi)^2 dr):     1216.426835
MG Discrepancy due to finite box and discretization:     -0.198124 (  -0.01628%)
MG Correction to account for finite box:                  0.006384
MG Remaining discrepancy, due to discretization:         -0.191740 (  -0.01576%)
      ideal mu1:      -0.481413200767
             Q0:  -11742.300763923791
             G0:      -0.000000002856
   RMS gradient:       0.000000006971

Reusing previously generated solute cavity.
MG BCs: +ve charge blocks (gridpoints):     28828 (   18812301).
MG BCs: -ve charge blocks (gridpoints):      8338 (    1030811).
MG BCs:     Elided blocks (gridpoints):    168292 (  170933593).
MG BCs: Computational effort saved:  99.9805%.
MG BCs: Charge after coarse-graining:           -9.0009417.
MG DL_MG: Calling solver with defect correction order = 8
MG DL_MG: Solver finished
MG Hartree energy from (\int phi*rho dr):              1216.624954
MG Hartree energy from (\int eps (grad phi)^2 dr):     1216.426830
MG Discrepancy due to finite box and discretization:     -0.198124 (  -0.01628%)
MG Correction to account for finite box:                  0.006384
MG Remaining discrepancy, due to discretization:         -0.191740 (  -0.01576%)
     Trial step:       0.682008838021
             Q1:  -11742.300763923908
 Quadratic coef:       0.000000001832
 Linear coef   :      -0.000000001948
           Qmin:  -11742.300763924310
Quadratic minimum step length (  0.362609660393) accepted
    Initial Ne1:    7234.00000000
      Final Ne1:    7234.00000000

=================== Penalty functional idempotency correction ==================
 RMS occupancy error at iteration   1:  0.000000 (step -0.5000 Ne1=   7234.0000)
            Final RMS occupancy error   :  0.000000 (Ne1=   7234.0000)
               Final occupancy bounds   : [  0.0000,  1.0000]
================================================================================

    9        -1.174230076392E+04     6.9711E-09     6.3062E-09    -1.7462E-09

Reusing previously generated solute cavity.
MG BCs: +ve charge blocks (gridpoints):     28828 (   18812301).
MG BCs: -ve charge blocks (gridpoints):      8338 (    1030811).
MG BCs:     Elided blocks (gridpoints):    168292 (  170933593).
MG BCs: Computational effort saved:  99.9805%.
MG BCs: Charge after coarse-graining:           -9.0009417.
MG DL_MG: Calling solver with defect correction order = 8
MG DL_MG: Solver finished
MG Hartree energy from (\int phi*rho dr):              1216.624956
MG Hartree energy from (\int eps (grad phi)^2 dr):     1216.426832
MG Discrepancy due to finite box and discretization:     -0.198124 (  -0.01628%)
MG Correction to account for finite box:                  0.006384
MG Remaining discrepancy, due to discretization:         -0.191740 (  -0.01576%)
      ideal mu1:      -0.481413199955
   10        -1.174230076392E+04     4.5328E-09     4.1004E-09    -2.3283E-10
Finished density kernel iterations (  10)

Writing density kernel to file "complex_3521.dkn" ... done


>>> Density kernel optimised for the current NGWF basis:
     ~~~~~~~~~~~~~~~~~~~~~~~~~~~~~~~~~~~~~~~~~~~~~~~~~~~~~~~~~~~
     Total energy                =  -1.17423007639240E+04  Eh
     Estimated bandgap           =   8.9222E-02  Eh
     RMS occupancy error         =   8.2073E-16
     [H,K] commutator            =   4.1004E-09
     Occupancy bounds            = [  0.000:  1.000]
     ~~~~~~~~~~~~~~~~~~~~~~~~~~~~~~~~~~~~~~~~~~~~~~~~~~~~~~~~~~~




################################################################################
########################### NGWF CG iteration  004 #############################
################################################################################
****** Reciprocal space K.E. preconditioning with k_zero =  3.5000 a0^-1 *******

>>> Checking for convergence of NGWFs: 
           ........................................................
           |         *** NGWF optimisation converged ***          |
           | RMS NGWF gradient =    0.00000195317341              |
           | Criteria satisfied:                                  |
           | -> RMS NGWF gradient lower than set threshold.       |
           ========================================================

Reusing previously generated solute cavity.
MG BCs: +ve charge blocks (gridpoints):     28828 (   18812301).
MG BCs: -ve charge blocks (gridpoints):      8338 (    1030811).
MG BCs:     Elided blocks (gridpoints):    168292 (  170933593).
MG BCs: Computational effort saved:  99.9805%.
MG BCs: Charge after coarse-graining:           -9.0009417.
MG DL_MG: Calling solver with defect correction order = 8
MG DL_MG: Solver finished
MG Hartree energy from (\int phi*rho dr):              1216.624956
MG Hartree energy from (\int eps (grad phi)^2 dr):     1216.426832
MG Discrepancy due to finite box and discretization:     -0.198124 (  -0.01628%)
MG Correction to account for finite box:                  0.006384
MG Remaining discrepancy, due to discretization:         -0.191740 (  -0.01576%)

================================================================================
           ---------------- ENERGY COMPONENTS (Eh) ----------------
           | Kinetic                    :     8575.93923509194065 |
           | Pseudo. (local,OBC,corr'd) :    -5076.07937513933211 |
           | Pseudopotential (non-local):     1411.33272829262296 |
           | Hartree (molecular)        :     1216.62495596344252 |
           | Exchange-correlation       :    -3377.04293661145994 |
           | Ion-ion (open BC)          :   838779.50543567910790 |
           | Dispersion Correction      :       -3.30700150810841 |
           | Smeared ion non-self corr. :  -838730.97250307979994 |
           | Smeared ion self corr.     :   -14538.95273137971526 |
           | Solvent cavitation energy  :        2.31763325549866 |
           | Solute-solvent dis-rep en. :       -1.66620448820937 |
           | Total                      :   -11742.30076392401497 |
           --------------------------------------------------------
           ------ LOCAL ENERGY COMPONENTS FROM MATRIX TRACES ------
           | Pseudopotential (local)    :    -5076.07937513933575 |
           | Hartree                    :    -2003.59015267517316 |
           --------------------------------------------------------
           Integrated density           :     7233.99999999744523
           Integrated density tr(KS)    :     7233.99999999999909
================================================================================


                        <<<<< CALCULATION SUMMARY >>>>>                         
|ITER|    RMS GRADIENT   |     TOTAL ENERGY    |   step   |     Epredicted              
   0     0.00004085346420 -11742.23751156521030   0.611600 -11742.29216138956872        
   1     0.00000994652017 -11742.30023305653594   0.083245 -11742.30067398282154        
   2     0.00000437891004 -11742.30074610456359   0.015170 -11742.30076167748120        
   3     0.00000195317341 -11742.30076392402407  <-- CG                                 

=================== Finished the calculation in solvent ========================
= Adjusting the following parameters: 
= read_denskern: F
= read_tightbox_ngwfs: F
= maxit_pen: 0 (restored to user-specified value)
= restart read filename prefix: ""
= restart write filename prefix: ""
================================================================================

================================================================================
IS: Calculation in solvent completed (NGWFs converged).      

Individual components of total energy in solvent:     hartree           kcal/mol
- Usual non-electrostatic DFT terms:    -12959.57714865475646    -8132257.264202
- Electrostatic fixed charge energy:      1216.62495596344252      763443.669686
- Apolar cavitation energy:                  2.31763325549866        1454.336794
- Apolar dispersion-repulsion energy:       -1.66620448820937       -1045.559079
 -------------------------------------------------------------------------------
- Total energy in solvent:              -11742.30076392402407    -7368404.816802

Components of total energy in solvent:                hartree           kcal/mol
- Usual non-electrostatic DFT terms:    -12959.57714865475646    -8132257.264202
- Electrostatic energy:                   1216.62495596344252      763443.669686
- Apolar energy terms:                       0.65142876728929         408.777714
 -------------------------------------------------------------------------------
- Total energy in solvent:              -11742.30076392402407    -7368404.816802

Calculation of free energy of solvation:              hartree           kcal/mol
- Total energy in solvent:         (+)  -11742.30076392402407    -7368404.816802
- Total energy in vacuum:          (-)  -11738.35001118271612    -7365925.682081
 -------------------------------------------------------------------------------
- Total free energy of solvation:           -3.95075274130795       -2479.134721

Components of polar term in f.e. of solvation:        hartree           kcal/mol
- Electrostatic:                            -4.79817631527976       -3010.901031
- Change in nonelectrostatic DFT terms:      0.19599480668148         122.988595
 -------------------------------------------------------------------------------
- Polar term in f.e. of solvation:          -4.60218150859828       -2887.912435

Components of free energy of solvation:               hartree           kcal/mol
- Polar term in f.e. of solvation: (+)      -4.60218150859828       -2887.912435
- Apolar (cavitation, dis., rep.): (+)       0.65142876728929         408.777714
 -------------------------------------------------------------------------------
- Total free energy of solvation:           -3.95075274130899       -2479.134721
================================================================================


------------------------------ TIMING INFORMATION ------------------------------
AVERAGE TIME:   32682.042s on     30 node(s)                                    
TOTAL TIME:     32682.087s on     30 node(s)                                    
================= AVERAGE TIMINGS FROM ALL NODES (CUMULATIVE) ==================
|| TAG                                    #calls    cpu time   %total  Gflops ||
|| work_imbalance                       :     1        0.00s   0.000%  ------ ||
|| parallel_prepare_fd_halos_alloc      :  1827        0.04s   0.000%  ------ ||
|| parallel_prepare_fd_halos_request    :  1827        0.04s   0.000%  ------ ||
|| sparse_set_to_garbage                :   164        0.05s   0.000%  ------ ||
|| ngwfs_initialise_from_radial         :     1        0.20s   0.001%  ------ ||
|| basis_extract_function_from_box      :  6762        0.27s   0.001%  ------ ||
|| parallel_prepare_fd_halos_satisfy    :  1827        0.73s   0.002%  ------ ||
|| pseudopotentials_nonlocal_mat        :    28        0.82s   0.003%  ------ ||
|| restart_ngwfs_tightbox_input         :     1        1.16s   0.004%  ------ ||
|| parallel_prepare_fd_halos_comms_imbal:  1827        6.95s   0.021%  ------ ||
|| openbc_locps_radial                  :     1        6.98s   0.021%  ------ ||
|| parallel_prepare_fd_halos_clear      :  1827       12.72s   0.039%  ------ ||
|| density_init_guess_real              :     1       15.38s   0.047%  ------ ||
|| restart_kernel_read                  :     1       15.77s   0.048%  ------ ||
|| sparse_init                          :     2       23.06s   0.071%  ------ ||
|| projectors_func_ovlp_box             :    28       26.36s   0.081%  ------ ||
|| parallel_prepare_fd_halos_comms_wait :  1827       27.91s   0.085%  ------ ||
|| projectors_init_fftbox_recip         :   238       30.33s   0.093%  ------ ||
|| function_ops_brappd_ketppd           :    28       32.37s   0.099%  ------ ||
|| restart_kernel_write                 :    16       33.20s   0.102%  ------ ||
|| palser_mano_kernel_optimise          :     1       38.94s   0.119%  ------ ||
|| basis_copy_function_to_box           : 109.7k      47.33s   0.145%  ------ ||
|| parallel_prepare_fd_halos            :  1827       48.40s   0.148%  ------ ||
|| fourier_apply_box_pair               :  9599       58.29s   0.178% 476.691 ||
|| ngwf_gradient_coeffs                 :    15       66.93s   0.205%  ------ ||
|| restart_ngwfs_tightbox_output        :    13       72.16s   0.221%  ------ ||
|| sparse_embed_hotelling_invert_embed  :    28       93.75s   0.287%  ------ ||
|| pseudo_make_structure_factor         :     2      112.74s   0.345%  ------ ||
|| finite_difference_derivative         :  1827      129.30s   0.396%  ------ ||
|| sparse_trace                         :  5216      134.02s   0.410%  ------ ||
|| integrals_kinetic                    :    28      204.27s   0.625%  ------ ||
|| projectors_gradient_batch            :   210      241.02s   0.737%  ------ ||
|| fourier_apply_cell_forward           :  1217      254.90s   0.780%  64.988 ||
|| fourier_apply_cell_backward          :  1219      256.17s   0.784%  64.774 ||
|| openbc_locps_on_grid                 :     2      352.50s   1.079%  ------ ||
|| kernel_purify                        :   464      352.84s   1.080%  ------ ||
|| basis_dot_function_with_box          : 16.87M     370.43s   1.133%  ------ ||
|| lnv_gradient_norm                    :   150      539.84s   1.652%  ------ ||
|| hamiltonian_energy_components        :     4      557.64s   1.706%  ------ ||
|| xc_energy_potential                  :   304      611.59s   1.871%  ------ ||
|| kernel_fix                           :   150      657.81s   2.013%  ------ ||
|| basis_add_function_to_box            : 35.09M     710.15s   2.173%  ------ ||
|| ngwf_gradient_build_batch            :   210      953.52s   2.918%  ------ ||
|| cell_grid_extract_box_real           : 57721     1030.12s   3.152%  ------ ||
|| cell_grid_deposit_box_real           : 68271     1110.29s   3.397%  ------ ||
|| ngwf_gradient_batch                  :   210     1329.97s   4.069%  ------ ||
|| integrals_locpot_mat_els_batch       :  2226     1357.60s   4.154%  ------ ||
|| ngwf_gradient_lnv                    :    15     1569.34s   4.802%  ------ ||
|| density_batch_row_sums               :  4242     1588.85s   4.862%  ------ ||
|| density_fftbox_deposit_to_cell       : 66357     2092.47s   6.403%  ------ ||
|| sparse_product                       :  6386     2289.59s   7.006%  ------ ||
|| multigrid_prepare_bound_cond         :   304     3117.66s   9.539%  ------ ||
|| potential_apply_to_ngwf_batch        :  2226     4030.01s  12.331%  ------ ||
|| density_fftbox_interpolate_multiply  : 66357     4608.26s  14.100%  ------ ||
|| integrals_locpot_dbl_grid            :   159     5395.27s  16.508%  ------ ||
|| fourier_apply_box                    : 228.8k    5530.09s  16.921% 580.867 ||
|| density_batch_interp_deposit         :  4242     7316.01s  22.385%  ------ ||
|| dl_mg_solver_calls                   :   304     7766.32s  23.763%  ------ ||
|| density_on_dbl_grid                  :   303     9811.15s  30.020%  ------ ||
|| multigrid_calculate_hartree          :   304    11059.51s  33.840%  ------ ||
|| hamiltonian_lhxc_calculate           :   299    21317.68s  65.228%  ------ ||
|| lnv_denskernel_optimise_cg           :    15    27776.74s  84.991%  ------ ||
|| ngwf_cg_optimise                     :     2    31408.09s  96.102%  ------ ||
|| total_time                           :     1    32682.04s 100.000%  ------ ||
================================================================================
Overhead of generating timer report: 
- 0 ms averaging over threads,
- 5 ms ensuring consistency across MPI ranks,
- 14 ms printing in order.

Job completed: 03-02-2020 04:54 (-0000)

