 +---------------------------------------------------------------+
 |                                                               |
 |        ####### #     # ####### ####### ####### ######         |
 |        #     # ##    # #          #    #       #     #        |
 |        #     # # #   # #          #    #       #     #        |
 |        #     # #  #  # #####      #    #####   ######         |
 |        #     # #   # # #          #    #       #              |
 |        #     # #    ## #          #    #       #              |
 |        ####### #     # #######    #    ####### #              |
 |                                                               |
 |        Linear-Scaling Ab Initio Total Energy Program          |
 |                                                               |
 |          Release for academic collaborators of ODG            |
 |                                             Version 5.3.2.6.  |
 |                                                               |
 +---------------------------------------------------------------+
 |                                                               |
 |  Authors:                                                     |
 |  Jacek Dziedzic, Peter D. Haynes, Nicholas D. M. Hine,        |
 |  Arash. A. Mostofi, Mike C. Payne and Chris-Kriton Skylaris   |
 |                                                               |
 |  Contributors:                                                |
 |  J. Aarons, L. Andrinopoulos, P. W. Avraam, R. A. Bell,       |
 |  A. Bhandari, G. A. Bramley, R. J. Charlton, S. J. Clark,     |
 |  R. J. Clements, G. C. Constantinescu, F. Corsetti,           |
 |  N. Corsini, O. Dieguez, S. M. M. Dubois, K. K. B. Duff,      |
 |  J. M. Escartin, A. Greco, H. Helal, Q. O. Hill, L. P. Lee,   |
 |  J.-H. Li, E. B. Linscott, G. Moynihan, D. D. O`Regan,        |
 |  O. K. Okan, M. J. S. Phipps, C. J. Pickard,                  |
 |  J. C. A. Prentice, M. I. J. Probert, L. E. Ratcliff,         |
 |  M. Robinson, A. Ruiz Serrano, J. S. Spencer, E. W. Tait,     |
 |  G. Teobaldi, D. Turban, V. Vitale, K. A. Wilkinson,          |
 |  C. Weber, J. C. Womack, N. Yeung and T. J. Zuehlsdorff       |
 |                                                               |
 |                                   Copyright (c) 2004-2019     |
 |                                                               |
 |  Please cite:                                                 |
 |  "Introducing ONETEP: Linear-scaling density functional       |
 |   simulations on parallel computers".                         |
 |   C.-K. Skylaris, P. D. Haynes, A. A. Mostofi, M. C. Payne.   |
 |   J. Chem. Phys. 122 084119 (2005).                           |
 |                                                               |
 |          in all publications arising from your use of ONETEP. |
 |                                                               |
 +---------------------------------------------------------------+
 |                                                               |
 |   ONETEP is based on developments described in the following  |
 |   publications:                                               |
 |                                                               |
 |  "Nonorthogonal generalized Wannier function pseudopotential  |
 |   plane-wave method".                                         |
 |   C.-K. Skylaris, A. A. Mostofi, P. D. Haynes, O. Dieguez,    |
 |   M. C. Payne.                                                |
 |   Phys. Rev. B 66 035119 (2002).                              |
 |                                                               |
 |  "Preconditioned iterative minimization for linear-scaling    |
 |   electronic structure calculations".                         |
 |   A. A. Mostofi, P. D. Haynes, C.-K. Skylaris, M. C. Payne.   |
 |   J. Chem. Phys. 119(17), pp.8842-8848 (2003).                |
 |                                                               |
 |  "Total-energy calculations on a real space grid with         |
 |   localized functions and a plane-wave basis".                |
 |   A. A. Mostofi, C.-K. Skylaris, P. D. Haynes, M. C. Payne.   |
 |   Comput. Phys. Commun. 147, pp.788-802 (2002).               |
 |                                                               |
 |  "Accurate kinetic energy evaluation in electronic structure  |
 |   calculations with localized functions on real space grids"  |
 |   C.-K. Skylaris, A. A. Mostofi, P. D. Haynes, C. J. Pickard, |
 |   M. C. Payne.                                                |
 |   Comput. Phys. Commun. 140, pp.315-322 (2001).               |
 |                                                               |
 |  "Accurate ionic forces and geometry optimization in linear-  |
 |   scaling density-functional theory with local orbitals"      |
 |   N. D. M. Hine, M. Robinson, P. D. Haynes, C.-K. Skylaris,   |
 |   M. C. Payne, and A. A. Mostofi.                             |
 |   Phys. Rev. B 83 195102 (2011).                              |
 |                                                               |
 +---------------------------------------------------------------+

Job started: 17-05-2020 20:38 (+0100)
 
Reading parameters from file "complex_5421.dat" ...... done

If your calculation crashes here, before "Checking processes and threads..."
is displayed, then your stack size is insufficient.
If so, use "ulimit -s unlimited" at runtime.
You can disable this check with "check_stack_size F".

Checking processes and threads...
   Determining the default number of threads...
      No default threads set at compilation time: defaulting to 1.
      OpenMP library call suggests 4 threads.
      Hybrid MPI-OpenMP compilation detected.
      Number of MPI processes > 1.
      OMP_NUM_THREADS environment variable present and
      its value matches the one obtained from the OpenMP library call.
      Using this value as default.
      Default threads: 4
      Default applies to threads_max and threads_num_fftboxes.
      Settings in the input file override this default.
   ... done

   Running with 40 MPI processes.
   There are 10 MPI processes running on the same node as the root process.
   Each MPI process is using: 
               1 threads for simulation cell FFTs.
               1 threads for parallel FFT box operations.
               4 threads for loops over batched FFT box operations.
               4 threads in other parallel regions.
... done

Basic input checks...... done

Reading geometry and species blocks from file "complex_5421.dat" ...
  <species_atomic_set> block not found: NGWF initialisation set to SOLVE
IS: Dielectric excluded regions:
    - NONE.
    
  Number of PPD points along a3 set to 1.  This is 
  the default value, it may have been provided also in the input file.
... done
 Writing xyz coordinates to file "complex_5421.xyz" ... done


--------------------------------------------------------------------------------
---------------------------------- INPUT FILE ----------------------------------
--------------------------------------------------------------------------------

cutoff_energy       : 800 eV                                                    
xc_functional PBE                                                               
task SINGLEPOINT                                                                
write_xyz true                                                                  
output_detail VERBOSE                                                           
ngwf_threshold_orig : 0.000002                                                  
kernel_cutoff       : 1000                                                      
k_zero              : 3.5                                                       
elec_cg_max 0                                                                   
occ_mix 1.0                                                                     
dispersion 1                                                                    
maxit_ngwf_cg 40                                                                
minit_lnv 10                                                                    
maxit_lnv 10                                                                    
write_denskern T                                                                
write_tightbox_ngwfs T                                                          
charge 9                                                                        
is_implicit_solvent T                                                           
is_auto_solvation T                                                             
is_include_apolar T                                                             
is_smeared_ion_rep T                                                            
is_solvent_surf_tension 4.7624E-5 Ha/bohr**2                                    
is_apolar_scaling_factor 0.281075                                               
is_solvation_beta 1.3                                                           
is_density_threshold 0.00035                                                    
is_bulk_permittivity 78.54                                                      
is_dielectric_model fix_initial                                                 
is_smeared_ion_width 0.8                                                        
mg_defco_fd_order 8                                                             
is_bc_coarseness 10                                                             
is_bc_surface_coarseness 1                                                      
fine_grid_scale 2.0                                                             
%block species                                                                  
N   N   7 4 8.0                                                                 
H   H   1 1 8.0                                                                 
C   C   6 4 8.0                                                                 
S   S  16 9 8.0                                                                 
O   O   8 4 8.0                                                                 
%endblock species                                                               
%block species_pot                                                              
N   N_00.recpot                                                                 
H   H_04.recpot                                                                 
C   C_01.recpot                                                                 
S   S_00.recpot                                                                 
O   O_02.recpot                                                                 
%endblock species_pot                                                           
%block lattice_cart                                                             
139.252   0.000   0.000                                                         
0.000 142.425   0.000                                                           
0.000   0.000   162.84                                                          
%endblock lattice_cart                                                          
%block positions_abs                                                            
     Hash =  -000000059007472697725156
%endblock positions_abs                                                         

--------------------------------------------------------------------------------
-------------------------------- END INPUT FILE --------------------------------
--------------------------------------------------------------------------------


 
 ESDF WARNING(1): "kernelcutoff" (esdf_physical) has no units. Assume "bohr".
 ESDF WARNING(2): "kzero" (esdf_physical) has no units. Assume "1/bohr".
 ESDF WARNING(3
 ): "issmearedionwidth" (esdf_physical) has no units. Assume "bohr".
<<<<<<<<<<<<<<<<<<<<<<<<<<<<<<<<< Full system >>>>>>>>>>>>>>>>>>>>>>>>>>>>>>>>>>
<<<<<<<<<<<<<<<<<<<<<<<<< Pseudopotential information >>>>>>>>>>>>>>>>>>>>>>>>>>
File: N_00.recpot [ 2001 points up to Gmax=  52.9 (1/bohr)]
  Atomic number:  7;  ionic charge:  5.000000
    Shell 1: l = 0; rc = 1.48 bohr
File: H_04.recpot [ 2001 points up to Gmax=  52.9 (1/bohr)]
  Atomic number:  1;  ionic charge:  1.000000
    Local potential
File: C_01.recpot [ 2001 points up to Gmax=  52.9 (1/bohr)]
  Atomic number:  6;  ionic charge:  4.000000
    Shell 1: l = 0; rc = 1.48 bohr
File: S_00.recpot [ 2001 points up to Gmax=  52.9 (1/bohr)]
  Atomic number: 16;  ionic charge:  6.000000
    Shell 1: l = 0; rc = 1.90 bohr
    Shell 2: l = 2; rc = 1.84 bohr
File: O_02.recpot [ 2001 points up to Gmax=  52.9 (1/bohr)]
  Atomic number:  8;  ionic charge:  6.000000
    Shell 1: l = 0; rc = 1.31 bohr
<<<<<<<<<<<<<<<<<<<<<<<<<<<<<<<<<<<<<<<<>>>>>>>>>>>>>>>>>>>>>>>>>>>>>>>>>>>>>>>>

-------------------------- Atom counting information ---------------------------
Symbol    Natoms    Nngwfs    Nprojs
  N        237       948       237
  H       1318      1318         0
  C        816      3264       816
  S          6        54        36
  O        240       960       240
.......   ......    ......    ......
Totals:   2617      6544      1329
--------------------------------------------------------------------------------

=============================== PSINC grid sizes ===============================
                      Simulation cell:  275 x 280 x 320
                              FFT-box:   99 x  99 x  99
                                  PPD:    5 x   5 x   1
Grid space d1=  0.506370909091a0 (KE cutoff=  29.62556Eh = 806.15239eV)
Grid space d2=  0.508660714286a0 (KE cutoff=  29.35943Eh = 798.91072eV)
Grid space d3=  0.508875000000a0 (KE cutoff=  29.33471Eh = 798.23802eV)
================================================================================

********************* Fourier parallelisation information **********************
       Coarse grid (whole simulation cell) dimensions:    275   280   320
          Real-space ('12') slabs/node (min max mean):      8     8     8
         Recip-space ('23') slabs/node (min max mean):      3     4     3
********************************************************************************

********************* Fourier parallelisation information **********************
       Double grid (whole simulation cell) dimensions:    550   560   640
          Real-space ('12') slabs/node (min max mean):     16    16    16
         Recip-space ('23') slabs/node (min max mean):      6     7     6
********************************************************************************
ONETEP fine grid is 550 x 560 x 640 gridpoints, 139.2520 x 142.4250 x 162.8400 bohr.
FD multigrid is     545 x 553 x 633 gridpoints, 137.9861 x 140.6447 x 161.0589 bohr.


Calculating local pseudopotential in open BC on a radial grid ...
Discrepancy between calculated realspace psloc and -Z/x on [5a0,257.280a0]:
max |rel. diff| # avg |rel. diff| #  avg rel. diff #  f # pseudopotential file
 0.000256370913    0.000003612608   0.000000072509   55  'N_00.recpot'
 0.000395389207    0.000016224277  -0.000000076597   55  'H_04.recpot'
 0.000377360759    0.000017565724   0.000000149252   55  'C_01.recpot'
 0.000469715301    0.000020587835   0.000000455518   55  'S_00.recpot'
 0.000665442002    0.000026079317   0.000000158685   55  'O_02.recpot'
... done

Atom SCF Calculation for N  : Z (AE atom) =   7 : Z (PS atom) =   5
Config String:
Orbitals (num,occ):  2     2.00 3.00
Orbitals   (num,l):  2        0    1
Real-space Grid (nr,dr,rmax): 1203    0.0066555740    8.0000000000
Spherical Bessel Basis (nsws,lmax,cutoff):   47    1  176.3951722778
Confining potential (l,width,scale):  0    3.0000000000  100.0000000000
Confining potential (l,width,scale):  1    3.0000000000  100.0000000000
  1         -4.7312375307   -3.4155304497    7.0523828109   -1.9351020946
  2         -9.7309464766   -2.0532547791    8.2966052865   -2.2494486027
  3         -9.6627394379   -2.1124926340    8.2327997121   -2.2369778124
  4         -9.6814993499   -2.1215521045    8.2229805960   -2.2365178421
  5         -9.6843326483   -2.1250939529    8.2191374534   -2.2362718126
  6         -9.6859628709   -2.1267894855    8.2172963573   -2.2362066344
  7         -9.6867347035   -2.1276425665    8.2163697352   -2.2361903369
  8         -9.6870802100   -2.1280764625    8.2158983890   -2.2361891460
  9         -9.6872290423   -2.1282977424    8.2156580222   -2.2361920435
 10         -9.6872901988   -2.1284107021    8.2155353368   -2.2361953393
 11         -9.6873135296   -2.1284684031    8.2154726809   -2.2361979819
 12         -9.6873212476   -2.1284978948    8.2154406648   -2.2361998431
 13         -9.6873229586   -2.1285129774    8.2154242957   -2.2362010676
 14         -9.6873226456   -2.1285206957    8.2154159216   -2.2362018403
 15         -9.6873218534   -2.1285246479    8.2154116349   -2.2362023142
 16         -9.6873212599   -2.1285262679    8.2154098784   -2.2362025420
 17         -9.6873207834   -2.1285272564    8.2154088068   -2.2362026955
 18         -9.6873204210   -2.1285278597    8.2154081529   -2.2362027982
 19         -9.6873201550   -2.1285282280    8.2154077538   -2.2362028667
 20         -9.6873199645   -2.1285284529    8.2154075102   -2.2362029121
 21         -9.6873198305   -2.1285285903    8.2154073614   -2.2362029421
 22         -9.6873197377   -2.1285286742    8.2154072705   -2.2362029618
Atom SCF converged after  22 iterations to a total energy of     -9.68731974

Atom SCF Calculation for H  : Z (AE atom) =   1 : Z (PS atom) =   1
Config String:
Orbitals (num,occ):  1     1.00
Orbitals   (num,l):  1        0
Real-space Grid (nr,dr,rmax): 1203    0.0066555740    8.0000000000
Spherical Bessel Basis (nsws,lmax,cutoff):   47    0  176.3951722778
Confining potential (l,width,scale):  0    3.0000000000  100.0000000000
  1         -0.3194257691   -0.2393854593    0.2820953124   -0.2424203209
  2         -0.3951823392   -0.2377116493    0.2886404059   -0.2475147891
  3         -0.4317044583   -0.2352244387    0.2921333887   -0.2514046172
  4         -0.4470703708   -0.2341892222    0.2934391879   -0.2531009782
  5         -0.4532132900   -0.2338556667    0.2938388426   -0.2537313520
  6         -0.4556579251   -0.2337612552    0.2939448584   -0.2539550462
  7         -0.4566418315   -0.2337377355    0.2939680120   -0.2540342273
  8         -0.4570437922   -0.2337331116    0.2939708287   -0.2540627372
  9         -0.4572102946   -0.2337328328    0.2939698291   -0.2540732650
 10         -0.4572800424   -0.2337332404    0.2939687193   -0.2540772588
 11         -0.4573095100   -0.2337335791    0.2939680317   -0.2540788122
 12         -0.4573220379   -0.2337337762    0.2939676699   -0.2540794294
 13         -0.4573273880   -0.2337338775    0.2939674931   -0.2540796787
 14         -0.4573296803   -0.2337339266    0.2939674099   -0.2540797808
 15         -0.4573306647   -0.2337339495    0.2939673718   -0.2540798230
 16         -0.4573310882   -0.2337339601    0.2939673545   -0.2540798406
 17         -0.4573312706   -0.2337339649    0.2939673467   -0.2540798479
 18         -0.4573313493   -0.2337339670    0.2939673433   -0.2540798510
Atom SCF converged after  18 iterations to a total energy of     -0.45733135

Atom SCF Calculation for C  : Z (AE atom) =   6 : Z (PS atom) =   4
Config String:
Orbitals (num,occ):  2     2.00 2.00
Orbitals   (num,l):  2        0    1
Real-space Grid (nr,dr,rmax): 1203    0.0066555740    8.0000000000
Spherical Bessel Basis (nsws,lmax,cutoff):   47    1  176.3951722778
Confining potential (l,width,scale):  0    3.0000000000  100.0000000000
Confining potential (l,width,scale):  1    3.0000000000  100.0000000000
  1         -5.2976922011   -1.3069684169    4.5135249990   -1.4493313817
  2         -5.3721716256   -1.3429755895    4.4750154450   -1.4361613026
  3         -5.3809959565   -1.3617365618    4.4541655428   -1.4305930207
  4         -5.3918938866   -1.3667928461    4.4484735100   -1.4294652294
  5         -5.3956096428   -1.3688539142    4.4461376126   -1.4290734646
  6         -5.3968271862   -1.3696852393    4.4451910874   -1.4289366866
  7         -5.3972028401   -1.3700178062    4.4448112275   -1.4288900460
  8         -5.3973067903   -1.3701500158    4.4446598370   -1.4288749220
  9         -5.3973286940   -1.3702023868    4.4445997329   -1.4288704293
 10         -5.3973289850   -1.3702230869    4.4445759233   -1.4288693188
 11         -5.3973254264   -1.3702312560    4.4445665049   -1.4288691775
 12         -5.3973224003   -1.3702344755    4.4445627836   -1.4288692549
 13         -5.3973208708   -1.3702354890    4.4445616088   -1.4288693270
 14         -5.3973198783   -1.3702360102    4.4445610034   -1.4288693814
 15         -5.3973192535   -1.3702362780    4.4445606917   -1.4288694190
 16         -5.3973188684   -1.3702364155    4.4445605313   -1.4288694437
 17         -5.3973186349   -1.3702364860    4.4445604489   -1.4288694595
 18         -5.3973184951   -1.3702365221    4.4445604065   -1.4288694693
 19         -5.3973184122   -1.3702365405    4.4445603848   -1.4288694753
Atom SCF converged after  19 iterations to a total energy of     -5.39731841

Atom SCF Calculation for S  : Z (AE atom) =  16 : Z (PS atom) =   6
Config String:
Orbitals (num,occ):  3     2.00 4.00 0.00
Orbitals   (num,l):  3        0    1    2
Real-space Grid (nr,dr,rmax): 1203    0.0066555740    8.0000000000
Spherical Bessel Basis (nsws,lmax,cutoff):   47    2  176.3951722778
Confining potential (l,width,scale):  0    3.0000000000  100.0000000000
Confining potential (l,width,scale):  1    3.0000000000  100.0000000000
Confining potential (l,width,scale):  2    3.0000000000  100.0000000000
  1        -12.4735062396   -1.0328741412   10.1554312477   -2.4512393157
  2         -9.9458301913   -2.4607392455    8.3041325857   -2.0306994528
  3        -10.1450417646   -2.2931184565    8.4831893826   -2.0812538287
  4        -10.1528335592   -2.2733105793    8.5050388867   -2.0896035179
  5        -10.1571940363   -2.2633716629    8.5160794258   -2.0939370707
  6        -10.1594380571   -2.2584938667    8.5215163935   -2.0961289008
  7        -10.1605856507   -2.2561081821    8.5241804044   -2.0972291378
  8        -10.1611799191   -2.2549395235    8.5254868240   -2.0977806248
  9        -10.1614918752   -2.2543658586    8.5261285885   -2.0980571586
 10        -10.1616572884   -2.2540839121    8.5264441898   -2.0981959233
 11        -10.1617455602   -2.2539453058    8.5265994231   -2.0982656006
 12        -10.1617928447   -2.2538772062    8.5266757320   -2.0983006047
 13        -10.1618182292   -2.2538437891    8.5267131983   -2.0983181961
 14        -10.1618318741   -2.2538274201    8.5267315620   -2.0983270391
 15        -10.1618392144   -2.2538194197    8.5267405433   -2.0983314852
 16        -10.1618431651   -2.2538155200    8.5267449245   -2.0983337210
 17        -10.1618452923   -2.2538136252    8.5267470551   -2.0983348455
 18        -10.1618464380   -2.2538127080    8.5267480875   -2.0983354110
 19        -10.1618470552   -2.2538122659    8.5267485856   -2.0983356955
 20        -10.1618473878   -2.2538120540    8.5267488248   -2.0983358386
 21        -10.1618475670   -2.2538119530    8.5267489389   -2.0983359106
 22        -10.1618476637   -2.2538119053    8.5267489929   -2.0983359468
Atom SCF converged after  22 iterations to a total energy of    -10.16184766

Atom SCF Calculation for O  : Z (AE atom) =   8 : Z (PS atom) =   6
Config String:
Orbitals (num,occ):  2     2.00 4.00
Orbitals   (num,l):  2        0    1
Real-space Grid (nr,dr,rmax): 1203    0.0066555740    8.0000000000
Spherical Bessel Basis (nsws,lmax,cutoff):   47    1  176.3951722778
Confining potential (l,width,scale):  0    3.0000000000  100.0000000000
Confining potential (l,width,scale):  1    3.0000000000  100.0000000000
  1         -1.8735052164   -7.5539365035   10.1554312477   -2.4512393157
  2        -16.0318313751   -3.1285771268   13.6395848164   -3.2358799643
  3        -15.9524020423   -3.0762819706   13.6967272503   -3.2536856837
  4        -15.8521515939   -3.0781493909   13.6951909330   -3.2561700440
  5        -15.8357139793   -3.0748501933   13.6988803334   -3.2580493133
  6        -15.8246052853   -3.0740779781   13.6997881576   -3.2588327446
  7        -15.8189019501   -3.0737449687   13.7001869911   -3.2592378801
  8        -15.8159785510   -3.0736026016   13.7003615168   -3.2594475790
  9        -15.8144776168   -3.0735437994   13.7004360379   -3.2595560735
 10        -15.8137058024   -3.0735207882   13.7004667348   -3.2596122456
 11        -15.8133083127   -3.0735125946   13.7004786868   -3.2596413656
 12        -15.8131032938   -3.0735102195   13.7004828997   -3.2596564858
 13        -15.8129973902   -3.0735099286   13.7004840891   -3.2596643505
 14        -15.8129426040   -3.0735102506   13.7004842061   -3.2596684489
 15        -15.8129142203   -3.0735106556   13.7004840157   -3.2596705887
 16        -15.8128994940   -3.0735109855   13.7004837906   -3.2596717080
 17        -15.8128918425   -3.0735112169   13.7004836103   -3.2596722946
 18        -15.8128878614   -3.0735113674   13.7004834848   -3.2596726026
 19        -15.8128857871   -3.0735114608   13.7004834035   -3.2596727646
 20        -15.8128847048   -3.0735115170   13.7004833533   -3.2596728500
 21        -15.8128841394   -3.0735115501   13.7004833231   -3.2596728951
 22        -15.8128838436   -3.0735115693   13.7004833054   -3.2596729190
 23        -15.8128836887   -3.0735115802   13.7004832951   -3.2596729316
 24        -15.8128836074   -3.0735115864   13.7004832893   -3.2596729383
Atom SCF converged after  24 iterations to a total energy of    -15.81288361

========================== Calculation in vacuum ==============================
= Adjusting the following parameters: 
= is_implicit_solvent: F
= is_include_apolar: F
= write_denskern: T
= write_tightbox_ngwfs: T
= restart read filename prefix: ""
= restart write filename prefix: "vacuum_"
===============================================================================

Determining parallel strategy ...
... using space-filling curve
... NGWF load balancing: max    164;  min    163;  average    164
... Projector load balancing: max     36;  min     32;  average     33
... done
Calculating direct Ion-Ion energy ...
Ion-Ion Energy        :    835910.96849101013504
======================= Empirical dispersion information =======================
Model : Elstner
Dispersion Correction Energy: -0.33244191E+01 Hartree
================================================================================
Basis initialisation ...... NGWF spheres initialised
... Projector spheres initialised
... NGWF tight boxes initialised
... Tight-boxes gathered
... NGWF basis size (local,global):    1794232  71795368
... Nonlocal pseudopotential projector initialisation
... done

========================== Sparse matrix information ===========================
                        Overlap matrix filling:   6.81%
                        Density kernel filling: 100.00%
              NGWF-Proj overlap matrix filling:   1.79%
                    Hamiltonian matrix filling:   7.72%
                  NGWF diagonal matrix filling:   0.05%
                             KS matrix filling: 100.00% 
                           KSKS matrix filling: 100.00% 
================================================================================

Sparse matrix initialisation ... done

Generating smeared ion density ... done
Smeared ion self correction:     -14538.952731
Smeared ion non-self correction: -835862.639272
NGWF initialisation ...... done
============ Calculation of NGWF S^-1 using Hotelling algorithm ================ 
         Iteration  |  Frobenius norm and Maximum abs value    (of I-S*S_n^-1)   
               1       0.78706370E+02     0.98243021E+00
               2       0.76843879E+02     0.96533849E+00
               3       0.73830452E+02     0.93248380E+00
               4       0.69551181E+02     0.87149415E+00
               5       0.64225174E+02     0.76783744E+00
               6       0.58244252E+02     0.70255028E+00
               7       0.52234894E+02     0.67364193E+00
               8       0.46678702E+02     0.64800127E+00
               9       0.40595789E+02     0.60838465E+00
              10       0.32305228E+02     0.54170930E+00
              11       0.21705313E+02     0.43646662E+00
              12       0.11086570E+02     0.28949694E+00
              13       0.36561335E+01     0.13352400E+00
              14       0.58236973E+00     0.31703328E-01
              15       0.28751442E-01     0.29675412E-02
              16       0.17289277E-03     0.30397116E-04
              17       0.12895355E-07     0.32563479E-08
              18       0.95168167E-13     0.62172489E-14
================================================================================
Calculating local pseudopotential in open BC on the fine real space grid ...
... done

MG BCs: +ve charge blocks (gridpoints):     19937 (   15592632).
MG BCs: -ve charge blocks (gridpoints):      7894 (    1061866).
MG BCs:     Elided blocks (gridpoints):    177183 (  174122207).
MG BCs: Computational effort saved:  99.9854%.
MG BCs: Charge after coarse-graining:           -9.0002217.
MG DL_MG: Calling solver with defect correction order = 8
MG DL_MG: Solver finished
MG Hartree energy from (\int phi*rho dr):              1471.507758
MG Hartree energy from (\int eps (grad phi)^2 dr):     1470.883109
MG Discrepancy due to finite box and discretization:     -0.624649 (  -0.04245%)
MG Correction to account for finite box:                  0.464178
MG Remaining discrepancy, due to discretization:         -0.160471 (  -0.01091%)
Up spin density kernel initialisation ... 
======= Optimisation of K by Palser-Manolopoulos canonical purification ======== 
         Iteration  |  Band structure energy |    c_n   
               1       -2594.43591092615270    0.5268839
               2       -2771.36769551798170    0.5170242
               3       -2952.71299994791843    0.5152890
               4       -3104.12495874611432    0.5286265
               5       -3197.24456174627176    0.5642225
               6       -3236.20185812557065    0.6092365
               7       -3249.42174035273683    0.6218566
               8       -3255.13135752851076    0.6219022
               9       -3257.89414175991260    0.6395250
              10       -3259.03390678348114    0.6669404
              11       -3259.48308579765808    0.6869498
              12       -3259.68304790776801    0.7018160
              13       -3259.77976910154939    0.6860974
              14       -3259.83673062434082    0.6347995
              15       -3259.87556222525927    0.5757390
              16       -3259.89723683921147    0.5132011
              17       -3259.90558774223609    0.4585066
              18       -3259.90715221436676    0.4194614
              19       -3259.90776559682718    0.4064627
              20       -3259.90805235854623    0.4385706
              21       -3259.90826065954116    0.4779353
              22       -3259.90842925911193    0.4971272
              23       -3259.90853271603919    0.4999521
              24       -3259.90856401533983    0.5000000
              25       -3259.90856619023998    0.5000002
              26       -3259.90856619969054    0.5000002
Termination criterion satisfied: band energy change below threshold.
Final occupancy bounds: [    0.00000000000001:    1.00000000000000]
Closest occupancy to 0.5:     0.99999999999999
================================================================================
... done

Writing density kernel to file "complex_5421.vacuum_dkn" ... done

>>> Optimising kernel for current NGWFs:
   Initial electron number for spin 1:    7234.00000000
     Final electron number for spin 1:    7234.00000000

=================== Penalty functional idempotency correction ==================
 RMS occupancy error at iteration   1:  0.000000 (step -0.5000 Ne1=   7234.0000)
            Final RMS occupancy error   :  0.000000 (Ne1=   7234.0000)
               Final occupancy bounds   : [  0.0000,  1.0000]
================================================================================

................................................................................
<<<<<<<<<<<<<< LNV (Original version) density kernel optimisation >>>>>>>>>>>>>>
~~~~~~~~~~~~~~~~~~~~~~~~~~~~~~~~~~~~~~~~~~~~~~~~~~~~~~~~~~~~~~~~~~~~~~~~~~~~~~~~
   iter  |      energy (Eh)       | rms gradient |  commutator  |   dE (Eh)
MG BCs: +ve charge blocks (gridpoints):     30389 (   16792373).
MG BCs: -ve charge blocks (gridpoints):      8230 (    1093868).
MG BCs:     Elided blocks (gridpoints):    166726 (  172890464).
MG BCs: Computational effort saved:  99.9798%.
MG BCs: Charge after coarse-graining:           -9.0009549.
MG DL_MG: Calling solver with defect correction order = 8
MG DL_MG: Solver finished
MG Hartree energy from (\int phi*rho dr):              1424.644120
MG Hartree energy from (\int eps (grad phi)^2 dr):     1423.971611
MG Discrepancy due to finite box and discretization:     -0.672509 (  -0.04721%)
MG Correction to account for finite box:                  0.467557
MG Remaining discrepancy, due to discretization:         -0.204952 (  -0.01439%)
      ideal mu1:      -0.713826449883
             Q0:  -11571.344551051385
             G0:    -140.533295417836
   RMS gradient:       0.001811533311
MG BCs: +ve charge blocks (gridpoints):     30424 (   16876751).
MG BCs: -ve charge blocks (gridpoints):      8128 (    1074555).
MG BCs:     Elided blocks (gridpoints):    166691 (  172825399).
MG BCs: Computational effort saved:  99.9798%.
MG BCs: Charge after coarse-graining:           -9.0009764.
MG DL_MG: Calling solver with defect correction order = 8
MG DL_MG: Solver finished
MG Hartree energy from (\int phi*rho dr):              1451.695427
MG Hartree energy from (\int eps (grad phi)^2 dr):     1451.039208
MG Discrepancy due to finite box and discretization:     -0.656219 (  -0.04520%)
MG Correction to account for finite box:                  0.467487
MG Remaining discrepancy, due to discretization:         -0.188732 (  -0.01300%)
     Trial step:       0.500000000000
             Q1:  -11582.149322138517
 Quadratic coef:      59.461876621786
 Linear coef   :     -70.266647708918
           Qmin:  -11592.103237375961
Quadratic minimum step length (  0.295427304439) accepted
    Initial Ne1:    7234.00000000
      Final Ne1:    7234.00000000

=================== Penalty functional idempotency correction ==================
 RMS occupancy error at iteration   1:  0.003247 (step -0.4891 Ne1=   7234.0000)
 RMS occupancy error at iteration   2:  0.000023 (step -0.5000 Ne1=   7234.0000)
            Final RMS occupancy error   :  0.000000 (Ne1=   7234.0000)
               Final occupancy bounds   : [  0.0000,  1.0000]
================================================================================

    1        -1.157134455105E+04     1.8115E-03     1.6387E-03
MG BCs: +ve charge blocks (gridpoints):     30421 (   16843609).
MG BCs: -ve charge blocks (gridpoints):      8173 (    1082866).
MG BCs:     Elided blocks (gridpoints):    166695 (  172850230).
MG BCs: Computational effort saved:  99.9798%.
MG BCs: Charge after coarse-graining:           -9.0009676.
MG DL_MG: Calling solver with defect correction order = 8
MG DL_MG: Solver finished
MG Hartree energy from (\int phi*rho dr):              1432.845475
MG Hartree energy from (\int eps (grad phi)^2 dr):     1432.183538
MG Discrepancy due to finite box and discretization:     -0.661937 (  -0.04620%)
MG Correction to account for finite box:                  0.467431
MG Remaining discrepancy, due to discretization:         -0.194505 (  -0.01357%)
      ideal mu1:      -0.755595455794
             Q0:  -11592.477105594007
             G0:     -11.370965157462
   RMS gradient:       0.000511969611
MG BCs: +ve charge blocks (gridpoints):     30426 (   16860703).
MG BCs: -ve charge blocks (gridpoints):      8140 (    1077876).
MG BCs:     Elided blocks (gridpoints):    166689 (  172838126).
MG BCs: Computational effort saved:  99.9798%.
MG BCs: Charge after coarse-graining:           -9.0009716.
MG DL_MG: Calling solver with defect correction order = 8
MG DL_MG: Solver finished
MG Hartree energy from (\int phi*rho dr):              1438.442154
MG Hartree energy from (\int eps (grad phi)^2 dr):     1437.783688
MG Discrepancy due to finite box and discretization:     -0.658465 (  -0.04578%)
MG Correction to account for finite box:                  0.467226
MG Remaining discrepancy, due to discretization:         -0.191239 (  -0.01329%)
     Trial step:       0.384335338239
             Q1:  -11595.138499675435
 Quadratic coef:       1.708869658469
 Linear coef   :      -4.370263739897
           Qmin:  -11595.271234020012
Quadratic minimum step length (  0.491449650458) accepted
    Initial Ne1:    7233.99993040
      Final Ne1:    7234.00000000

=================== Penalty functional idempotency correction ==================
 RMS occupancy error at iteration   1:  0.001676 (step -0.4937 Ne1=   7234.0000)
 RMS occupancy error at iteration   2:  0.000008 (step -0.5000 Ne1=   7234.0000)
            Final RMS occupancy error   :  0.000000 (Ne1=   7234.0000)
               Final occupancy bounds   : [  0.0000,  1.0000]
================================================================================

    2        -1.159247710559E+04     5.1197E-04     4.6314E-04    -2.1133E+01
MG BCs: +ve charge blocks (gridpoints):     30429 (   16865509).
MG BCs: -ve charge blocks (gridpoints):      8127 (    1076486).
MG BCs:     Elided blocks (gridpoints):    166686 (  172834710).
MG BCs: Computational effort saved:  99.9798%.
MG BCs: Charge after coarse-graining:           -9.0009727.
MG DL_MG: Calling solver with defect correction order = 8
MG DL_MG: Solver finished
MG Hartree energy from (\int phi*rho dr):              1440.042031
MG Hartree energy from (\int eps (grad phi)^2 dr):     1439.384467
MG Discrepancy due to finite box and discretization:     -0.657564 (  -0.04566%)
MG Correction to account for finite box:                  0.467176
MG Remaining discrepancy, due to discretization:         -0.190388 (  -0.01322%)
      ideal mu1:      -0.778223483183
             Q0:  -11595.303384197410
             G0:      -1.791606548012
   RMS gradient:       0.000203352799
MG BCs: +ve charge blocks (gridpoints):     30433 (   16865033).
MG BCs: -ve charge blocks (gridpoints):      8138 (    1077425).
MG BCs:     Elided blocks (gridpoints):    166682 (  172834247).
MG BCs: Computational effort saved:  99.9798%.
MG BCs: Charge after coarse-graining:           -9.0009724.
MG DL_MG: Calling solver with defect correction order = 8
MG DL_MG: Solver finished
MG Hartree energy from (\int phi*rho dr):              1437.869219
MG Hartree energy from (\int eps (grad phi)^2 dr):     1437.211961
MG Discrepancy due to finite box and discretization:     -0.657257 (  -0.04571%)
MG Correction to account for finite box:                  0.467079
MG Remaining discrepancy, due to discretization:         -0.190178 (  -0.01323%)
     Trial step:       0.434604955835
             Q1:  -11595.752304073889
 Quadratic coef:       0.329721208194
 Linear coef   :      -0.778641084672
           Qmin:  -11595.763077055855
Quadratic minimum step length (  0.513162735374) accepted
    Initial Ne1:    7233.99997429
      Final Ne1:    7234.00000000

=================== Penalty functional idempotency correction ==================
 RMS occupancy error at iteration   1:  0.000559 (step -0.4978 Ne1=   7234.0000)
 RMS occupancy error at iteration   2:  0.000001 (step -0.5000 Ne1=   7234.0000)
            Final RMS occupancy error   :  0.000000 (Ne1=   7234.0000)
               Final occupancy bounds   : [  0.0000,  1.0000]
================================================================================

    3        -1.159530338420E+04     2.0335E-04     1.8396E-04    -2.8263E+00
MG BCs: +ve charge blocks (gridpoints):     30433 (   16865017).
MG BCs: -ve charge blocks (gridpoints):      8140 (    1077606).
MG BCs:     Elided blocks (gridpoints):    166682 (  172834082).
MG BCs: Computational effort saved:  99.9798%.
MG BCs: Charge after coarse-graining:           -9.0009722.
MG DL_MG: Calling solver with defect correction order = 8
MG DL_MG: Solver finished
MG Hartree energy from (\int phi*rho dr):              1437.484385
MG Hartree energy from (\int eps (grad phi)^2 dr):     1436.827174
MG Discrepancy due to finite box and discretization:     -0.657211 (  -0.04572%)
MG Correction to account for finite box:                  0.467063
MG Remaining discrepancy, due to discretization:         -0.190148 (  -0.01323%)
      ideal mu1:      -0.779280758975
             Q0:  -11595.767051361967
             G0:      -0.416724250494
   RMS gradient:       0.000098179470
MG BCs: +ve charge blocks (gridpoints):     30432 (   16865773).
MG BCs: -ve charge blocks (gridpoints):      8140 (    1077370).
MG BCs:     Elided blocks (gridpoints):    166683 (  172833562).
MG BCs: Computational effort saved:  99.9798%.
MG BCs: Charge after coarse-graining:           -9.0009724.
MG DL_MG: Calling solver with defect correction order = 8
MG DL_MG: Solver finished
MG Hartree energy from (\int phi*rho dr):              1438.640720
MG Hartree energy from (\int eps (grad phi)^2 dr):     1437.983454
MG Discrepancy due to finite box and discretization:     -0.657266 (  -0.04569%)
MG Correction to account for finite box:                  0.466992
MG Remaining discrepancy, due to discretization:         -0.190274 (  -0.01323%)
     Trial step:       0.472253182036
             Q1:  -11595.862388149370
 Quadratic coef:       0.101462565925
 Linear coef   :      -0.196799353327
           Qmin:  -11595.862480609978
Quadratic minimum step length (  0.457997094715) accepted
    Initial Ne1:    7233.99999455
      Final Ne1:    7234.00000000

=================== Penalty functional idempotency correction ==================
 RMS occupancy error at iteration   1:  0.000179 (step -0.4993 Ne1=   7234.0000)
            Final RMS occupancy error   :  0.000000 (Ne1=   7234.0000)
               Final occupancy bounds   : [ -0.0000,  1.0000]
================================================================================

    4        -1.159576705136E+04     9.8179E-05     8.8815E-05    -4.6367E-01
MG BCs: +ve charge blocks (gridpoints):     30433 (   16865760).
MG BCs: -ve charge blocks (gridpoints):      8140 (    1077378).
MG BCs:     Elided blocks (gridpoints):    166682 (  172833567).
MG BCs: Computational effort saved:  99.9798%.
MG BCs: Charge after coarse-graining:           -9.0009724.
MG DL_MG: Calling solver with defect correction order = 8
MG DL_MG: Solver finished
MG Hartree energy from (\int phi*rho dr):              1438.605798
MG Hartree energy from (\int eps (grad phi)^2 dr):     1437.948534
MG Discrepancy due to finite box and discretization:     -0.657264 (  -0.04569%)
MG Correction to account for finite box:                  0.466994
MG Remaining discrepancy, due to discretization:         -0.190270 (  -0.01323%)
      ideal mu1:      -0.779438886033
             Q0:  -11595.862871178193
             G0:      -0.101036771995
   RMS gradient:       0.000048477034
MG BCs: +ve charge blocks (gridpoints):     30430 (   16865798).
MG BCs: -ve charge blocks (gridpoints):      8139 (    1077264).
MG BCs:     Elided blocks (gridpoints):    166685 (  172833643).
MG BCs: Computational effort saved:  99.9798%.
MG BCs: Charge after coarse-graining:           -9.0009724.
MG DL_MG: Calling solver with defect correction order = 8
MG DL_MG: Solver finished
MG Hartree energy from (\int phi*rho dr):              1438.959814
MG Hartree energy from (\int eps (grad phi)^2 dr):     1438.302427
MG Discrepancy due to finite box and discretization:     -0.657387 (  -0.04568%)
MG Correction to account for finite box:                  0.466982
MG Remaining discrepancy, due to discretization:         -0.190405 (  -0.01323%)
     Trial step:       0.465070516527
             Q1:  -11595.887677129474
 Quadratic coef:       0.022183272458
 Linear coef   :      -0.046989223740
           Qmin:  -11595.887754647842
Quadratic minimum step length (  0.492562641446) accepted
    Initial Ne1:    7234.00152177
      Final Ne1:    7234.00000000

=================== Penalty functional idempotency correction ==================
 RMS occupancy error at iteration   1:  0.000063 (step -0.4997 Ne1=   7234.0000)
            Final RMS occupancy error   :  0.000000 (Ne1=   7234.0000)
               Final occupancy bounds   : [ -0.0000,  1.0000]
================================================================================

    5        -1.159586287118E+04     4.8477E-05     4.3853E-05    -9.5820E-02
MG BCs: +ve charge blocks (gridpoints):     30429 (   16865793).
MG BCs: -ve charge blocks (gridpoints):      8139 (    1077255).
MG BCs:     Elided blocks (gridpoints):    166686 (  172833657).
MG BCs: Computational effort saved:  99.9798%.
MG BCs: Charge after coarse-graining:           -9.0009724.
MG DL_MG: Calling solver with defect correction order = 8
MG DL_MG: Solver finished
MG Hartree energy from (\int phi*rho dr):              1438.980786
MG Hartree energy from (\int eps (grad phi)^2 dr):     1438.323392
MG Discrepancy due to finite box and discretization:     -0.657394 (  -0.04568%)
MG Correction to account for finite box:                  0.466982
MG Remaining discrepancy, due to discretization:         -0.190413 (  -0.01323%)
      ideal mu1:      -0.779353440186
             Q0:  -11595.887800171738
             G0:      -0.030103473230
   RMS gradient:       0.000026482288
MG BCs: +ve charge blocks (gridpoints):     30432 (   16865494).
MG BCs: -ve charge blocks (gridpoints):      8139 (    1077452).
MG BCs:     Elided blocks (gridpoints):    166683 (  172833759).
MG BCs: Computational effort saved:  99.9798%.
MG BCs: Charge after coarse-graining:           -9.0009723.
MG DL_MG: Calling solver with defect correction order = 8
MG DL_MG: Solver finished
MG Hartree energy from (\int phi*rho dr):              1438.376762
MG Hartree energy from (\int eps (grad phi)^2 dr):     1437.719379
MG Discrepancy due to finite box and discretization:     -0.657383 (  -0.04570%)
MG Correction to account for finite box:                  0.466983
MG Remaining discrepancy, due to discretization:         -0.190401 (  -0.01324%)
     Trial step:       0.478619224519
             Q1:  -11595.897259650752
 Quadratic coef:       0.004948622000
 Linear coef   :      -0.014408101013
           Qmin:  -11595.898287605150
Quadratic minimum step length (  0.696759030506) accepted
    Initial Ne1:    7234.00095125
      Final Ne1:    7234.00000000

=================== Penalty functional idempotency correction ==================
 RMS occupancy error at iteration   1:  0.000039 (step -0.4998 Ne1=   7234.0000)
            Final RMS occupancy error   :  0.000000 (Ne1=   7234.0000)
               Final occupancy bounds   : [ -0.0000,  1.0000]
================================================================================

    6        -1.159588780017E+04     2.6482E-05     2.3956E-05    -2.4929E-02
MG BCs: +ve charge blocks (gridpoints):     30431 (   16865334).
MG BCs: -ve charge blocks (gridpoints):      8140 (    1077548).
MG BCs:     Elided blocks (gridpoints):    166684 (  172833823).
MG BCs: Computational effort saved:  99.9798%.
MG BCs: Charge after coarse-graining:           -9.0009722.
MG DL_MG: Calling solver with defect correction order = 8
MG DL_MG: Solver finished
MG Hartree energy from (\int phi*rho dr):              1438.100767
MG Hartree energy from (\int eps (grad phi)^2 dr):     1437.443389
MG Discrepancy due to finite box and discretization:     -0.657378 (  -0.04571%)
MG Correction to account for finite box:                  0.466983
MG Remaining discrepancy, due to discretization:         -0.190395 (  -0.01324%)
      ideal mu1:      -0.779163213473
             Q0:  -11595.898296554107
             G0:      -0.015658876627
   RMS gradient:       0.000019122163
MG BCs: +ve charge blocks (gridpoints):     30431 (   16865789).
MG BCs: -ve charge blocks (gridpoints):      8139 (    1077303).
MG BCs:     Elided blocks (gridpoints):    166684 (  172833613).
MG BCs: Computational effort saved:  99.9798%.
MG BCs: Charge after coarse-graining:           -9.0009724.
MG DL_MG: Calling solver with defect correction order = 8
MG DL_MG: Solver finished
MG Hartree energy from (\int phi*rho dr):              1438.700082
MG Hartree energy from (\int eps (grad phi)^2 dr):     1438.042730
MG Discrepancy due to finite box and discretization:     -0.657352 (  -0.04569%)
MG Correction to account for finite box:                  0.466976
MG Remaining discrepancy, due to discretization:         -0.190377 (  -0.01323%)
     Trial step:       0.577479235001
             Q1:  -11595.902357203886
 Quadratic coef:       0.004982026318
 Linear coef   :      -0.009042676096
           Qmin:  -11595.902399803757
Quadratic minimum step length (  0.524079695820) accepted
    Initial Ne1:    7234.00016847
      Final Ne1:    7234.00000000

=================== Penalty functional idempotency correction ==================
 RMS occupancy error at iteration   1:  0.000002 (step -0.5000 Ne1=   7234.0000)
            Final RMS occupancy error   :  0.000000 (Ne1=   7234.0000)
               Final occupancy bounds   : [  0.0000,  1.0000]
================================================================================

    7        -1.159589829655E+04     1.9122E-05     1.7298E-05    -1.0496E-02
MG BCs: +ve charge blocks (gridpoints):     30431 (   16865751).
MG BCs: -ve charge blocks (gridpoints):      8139 (    1077324).
MG BCs:     Elided blocks (gridpoints):    166684 (  172833630).
MG BCs: Computational effort saved:  99.9798%.
MG BCs: Charge after coarse-graining:           -9.0009723.
MG DL_MG: Calling solver with defect correction order = 8
MG DL_MG: Solver finished
MG Hartree energy from (\int phi*rho dr):              1438.644587
MG Hartree energy from (\int eps (grad phi)^2 dr):     1437.987232
MG Discrepancy due to finite box and discretization:     -0.657355 (  -0.04569%)
MG Correction to account for finite box:                  0.466976
MG Remaining discrepancy, due to discretization:         -0.190378 (  -0.01323%)
      ideal mu1:      -0.779471065726
             Q0:  -11595.902399942512
             G0:      -0.009355458651
   RMS gradient:       0.000014781179
MG BCs: +ve charge blocks (gridpoints):     30432 (   16865850).
MG BCs: -ve charge blocks (gridpoints):      8139 (    1077260).
MG BCs:     Elided blocks (gridpoints):    166683 (  172833595).
MG BCs: Computational effort saved:  99.9798%.
MG BCs: Charge after coarse-graining:           -9.0009724.
MG DL_MG: Calling solver with defect correction order = 8
MG DL_MG: Solver finished
MG Hartree energy from (\int phi*rho dr):              1438.693870
MG Hartree energy from (\int eps (grad phi)^2 dr):     1438.036555
MG Discrepancy due to finite box and discretization:     -0.657315 (  -0.04569%)
MG Correction to account for finite box:                  0.466968
MG Remaining discrepancy, due to discretization:         -0.190348 (  -0.01323%)
     Trial step:       0.550131931287
             Q1:  -11595.906223671976
 Quadratic coef:       0.001323007071
 Linear coef   :      -0.005146736536
           Qmin:  -11595.907405376260
Quadratic minimum step length (  1.070056303054) accepted
    Initial Ne1:    7234.00020426
      Final Ne1:    7234.00000000

=================== Penalty functional idempotency correction ==================
 RMS occupancy error at iteration   1:  0.000027 (step -0.4993 Ne1=   7234.0000)
            Final RMS occupancy error   :  0.000000 (Ne1=   7234.0000)
               Final occupancy bounds   : [ -0.0000,  1.0000]
================================================================================

    8        -1.159590239994E+04     1.4781E-05     1.3371E-05    -4.1034E-03
MG BCs: +ve charge blocks (gridpoints):     30431 (   16865892).
MG BCs: -ve charge blocks (gridpoints):      8138 (    1077240).
MG BCs:     Elided blocks (gridpoints):    166684 (  172833573).
MG BCs: Computational effort saved:  99.9798%.
MG BCs: Charge after coarse-graining:           -9.0009724.
MG DL_MG: Calling solver with defect correction order = 8
MG DL_MG: Solver finished
MG Hartree energy from (\int phi*rho dr):              1438.738565
MG Hartree energy from (\int eps (grad phi)^2 dr):     1438.081287
MG Discrepancy due to finite box and discretization:     -0.657278 (  -0.04568%)
MG Correction to account for finite box:                  0.466959
MG Remaining discrepancy, due to discretization:         -0.190318 (  -0.01323%)
      ideal mu1:      -0.779581959951
             Q0:  -11595.907391840592
             G0:      -0.014554123503
   RMS gradient:       0.000018483600
MG BCs: +ve charge blocks (gridpoints):     30432 (   16865816).
MG BCs: -ve charge blocks (gridpoints):      8139 (    1077407).
MG BCs:     Elided blocks (gridpoints):    166683 (  172833482).
MG BCs: Computational effort saved:  99.9798%.
MG BCs: Charge after coarse-graining:           -9.0009723.
MG DL_MG: Calling solver with defect correction order = 8
MG DL_MG: Solver finished
MG Hartree energy from (\int phi*rho dr):              1438.400455
MG Hartree energy from (\int eps (grad phi)^2 dr):     1437.743246
MG Discrepancy due to finite box and discretization:     -0.657209 (  -0.04569%)
MG Correction to account for finite box:                  0.466947
MG Remaining discrepancy, due to discretization:         -0.190262 (  -0.01323%)
     Trial step:       0.767249725047
             Q1:  -11595.914507251466
 Quadratic coef:       0.004051236383
 Linear coef   :      -0.011166647256
           Qmin:  -11595.915086652691
Quadratic minimum step length (  1.057406459018) accepted
    Initial Ne1:    7234.00058337
      Final Ne1:    7234.00000000

=================== Penalty functional idempotency correction ==================
 RMS occupancy error at iteration   1:  0.000173 (step -0.4948 Ne1=   7234.0000)
 RMS occupancy error at iteration   2:  0.000001 (step -0.5000 Ne1=   7234.0000)
            Final RMS occupancy error   :  0.000000 (Ne1=   7234.0000)
               Final occupancy bounds   : [  0.0000,  1.0000]
================================================================================

    9        -1.159590739184E+04     1.8484E-05     1.6721E-05    -4.9919E-03
MG BCs: +ve charge blocks (gridpoints):     30432 (   16865778).
MG BCs: -ve charge blocks (gridpoints):      8139 (    1077470).
MG BCs:     Elided blocks (gridpoints):    166683 (  172833457).
MG BCs: Computational effort saved:  99.9798%.
MG BCs: Charge after coarse-graining:           -9.0009723.
MG DL_MG: Calling solver with defect correction order = 8
MG DL_MG: Solver finished
MG Hartree energy from (\int phi*rho dr):              1438.268260
MG Hartree energy from (\int eps (grad phi)^2 dr):     1437.611079
MG Discrepancy due to finite box and discretization:     -0.657181 (  -0.04569%)
MG Correction to account for finite box:                  0.466942
MG Remaining discrepancy, due to discretization:         -0.190239 (  -0.01323%)
      ideal mu1:      -0.779152460959
   10        -1.159591499385E+04     2.2070E-05     1.9965E-05    -7.6020E-03
Finished density kernel iterations (  10)

Writing density kernel to file "complex_5421.vacuum_dkn" ... done


>>> Density kernel optimised for the current NGWF basis:
     ~~~~~~~~~~~~~~~~~~~~~~~~~~~~~~~~~~~~~~~~~~~~~~~~~~~~~~~~~~~
     Total energy                =  -1.15959149938542E+04  Eh
     Estimated bandgap           =  -2.4984E-01  Eh
     RMS occupancy error         =   4.6577E-11
     [H,K] commutator            =   1.9965E-05
     Occupancy bounds            = [  0.000:  1.000]
     ~~~~~~~~~~~~~~~~~~~~~~~~~~~~~~~~~~~~~~~~~~~~~~~~~~~~~~~~~~~




################################################################################
########################### NGWF CG iteration  001 #############################
################################################################################
****** Reciprocal space K.E. preconditioning with k_zero =  3.5000 a0^-1 *******

>>> Checking for convergence of NGWFs:   NOT CONVERGED
  ========================================================================
         NGWF RMS gradient =  1.6323E-03 >  2.0000E-06  | above tolerance
  ========================================================================

>>> Improving NGWFs using line search:
============ Calculation of NGWF S^-1 using Hotelling algorithm ================ 
         Iteration  |  Frobenius norm and Maximum abs value    (of I-S*S_n^-1)   
               1       0.20328090E+00     0.55140801E-02
               2       0.96347581E-03     0.43743995E-04
               3       0.37505040E-07     0.27587443E-08
               4       0.13275384E-12     0.59952043E-14
================================================================================
MG BCs: +ve charge blocks (gridpoints):     29892 (   16806625).
MG BCs: -ve charge blocks (gridpoints):      8149 (    1077389).
MG BCs:     Elided blocks (gridpoints):    167226 (  172892691).
MG BCs: Computational effort saved:  99.9801%.
MG BCs: Charge after coarse-graining:           -9.0009749.
MG DL_MG: Calling solver with defect correction order = 8
MG DL_MG: Solver finished
MG Hartree energy from (\int phi*rho dr):              1405.769256
MG Hartree energy from (\int eps (grad phi)^2 dr):     1405.112917
MG Discrepancy due to finite box and discretization:     -0.656338 (  -0.04669%)
MG Correction to account for finite box:                  0.466918
MG Remaining discrepancy, due to discretization:         -0.189420 (  -0.01347%)
============ Calculation of NGWF S^-1 using Hotelling algorithm ================ 
         Iteration  |  Frobenius norm and Maximum abs value    (of I-S*S_n^-1)   
               1       0.18329216E+01     0.43048170E-01
               2       0.69840734E-01     0.23679666E-02
               3       0.13916652E-03     0.77641611E-05
               4       0.10036254E-08     0.91051611E-10
               5       0.11508129E-12     0.57731597E-14
================================================================================
------------------------------- NGWF line search -------------------------------
RMS gradient                =       0.00163229553878
Trial step length           =               0.122474
Gradient along search dir.  =       -285.29317961448
Functional at step 0        =  -11595.91499385423958
Functional at step 1        =  -11628.11222577875014
Functional predicted        =  -11707.15093767708277
Selected quadratic step     =               0.779801
--------------------------- NGWF line search finished --------------------------
                                               
Writing NGWFs to file "complex_5421.vacuum_tightbox_ngwfs"....  done

>>> Optimising kernel for current NGWFs:
   Initial electron number for spin 1:    7268.62146500
     Final electron number for spin 1:    7234.00000000

=================== Penalty functional idempotency correction ==================
 RMS occupancy error at iteration   1:  0.004344 (step -0.4851 Ne1=   7234.0000)
 RMS occupancy error at iteration   2:  0.000077 (step -0.5003 Ne1=   7234.0000)
            Final RMS occupancy error   :  0.000000 (Ne1=   7234.0000)
               Final occupancy bounds   : [  0.0000,  1.0000]
================================================================================

................................................................................
<<<<<<<<<<<<<< LNV (Original version) density kernel optimisation >>>>>>>>>>>>>>
~~~~~~~~~~~~~~~~~~~~~~~~~~~~~~~~~~~~~~~~~~~~~~~~~~~~~~~~~~~~~~~~~~~~~~~~~~~~~~~~
   iter  |      energy (Eh)       | rms gradient |  commutator  |   dE (Eh)
MG BCs: +ve charge blocks (gridpoints):     24351 (   16490088).
MG BCs: -ve charge blocks (gridpoints):      8287 (    1061016).
MG BCs:     Elided blocks (gridpoints):    172769 (  173225601).
MG BCs: Computational effort saved:  99.9829%.
MG BCs: Charge after coarse-graining:           -9.0006817.
MG DL_MG: Calling solver with defect correction order = 8
MG DL_MG: Solver finished
MG Hartree energy from (\int phi*rho dr):              1253.125136
MG Hartree energy from (\int eps (grad phi)^2 dr):     1252.468245
MG Discrepancy due to finite box and discretization:     -0.656890 (  -0.05242%)
MG Correction to account for finite box:                  0.466829
MG Remaining discrepancy, due to discretization:         -0.190061 (  -0.01517%)
      ideal mu1:      -0.719163545329
             Q0:  -11706.379386860528
             G0:      -9.676654297449
   RMS gradient:       0.000475356375
MG BCs: +ve charge blocks (gridpoints):     24426 (   16507003).
MG BCs: -ve charge blocks (gridpoints):      8271 (    1056831).
MG BCs:     Elided blocks (gridpoints):    172694 (  173212871).
MG BCs: Computational effort saved:  99.9829%.
MG BCs: Charge after coarse-graining:           -9.0006765.
MG DL_MG: Calling solver with defect correction order = 8
MG DL_MG: Solver finished
MG Hartree energy from (\int phi*rho dr):              1273.169947
MG Hartree energy from (\int eps (grad phi)^2 dr):     1272.505876
MG Discrepancy due to finite box and discretization:     -0.664071 (  -0.05216%)
MG Correction to account for finite box:                  0.466336
MG Remaining discrepancy, due to discretization:         -0.197735 (  -0.01553%)
     Trial step:       0.900719054392
             Q1:  -11703.208266018424
 Quadratic coef:      11.887067750582
 Linear coef   :      -8.715946908477
           Qmin:  -11707.977083872638
Quadratic minimum step length (  0.330216821434) accepted
    Initial Ne1:    7233.99946691
      Final Ne1:    7234.00000000

=================== Penalty functional idempotency correction ==================
 RMS occupancy error at iteration   1:  0.000349 (step -0.4986 Ne1=   7234.0000)
 RMS occupancy error at iteration   2:  0.000000 (step -0.5000 Ne1=   7234.0000)
            Final RMS occupancy error   :  0.000000 (Ne1=   7234.0000)
               Final occupancy bounds   : [  0.0000,  1.0000]
================================================================================

    1        -1.170637938686E+04     4.7536E-04     4.3002E-04
MG BCs: +ve charge blocks (gridpoints):     24378 (   16496312).
MG BCs: -ve charge blocks (gridpoints):      8286 (    1059526).
MG BCs:     Elided blocks (gridpoints):    172742 (  173220867).
MG BCs: Computational effort saved:  99.9829%.
MG BCs: Charge after coarse-graining:           -9.0006798.
MG DL_MG: Calling solver with defect correction order = 8
MG DL_MG: Solver finished
MG Hartree energy from (\int phi*rho dr):              1259.116091
MG Hartree energy from (\int eps (grad phi)^2 dr):     1258.456710
MG Discrepancy due to finite box and discretization:     -0.659381 (  -0.05237%)
MG Correction to account for finite box:                  0.466622
MG Remaining discrepancy, due to discretization:         -0.192759 (  -0.01531%)
      ideal mu1:      -0.725351371759
             Q0:  -11707.939835083787
             G0:      -0.970238705479
   RMS gradient:       0.000151791029
MG BCs: +ve charge blocks (gridpoints):     24383 (   16496003).
MG BCs: -ve charge blocks (gridpoints):      8289 (    1060435).
MG BCs:     Elided blocks (gridpoints):    172737 (  173220267).
MG BCs: Computational effort saved:  99.9829%.
MG BCs: Charge after coarse-graining:           -9.0006797.
MG DL_MG: Calling solver with defect correction order = 8
MG DL_MG: Solver finished
MG Hartree energy from (\int phi*rho dr):              1260.299705
MG Hartree energy from (\int eps (grad phi)^2 dr):     1259.639932
MG Discrepancy due to finite box and discretization:     -0.659773 (  -0.05235%)
MG Correction to account for finite box:                  0.466594
MG Remaining discrepancy, due to discretization:         -0.193179 (  -0.01533%)
     Trial step:       0.545373801302
             Q1:  -11708.128148084856
 Quadratic coef:       0.340829769908
 Linear coef   :      -0.529142770977
           Qmin:  -11708.145210388997
Quadratic minimum step length (  0.423350056125) accepted
    Initial Ne1:    7233.99993030
      Final Ne1:    7234.00000000

=================== Penalty functional idempotency correction ==================
 RMS occupancy error at iteration   1:  0.000139 (step -0.4994 Ne1=   7234.0000)
            Final RMS occupancy error   :  0.000000 (Ne1=   7234.0000)
               Final occupancy bounds   : [ -0.0000,  1.0000]
================================================================================

    2        -1.170793983508E+04     1.5179E-04     1.3731E-04    -1.5604E+00
MG BCs: +ve charge blocks (gridpoints):     24381 (   16496095).
MG BCs: -ve charge blocks (gridpoints):      8288 (    1060216).
MG BCs:     Elided blocks (gridpoints):    172739 (  173220394).
MG BCs: Computational effort saved:  99.9829%.
MG BCs: Charge after coarse-graining:           -9.0006797.
MG DL_MG: Calling solver with defect correction order = 8
MG DL_MG: Solver finished
MG Hartree energy from (\int phi*rho dr):              1260.034335
MG Hartree energy from (\int eps (grad phi)^2 dr):     1259.374653
MG Discrepancy due to finite box and discretization:     -0.659682 (  -0.05235%)
MG Correction to account for finite box:                  0.466600
MG Remaining discrepancy, due to discretization:         -0.193082 (  -0.01532%)
      ideal mu1:      -0.726228089230
             Q0:  -11708.145680225221
             G0:      -0.144484571499
   RMS gradient:       0.000058019853
MG BCs: +ve charge blocks (gridpoints):     24379 (   16495442).
MG BCs: -ve charge blocks (gridpoints):      8294 (    1060632).
MG BCs:     Elided blocks (gridpoints):    172741 (  173220631).
MG BCs: Computational effort saved:  99.9829%.
MG BCs: Charge after coarse-graining:           -9.0006797.
MG DL_MG: Calling solver with defect correction order = 8
MG DL_MG: Solver finished
MG Hartree energy from (\int phi*rho dr):              1259.559572
MG Hartree energy from (\int eps (grad phi)^2 dr):     1258.899936
MG Discrepancy due to finite box and discretization:     -0.659636 (  -0.05237%)
MG Correction to account for finite box:                  0.466579
MG Remaining discrepancy, due to discretization:         -0.193057 (  -0.01533%)
     Trial step:       0.480503932752
             Q1:  -11708.189704775694
 Quadratic coef:       0.025400854354
 Linear coef   :      -0.069425404827
           Qmin:  -11708.193118460647
Quadratic minimum step length (  0.656654685451) accepted
    Initial Ne1:    7234.00057429
      Final Ne1:    7234.00000000

=================== Penalty functional idempotency correction ==================
 RMS occupancy error at iteration   1:  0.000060 (step -0.4998 Ne1=   7234.0000)
            Final RMS occupancy error   :  0.000000 (Ne1=   7234.0000)
               Final occupancy bounds   : [ -0.0000,  1.0000]
================================================================================

    3        -1.170814568023E+04     5.8020E-05     5.2486E-05    -2.0585E-01
MG BCs: +ve charge blocks (gridpoints):     24381 (   16495135).
MG BCs: -ve charge blocks (gridpoints):      8298 (    1060815).
MG BCs:     Elided blocks (gridpoints):    172739 (  173220755).
MG BCs: Computational effort saved:  99.9829%.
MG BCs: Charge after coarse-graining:           -9.0006797.
MG DL_MG: Calling solver with defect correction order = 8
MG DL_MG: Solver finished
MG Hartree energy from (\int phi*rho dr):              1259.385598
MG Hartree energy from (\int eps (grad phi)^2 dr):     1258.725978
MG Discrepancy due to finite box and discretization:     -0.659620 (  -0.05238%)
MG Correction to account for finite box:                  0.466572
MG Remaining discrepancy, due to discretization:         -0.193048 (  -0.01533%)
      ideal mu1:      -0.725302176297
             Q0:  -11708.193201150862
             G0:      -0.035053929377
   RMS gradient:       0.000028570826
MG BCs: +ve charge blocks (gridpoints):     24379 (   16495023).
MG BCs: -ve charge blocks (gridpoints):      8296 (    1060791).
MG BCs:     Elided blocks (gridpoints):    172741 (  173220891).
MG BCs: Computational effort saved:  99.9829%.
MG BCs: Charge after coarse-graining:           -9.0006797.
MG DL_MG: Calling solver with defect correction order = 8
MG DL_MG: Solver finished
MG Hartree energy from (\int phi*rho dr):              1259.402039
MG Hartree energy from (\int eps (grad phi)^2 dr):     1258.742520
MG Discrepancy due to finite box and discretization:     -0.659518 (  -0.05237%)
MG Correction to account for finite box:                  0.466577
MG Remaining discrepancy, due to discretization:         -0.192942 (  -0.01532%)
     Trial step:       0.561716261843
             Q1:  -11708.201920596766
 Quadratic coef:       0.010970916268
 Linear coef   :      -0.019690362172
           Qmin:  -11708.202036109424
Quadratic minimum step length (  0.504078071676) accepted
    Initial Ne1:    7234.00021340
      Final Ne1:    7234.00000000

=================== Penalty functional idempotency correction ==================
 RMS occupancy error at iteration   1:  0.000018 (step -0.4999 Ne1=   7234.0000)
            Final RMS occupancy error   :  0.000000 (Ne1=   7234.0000)
               Final occupancy bounds   : [ -0.0000,  1.0000]
================================================================================

    4        -1.170819320115E+04     2.8571E-05     2.5846E-05    -4.7521E-02
MG BCs: +ve charge blocks (gridpoints):     24379 (   16495030).
MG BCs: -ve charge blocks (gridpoints):      8296 (    1060793).
MG BCs:     Elided blocks (gridpoints):    172741 (  173220882).
MG BCs: Computational effort saved:  99.9829%.
MG BCs: Charge after coarse-graining:           -9.0006797.
MG DL_MG: Calling solver with defect correction order = 8
MG DL_MG: Solver finished
MG Hartree energy from (\int phi*rho dr):              1259.400178
MG Hartree energy from (\int eps (grad phi)^2 dr):     1258.740650
MG Discrepancy due to finite box and discretization:     -0.659529 (  -0.05237%)
MG Correction to account for finite box:                  0.466576
MG Remaining discrepancy, due to discretization:         -0.192953 (  -0.01532%)
      ideal mu1:      -0.725349262706
             Q0:  -11708.202040864504
             G0:      -0.011637490272
   RMS gradient:       0.000016481579
MG BCs: +ve charge blocks (gridpoints):     24379 (   16495544).
MG BCs: -ve charge blocks (gridpoints):      8295 (    1060603).
MG BCs:     Elided blocks (gridpoints):    172741 (  173220558).
MG BCs: Computational effort saved:  99.9829%.
MG BCs: Charge after coarse-graining:           -9.0006796.
MG DL_MG: Calling solver with defect correction order = 8
MG DL_MG: Solver finished
MG Hartree energy from (\int phi*rho dr):              1259.794676
MG Hartree energy from (\int eps (grad phi)^2 dr):     1259.135185
MG Discrepancy due to finite box and discretization:     -0.659491 (  -0.05235%)
MG Correction to account for finite box:                  0.466572
MG Remaining discrepancy, due to discretization:         -0.192919 (  -0.01531%)
     Trial step:       0.532117327381
             Q1:  -11708.205323139788
 Quadratic coef:       0.002910234936
 Linear coef   :      -0.006192510221
           Qmin:  -11708.205335030067
Quadratic minimum step length (  0.566129893398) accepted
    Initial Ne1:    7234.00009247
      Final Ne1:    7234.00000000

=================== Penalty functional idempotency correction ==================
 RMS occupancy error at iteration   1:  0.000010 (step -0.5000 Ne1=   7234.0000)
            Final RMS occupancy error   :  0.000000 (Ne1=   7234.0000)
               Final occupancy bounds   : [ -0.0000,  1.0000]
================================================================================

    5        -1.170820204086E+04     1.6482E-05     1.4910E-05    -8.8397E-03
MG BCs: +ve charge blocks (gridpoints):     24379 (   16495568).
MG BCs: -ve charge blocks (gridpoints):      8295 (    1060593).
MG BCs:     Elided blocks (gridpoints):    172741 (  173220544).
MG BCs: Computational effort saved:  99.9829%.
MG BCs: Charge after coarse-graining:           -9.0006796.
MG DL_MG: Calling solver with defect correction order = 8
MG DL_MG: Solver finished
MG Hartree energy from (\int phi*rho dr):              1259.819919
MG Hartree energy from (\int eps (grad phi)^2 dr):     1259.160431
MG Discrepancy due to finite box and discretization:     -0.659489 (  -0.05235%)
MG Correction to account for finite box:                  0.466572
MG Remaining discrepancy, due to discretization:         -0.192917 (  -0.01531%)
      ideal mu1:      -0.725705176398
             Q0:  -11708.205336045939
             G0:      -0.003786434442
   RMS gradient:       0.000009401425
MG BCs: +ve charge blocks (gridpoints):     24379 (   16495545).
MG BCs: -ve charge blocks (gridpoints):      8295 (    1060624).
MG BCs:     Elided blocks (gridpoints):    172741 (  173220536).
MG BCs: Computational effort saved:  99.9829%.
MG BCs: Charge after coarse-graining:           -9.0006796.
MG DL_MG: Calling solver with defect correction order = 8
MG DL_MG: Solver finished
MG Hartree energy from (\int phi*rho dr):              1259.785093
MG Hartree energy from (\int eps (grad phi)^2 dr):     1259.125609
MG Discrepancy due to finite box and discretization:     -0.659484 (  -0.05235%)
MG Correction to account for finite box:                  0.466571
MG Remaining discrepancy, due to discretization:         -0.192913 (  -0.01531%)
     Trial step:       0.548860206087
             Q1:  -11708.206649173284
 Quadratic coef:       0.000765095843
 Linear coef   :      -0.002078223188
           Qmin:  -11708.206747310835
Quadratic minimum step length (  0.745432103362) accepted
    Initial Ne1:    7234.00004950
      Final Ne1:    7234.00000000

=================== Penalty functional idempotency correction ==================
 RMS occupancy error at iteration   1:  0.000007 (step -0.4999 Ne1=   7234.0000)
            Final RMS occupancy error   :  0.000000 (Ne1=   7234.0000)
               Final occupancy bounds   : [ -0.0000,  1.0000]
================================================================================

    6        -1.170820533605E+04     9.4014E-06     8.5047E-06    -3.2952E-03
MG BCs: +ve charge blocks (gridpoints):     24380 (   16495540).
MG BCs: -ve charge blocks (gridpoints):      8295 (    1060634).
MG BCs:     Elided blocks (gridpoints):    172740 (  173220531).
MG BCs: Computational effort saved:  99.9829%.
MG BCs: Charge after coarse-graining:           -9.0006796.
MG DL_MG: Calling solver with defect correction order = 8
MG DL_MG: Solver finished
MG Hartree energy from (\int phi*rho dr):              1259.772571
MG Hartree energy from (\int eps (grad phi)^2 dr):     1259.113089
MG Discrepancy due to finite box and discretization:     -0.659482 (  -0.05235%)
MG Correction to account for finite box:                  0.466571
MG Remaining discrepancy, due to discretization:         -0.192911 (  -0.01531%)
      ideal mu1:      -0.725676438510
             Q0:  -11708.206747297663
             G0:      -0.002312439893
   RMS gradient:       0.000007348386
MG BCs: +ve charge blocks (gridpoints):     24379 (   16495321).
MG BCs: -ve charge blocks (gridpoints):      8295 (    1060704).
MG BCs:     Elided blocks (gridpoints):    172741 (  173220680).
MG BCs: Computational effort saved:  99.9829%.
MG BCs: Charge after coarse-graining:           -9.0006796.
MG DL_MG: Calling solver with defect correction order = 8
MG DL_MG: Solver finished
MG Hartree energy from (\int phi*rho dr):              1259.661791
MG Hartree energy from (\int eps (grad phi)^2 dr):     1259.002295
MG Discrepancy due to finite box and discretization:     -0.659496 (  -0.05236%)
MG Correction to account for finite box:                  0.466575
MG Remaining discrepancy, due to discretization:         -0.192921 (  -0.01532%)
     Trial step:       0.639638974637
             Q1:  -11708.207247119281
 Quadratic coef:       0.000979305065
 Linear coef   :      -0.001479126682
           Qmin:  -11708.207305809974
Quadratic minimum step length (  0.483050230253) accepted
    Initial Ne1:    7234.00001462
      Final Ne1:    7234.00000000

=================== Penalty functional idempotency correction ==================
 RMS occupancy error at iteration   1:  0.000001 (step -0.5000 Ne1=   7234.0000)
            Final RMS occupancy error   :  0.000000 (Ne1=   7234.0000)
               Final occupancy bounds   : [  0.0000,  1.0000]
================================================================================

    7        -1.170820674730E+04     7.3484E-06     6.6475E-06    -1.4113E-03
MG BCs: +ve charge blocks (gridpoints):     24379 (   16495375).
MG BCs: -ve charge blocks (gridpoints):      8295 (    1060688).
MG BCs:     Elided blocks (gridpoints):    172741 (  173220642).
MG BCs: Computational effort saved:  99.9829%.
MG BCs: Charge after coarse-graining:           -9.0006796.
MG DL_MG: Calling solver with defect correction order = 8
MG DL_MG: Solver finished
MG Hartree energy from (\int phi*rho dr):              1259.688858
MG Hartree energy from (\int eps (grad phi)^2 dr):     1259.029365
MG Discrepancy due to finite box and discretization:     -0.659493 (  -0.05235%)
MG Correction to account for finite box:                  0.466574
MG Remaining discrepancy, due to discretization:         -0.192919 (  -0.01531%)
      ideal mu1:      -0.725573759690
             Q0:  -11708.207305800053
             G0:      -0.001442595446
   RMS gradient:       0.000005803906
MG BCs: +ve charge blocks (gridpoints):     24379 (   16495341).
MG BCs: -ve charge blocks (gridpoints):      8295 (    1060702).
MG BCs:     Elided blocks (gridpoints):    172741 (  173220662).
MG BCs: Computational effort saved:  99.9829%.
MG BCs: Charge after coarse-graining:           -9.0006796.
MG DL_MG: Calling solver with defect correction order = 8
MG DL_MG: Solver finished
MG Hartree energy from (\int phi*rho dr):              1259.641335
MG Hartree energy from (\int eps (grad phi)^2 dr):     1258.981832
MG Discrepancy due to finite box and discretization:     -0.659503 (  -0.05236%)
MG Correction to account for finite box:                  0.466576
MG Remaining discrepancy, due to discretization:         -0.192927 (  -0.01532%)
     Trial step:       0.555857674209
             Q1:  -11708.207936640596
 Quadratic coef:       0.000171037207
 Linear coef   :      -0.000801877749
           Qmin:  -11708.208245665617
Quadratic minimum step length (  1.303020284824) accepted
    Initial Ne1:    7234.00002452
      Final Ne1:    7234.00000000

=================== Penalty functional idempotency correction ==================
 RMS occupancy error at iteration   1:  0.000011 (step -0.4995 Ne1=   7234.0000)
            Final RMS occupancy error   :  0.000000 (Ne1=   7234.0000)
               Final occupancy bounds   : [ -0.0000,  1.0000]
================================================================================

    8        -1.170820730580E+04     5.8039E-06     5.2503E-06    -5.5850E-04
MG BCs: +ve charge blocks (gridpoints):     24378 (   16495249).
MG BCs: -ve charge blocks (gridpoints):      8295 (    1060734).
MG BCs:     Elided blocks (gridpoints):    172742 (  173220722).
MG BCs: Computational effort saved:  99.9829%.
MG BCs: Charge after coarse-graining:           -9.0006797.
[...]
MG DL_MG: Calling solver with defect correction order = 8
MG DL_MG: Solver finished
MG Hartree energy from (\int phi*rho dr):              1216.695846
MG Hartree energy from (\int eps (grad phi)^2 dr):     1216.497689
MG Discrepancy due to finite box and discretization:     -0.198157 (  -0.01629%)
MG Correction to account for finite box:                  0.006414
MG Remaining discrepancy, due to discretization:         -0.191742 (  -0.01576%)
             Q2:  -11742.503606708953
  Cubic LS coeff:       0.924364730034
Predicted energy:  -11742.503606708975
Cubic minimum step length accepted
    Initial Ne1:    7234.00000000
      Final Ne1:    7234.00000000

=================== Penalty functional idempotency correction ==================
 RMS occupancy error at iteration   1:  0.000000 (step -0.5000 Ne1=   7234.0000)
            Final RMS occupancy error   :  0.000000 (Ne1=   7234.0000)
               Final occupancy bounds   : [  0.0000,  1.0000]
================================================================================

    7        -1.174250360671E+04     8.8539E-09     8.0094E-09    -1.9791E-09

Reusing previously generated solute cavity.
MG BCs: +ve charge blocks (gridpoints):     28792 (   18690261).
MG BCs: -ve charge blocks (gridpoints):      8274 (    1029759).
MG BCs:     Elided blocks (gridpoints):    168328 (  171056685).
MG BCs: Computational effort saved:  99.9806%.
MG BCs: Charge after coarse-graining:           -9.0009520.
MG DL_MG: Calling solver with defect correction order = 8
MG DL_MG: Solver finished
MG Hartree energy from (\int phi*rho dr):              1216.695845
MG Hartree energy from (\int eps (grad phi)^2 dr):     1216.497689
MG Discrepancy due to finite box and discretization:     -0.198157 (  -0.01629%)
MG Correction to account for finite box:                  0.006414
MG Remaining discrepancy, due to discretization:         -0.191742 (  -0.01576%)
      ideal mu1:      -0.480896971525
             Q0:  -11742.503606709070
             G0:      -0.000000004060
   RMS gradient:       0.000000009054

Reusing previously generated solute cavity.
MG BCs: +ve charge blocks (gridpoints):     28792 (   18690261).
MG BCs: -ve charge blocks (gridpoints):      8274 (    1029759).
MG BCs:     Elided blocks (gridpoints):    168328 (  171056685).
MG BCs: Computational effort saved:  99.9806%.
MG BCs: Charge after coarse-graining:           -9.0009520.
MG DL_MG: Calling solver with defect correction order = 8
MG DL_MG: Solver finished
MG Hartree energy from (\int phi*rho dr):              1216.695814
MG Hartree energy from (\int eps (grad phi)^2 dr):     1216.497657
MG Discrepancy due to finite box and discretization:     -0.198157 (  -0.01629%)
MG Correction to account for finite box:                  0.006414
MG Remaining discrepancy, due to discretization:         -0.191742 (  -0.01576%)
     Trial step:       0.647506690948
             Q1:  -11742.503606710234
 Quadratic coef:       0.000000001464
 Linear coef   :      -0.000000002629
           Qmin:  -11742.503606710250
Quadratic minimum step length (  0.581226695426) accepted
    Initial Ne1:    7234.00000000
      Final Ne1:    7234.00000000

=================== Penalty functional idempotency correction ==================
 RMS occupancy error at iteration   1:  0.000000 (step -0.5000 Ne1=   7234.0000)
            Final RMS occupancy error   :  0.000000 (Ne1=   7234.0000)
               Final occupancy bounds   : [ -0.0000,  1.0000]
================================================================================

    8        -1.174250360671E+04     9.0543E-09     8.1907E-09    -3.8417E-09

Reusing previously generated solute cavity.
MG BCs: +ve charge blocks (gridpoints):     28792 (   18690261).
MG BCs: -ve charge blocks (gridpoints):      8274 (    1029759).
MG BCs:     Elided blocks (gridpoints):    168328 (  171056685).
MG BCs: Computational effort saved:  99.9806%.
MG BCs: Charge after coarse-graining:           -9.0009520.
MG DL_MG: Calling solver with defect correction order = 8
MG DL_MG: Solver finished
MG Hartree energy from (\int phi*rho dr):              1216.695817
MG Hartree energy from (\int eps (grad phi)^2 dr):     1216.497660
MG Discrepancy due to finite box and discretization:     -0.198157 (  -0.01629%)
MG Correction to account for finite box:                  0.006414
MG Remaining discrepancy, due to discretization:         -0.191742 (  -0.01576%)
      ideal mu1:      -0.480896936627
             Q0:  -11742.503606710001
             G0:      -0.000000001899
   RMS gradient:       0.000000005314

Reusing previously generated solute cavity.
MG BCs: +ve charge blocks (gridpoints):     28792 (   18690260).
MG BCs: -ve charge blocks (gridpoints):      8274 (    1029759).
MG BCs:     Elided blocks (gridpoints):    168328 (  171056686).
MG BCs: Computational effort saved:  99.9806%.
MG BCs: Charge after coarse-graining:           -9.0009520.
MG DL_MG: Calling solver with defect correction order = 8
MG DL_MG: Solver finished
MG Hartree energy from (\int phi*rho dr):              1216.695821
MG Hartree energy from (\int eps (grad phi)^2 dr):     1216.497664
MG Discrepancy due to finite box and discretization:     -0.198157 (  -0.01629%)
MG Correction to account for finite box:                  0.006414
MG Remaining discrepancy, due to discretization:         -0.191742 (  -0.01576%)
     Trial step:       0.613472227771
             Q1:  -11742.503606710117
 Quadratic coef:       0.000000001048
 Linear coef   :      -0.000000001165
           Qmin:  -11742.503606710325
Quadratic minimum step length (  0.341067647592) accepted
    Initial Ne1:    7234.00000000
      Final Ne1:    7234.00000000

=================== Penalty functional idempotency correction ==================
 RMS occupancy error at iteration   1:  0.000000 (step -0.5000 Ne1=   7234.0000)
            Final RMS occupancy error   :  0.000000 (Ne1=   7234.0000)
               Final occupancy bounds   : [ -0.0000,  1.0000]
================================================================================

    9        -1.174250360671E+04     5.3138E-09     4.8069E-09    -9.3132E-10

Reusing previously generated solute cavity.
MG BCs: +ve charge blocks (gridpoints):     28792 (   18690261).
MG BCs: -ve charge blocks (gridpoints):      8274 (    1029759).
MG BCs:     Elided blocks (gridpoints):    168328 (  171056685).
MG BCs: Computational effort saved:  99.9806%.
MG BCs: Charge after coarse-graining:           -9.0009520.
MG DL_MG: Calling solver with defect correction order = 8
MG DL_MG: Solver finished
MG Hartree energy from (\int phi*rho dr):              1216.695819
MG Hartree energy from (\int eps (grad phi)^2 dr):     1216.497662
MG Discrepancy due to finite box and discretization:     -0.198157 (  -0.01629%)
MG Correction to account for finite box:                  0.006414
MG Remaining discrepancy, due to discretization:         -0.191742 (  -0.01576%)
      ideal mu1:      -0.480896937117
   10        -1.174250360671E+04     4.0468E-09     3.6608E-09    -2.3283E-10
Finished density kernel iterations (  10)

Writing density kernel to file "complex_5421.dkn" ... done


>>> Density kernel optimised for the current NGWF basis:
     ~~~~~~~~~~~~~~~~~~~~~~~~~~~~~~~~~~~~~~~~~~~~~~~~~~~~~~~~~~~
     Total energy                =  -1.17425036067102E+04  Eh
     Estimated bandgap           =   7.9620E-02  Eh
     RMS occupancy error         =   4.1353E-16
     [H,K] commutator            =   3.6608E-09
     Occupancy bounds            = [ -0.000:  1.000]
     ~~~~~~~~~~~~~~~~~~~~~~~~~~~~~~~~~~~~~~~~~~~~~~~~~~~~~~~~~~~




################################################################################
########################### NGWF CG iteration  004 #############################
################################################################################
****** Reciprocal space K.E. preconditioning with k_zero =  3.5000 a0^-1 *******

>>> Checking for convergence of NGWFs: 
           ........................................................
           |         *** NGWF optimisation converged ***          |
           | RMS NGWF gradient =    0.00000193027932              |
           | Criteria satisfied:                                  |
           | -> RMS NGWF gradient lower than set threshold.       |
           ========================================================

Reusing previously generated solute cavity.
MG BCs: +ve charge blocks (gridpoints):     28792 (   18690261).
MG BCs: -ve charge blocks (gridpoints):      8274 (    1029759).
MG BCs:     Elided blocks (gridpoints):    168328 (  171056685).
MG BCs: Computational effort saved:  99.9806%.
MG BCs: Charge after coarse-graining:           -9.0009520.
MG DL_MG: Calling solver with defect correction order = 8
MG DL_MG: Solver finished
MG Hartree energy from (\int phi*rho dr):              1216.695819
MG Hartree energy from (\int eps (grad phi)^2 dr):     1216.497662
MG Discrepancy due to finite box and discretization:     -0.198157 (  -0.01629%)
MG Correction to account for finite box:                  0.006414
MG Remaining discrepancy, due to discretization:         -0.191742 (  -0.01576%)

================================================================================
           ---------------- ENERGY COMPONENTS (Eh) ----------------
           | Kinetic                    :     8574.12934435682655 |
           | Pseudo. (local,OBC,corr'd) :    -5074.62079326283128 |
           | Pseudopotential (non-local):     1411.40837776197031 |
           | Hartree (molecular)        :     1216.69581901894526 |
           | Exchange-correlation       :    -3376.80816401648553 |
           | Ion-ion (open BC)          :   835910.96849101013504 |
           | Dispersion Correction      :       -3.32441911192441 |
           | Smeared ion non-self corr. :  -835862.63927174452692 |
           | Smeared ion self corr.     :   -14538.95273137971344 |
           | Solvent cavitation energy  :        2.27604965698832 |
           | Solute-solvent dis-rep en. :       -1.63630899965033 |
           | Total                      :   -11742.50360671017006 |
           --------------------------------------------------------
           ------ LOCAL ENERGY COMPONENTS FROM MATRIX TRACES ------
           | Pseudopotential (local)    :    -5074.62079326282856 |
           | Hartree                    :    -2001.73323013130766 |
           --------------------------------------------------------
           Integrated density           :     7233.99999999797001
           Integrated density tr(KS)    :     7234.00000000000091
================================================================================


                        <<<<< CALCULATION SUMMARY >>>>>                         
|ITER|    RMS GRADIENT   |     TOTAL ENERGY    |   step   |     Epredicted              
   0     0.00003912300265 -11742.44698433903977   0.595712 -11742.49580059555774        
   1     0.00001029948231 -11742.50298969692085   0.090697 -11742.50350478957807        
   2     0.00000443076647 -11742.50358771265019   0.015749 -11742.50360426523912        
   3     0.00000193027932 -11742.50360671023373  <-- CG                                 

=================== Finished the calculation in solvent ========================
= Adjusting the following parameters: 
= read_denskern: F
= read_tightbox_ngwfs: F
= maxit_pen: 0 (restored to user-specified value)
= restart read filename prefix: ""
= restart write filename prefix: ""
================================================================================

================================================================================
IS: Calculation in solvent completed (NGWFs converged).      

Individual components of total energy in solvent:     hartree           kcal/mol
- Usual non-electrostatic DFT terms:    -12959.83916638651681    -8132421.682808
- Electrostatic fixed charge energy:      1216.69581901894526      763488.136923
- Apolar cavitation energy:                  2.27604965698832        1428.242692
- Apolar dispersion-repulsion energy:       -1.63630899965033       -1026.799377
 -------------------------------------------------------------------------------
- Total energy in solvent:              -11742.50360671023373    -7368532.102570

Components of total energy in solvent:                hartree           kcal/mol
- Usual non-electrostatic DFT terms:    -12959.83916638651681    -8132421.682808
- Electrostatic energy:                   1216.69581901894526      763488.136923
- Apolar energy terms:                       0.63974065733799         401.443315
 -------------------------------------------------------------------------------
- Total energy in solvent:              -11742.50360671023373    -7368532.102570

Calculation of free energy of solvation:              hartree           kcal/mol
- Total energy in solvent:         (+)  -11742.50360671023373    -7368532.102570
- Total energy in vacuum:          (-)  -11738.77797126013320    -7366194.231079
 -------------------------------------------------------------------------------
- Total free energy of solvation:           -3.72563545010053       -2337.871491

Components of polar term in f.e. of solvation:        hartree           kcal/mol
- Electrostatic:                            -4.63935196759098       -2911.237250
- Change in nonelectrostatic DFT terms:      0.27397586015286         171.922444
 -------------------------------------------------------------------------------
- Polar term in f.e. of solvation:          -4.36537610743812       -2739.314806

Components of free energy of solvation:               hartree           kcal/mol
- Polar term in f.e. of solvation: (+)      -4.36537610743812       -2739.314806
- Apolar (cavitation, dis., rep.): (+)       0.63974065733799         401.443315
 -------------------------------------------------------------------------------
- Total free energy of solvation:           -3.72563545010013       -2337.871491
================================================================================


------------------------------ TIMING INFORMATION ------------------------------
AVERAGE TIME:   31683.442s on     40 node(s)                                    
TOTAL TIME:     31683.443s on     40 node(s)                                    
================= AVERAGE TIMINGS FROM ALL NODES (CUMULATIVE) ==================
|| TAG                                    #calls    cpu time   %total  Gflops ||
|| work_imbalance                       :     1        0.00s   0.000%  ------ ||
|| parallel_prepare_fd_halos_request    :  2313        0.02s   0.000%  ------ ||
|| sparse_set_to_garbage                :   218        0.05s   0.000%  ------ ||
|| parallel_prepare_fd_halos_satisfy    :  2313        0.07s   0.000%  ------ ||
|| ngwfs_initialise_from_radial         :     1        0.15s   0.000%  ------ ||
|| basis_extract_function_from_box      :  6380        0.25s   0.001%  ------ ||
|| parallel_prepare_fd_halos_alloc      :  2313        0.26s   0.001%  ------ ||
|| restart_ngwfs_tightbox_input         :     1        0.89s   0.003%  ------ ||
|| pseudopotentials_nonlocal_mat        :    37        1.69s   0.005%  ------ ||
|| parallel_prepare_fd_halos_comms_imbal:  2313        3.42s   0.011%  ------ ||
|| openbc_locps_radial                  :     1        4.55s   0.014%  ------ ||
|| density_init_guess_real              :     1        5.37s   0.017%  ------ ||
|| restart_kernel_read                  :     1        8.06s   0.025%  ------ ||
|| parallel_prepare_fd_halos_clear      :  2313       17.15s   0.054%  ------ ||
|| sparse_init                          :     2       23.41s   0.074%  ------ ||
|| restart_kernel_write                 :    20       23.75s   0.075%  ------ ||
|| projectors_func_ovlp_box             :    37       29.56s   0.093%  ------ ||
|| parallel_prepare_fd_halos_comms_wait :  2313       29.59s   0.093%  ------ ||
|| projectors_init_fftbox_recip         :   246       32.42s   0.102%  ------ ||
|| function_ops_brappd_ketppd           :    37       37.57s   0.119%  ------ ||
|| palser_mano_kernel_optimise          :     1       46.50s   0.147%  ------ ||
|| parallel_prepare_fd_halos            :  2313       50.52s   0.159%  ------ ||
|| pseudo_make_structure_factor         :     2       54.08s   0.171%  ------ ||
|| fourier_apply_box_pair               :  9250       64.43s   0.203% 554.124 ||
|| basis_copy_function_to_box           : 104.2k      65.87s   0.208%  ------ ||
|| ngwf_gradient_coeffs                 :    19       79.80s   0.252%  ------ ||
|| sparse_embed_hotelling_invert_embed  :    37      111.17s   0.351%  ------ ||
|| restart_ngwfs_tightbox_output        :    17      116.35s   0.367%  ------ ||
|| finite_difference_derivative         :  2313      123.29s   0.389%  ------ ||
|| openbc_locps_on_grid                 :     2      194.00s   0.612%  ------ ||
|| integrals_kinetic                    :    37      221.06s   0.698%  ------ ||
|| projectors_gradient_batch            :   209      256.13s   0.808%  ------ ||
|| fourier_apply_cell_backward          :  1543      259.85s   0.820%  80.829 ||
|| fourier_apply_cell_forward           :  1541      261.48s   0.825%  80.220 ||
|| sparse_trace                         :  5987      314.50s   0.993%  ------ ||
|| basis_dot_function_with_box          : 16.01M     384.28s   1.213%  ------ ||
|| hamiltonian_energy_components        :     4      430.98s   1.360%  ------ ||
|| kernel_purify                        :   589      435.68s   1.375%  ------ ||
|| xc_energy_potential                  :   385      609.99s   1.925%  ------ ||
|| lnv_gradient_norm                    :   190      718.30s   2.267%  ------ ||
|| basis_add_function_to_box            : 33.54M     725.85s   2.291%  ------ ||
|| kernel_fix                           :   190      733.32s   2.315%  ------ ||
|| ngwf_gradient_build_batch            :   209      916.60s   2.893%  ------ ||
|| cell_grid_deposit_box_real           : 65354     1048.52s   3.309%  ------ ||
|| cell_grid_extract_box_real           : 60392     1201.13s   3.791%  ------ ||
|| integrals_locpot_mat_els_batch       :  2189     1242.34s   3.921%  ------ ||
|| ngwf_gradient_batch                  :   209     1291.83s   4.077%  ------ ||
|| ngwf_gradient_lnv                    :    19     1494.45s   4.717%  ------ ||
|| density_batch_row_sums               :  4224     1638.78s   5.172%  ------ ||
|| density_fftbox_deposit_to_cell       : 62976     1806.03s   5.700%  ------ ||
|| sparse_product                       :  7693     2658.04s   8.389%  ------ ||
|| multigrid_prepare_bound_cond         :   385     2941.85s   9.285%  ------ ||
|| potential_apply_to_ngwf_batch        :  2189     3928.27s  12.398%  ------ ||
|| fourier_apply_box                    : 216.9k    4351.26s  13.734% 932.543 ||
|| density_fftbox_interpolate_multiply  : 62976     4369.05s  13.790%  ------ ||
|| integrals_locpot_dbl_grid            :   199     5197.53s  16.405%  ------ ||
|| density_batch_interp_deposit         :  4224     6931.53s  21.877%  ------ ||
|| dl_mg_solver_calls                   :   385     7597.94s  23.981%  ------ ||
|| density_on_dbl_grid                  :   384     9029.28s  28.498%  ------ ||
|| multigrid_calculate_hartree          :   385    10714.15s  33.816%  ------ ||
|| hamiltonian_lhxc_calculate           :   380    20425.32s  64.467%  ------ ||
|| lnv_denskernel_optimise_cg           :    19    27274.14s  86.083%  ------ ||
|| ngwf_cg_optimise                     :     2    30861.83s  97.407%  ------ ||
|| total_time                           :     1    31683.44s 100.000%  ------ ||
================================================================================
Overhead of generating timer report: 
- 0 ms averaging over threads,
- 5 ms ensuring consistency across MPI ranks,
- 2 ms printing in order.

Job completed: 18-05-2020 05:26 (+0100)

