 +---------------------------------------------------------------+
 |                                                               |
 |        ####### #     # ####### ####### ####### ######         |
 |        #     # ##    # #          #    #       #     #        |
 |        #     # # #   # #          #    #       #     #        |
 |        #     # #  #  # #####      #    #####   ######         |
 |        #     # #   # # #          #    #       #              |
 |        #     # #    ## #          #    #       #              |
 |        ####### #     # #######    #    ####### #              |
 |                                                               |
 |        Linear-Scaling Ab Initio Total Energy Program          |
 |                                                               |
 |          Release for academic collaborators of ODG            |
 |                                             Version 5.3.2.6.  |
 |                                                               |
 +---------------------------------------------------------------+
 |                                                               |
 |  Authors:                                                     |
 |  Jacek Dziedzic, Peter D. Haynes, Nicholas D. M. Hine,        |
 |  Arash. A. Mostofi, Mike C. Payne and Chris-Kriton Skylaris   |
 |                                                               |
 |  Contributors:                                                |
 |  J. Aarons, L. Andrinopoulos, P. W. Avraam, R. A. Bell,       |
 |  A. Bhandari, G. A. Bramley, R. J. Charlton, S. J. Clark,     |
 |  R. J. Clements, G. C. Constantinescu, F. Corsetti,           |
 |  N. Corsini, O. Dieguez, S. M. M. Dubois, K. K. B. Duff,      |
 |  J. M. Escartin, A. Greco, H. Helal, Q. O. Hill, L. P. Lee,   |
 |  J.-H. Li, E. B. Linscott, G. Moynihan, D. D. O`Regan,        |
 |  O. K. Okan, M. J. S. Phipps, C. J. Pickard,                  |
 |  J. C. A. Prentice, M. I. J. Probert, L. E. Ratcliff,         |
 |  M. Robinson, A. Ruiz Serrano, J. S. Spencer, E. W. Tait,     |
 |  G. Teobaldi, D. Turban, V. Vitale, K. A. Wilkinson,          |
 |  C. Weber, J. C. Womack, N. Yeung and T. J. Zuehlsdorff       |
 |                                                               |
 |                                   Copyright (c) 2004-2019     |
 |                                                               |
 |  Please cite:                                                 |
 |  "Introducing ONETEP: Linear-scaling density functional       |
 |   simulations on parallel computers".                         |
 |   C.-K. Skylaris, P. D. Haynes, A. A. Mostofi, M. C. Payne.   |
 |   J. Chem. Phys. 122 084119 (2005).                           |
 |                                                               |
 |          in all publications arising from your use of ONETEP. |
 |                                                               |
 +---------------------------------------------------------------+
 |                                                               |
 |   ONETEP is based on developments described in the following  |
 |   publications:                                               |
 |                                                               |
 |  "Nonorthogonal generalized Wannier function pseudopotential  |
 |   plane-wave method".                                         |
 |   C.-K. Skylaris, A. A. Mostofi, P. D. Haynes, O. Dieguez,    |
 |   M. C. Payne.                                                |
 |   Phys. Rev. B 66 035119 (2002).                              |
 |                                                               |
 |  "Preconditioned iterative minimization for linear-scaling    |
 |   electronic structure calculations".                         |
 |   A. A. Mostofi, P. D. Haynes, C.-K. Skylaris, M. C. Payne.   |
 |   J. Chem. Phys. 119(17), pp.8842-8848 (2003).                |
 |                                                               |
 |  "Total-energy calculations on a real space grid with         |
 |   localized functions and a plane-wave basis".                |
 |   A. A. Mostofi, C.-K. Skylaris, P. D. Haynes, M. C. Payne.   |
 |   Comput. Phys. Commun. 147, pp.788-802 (2002).               |
 |                                                               |
 |  "Accurate kinetic energy evaluation in electronic structure  |
 |   calculations with localized functions on real space grids"  |
 |   C.-K. Skylaris, A. A. Mostofi, P. D. Haynes, C. J. Pickard, |
 |   M. C. Payne.                                                |
 |   Comput. Phys. Commun. 140, pp.315-322 (2001).               |
 |                                                               |
 |  "Accurate ionic forces and geometry optimization in linear-  |
 |   scaling density-functional theory with local orbitals"      |
 |   N. D. M. Hine, M. Robinson, P. D. Haynes, C.-K. Skylaris,   |
 |   M. C. Payne, and A. A. Mostofi.                             |
 |   Phys. Rev. B 83 195102 (2011).                              |
 |                                                               |
 +---------------------------------------------------------------+

Job started: 01-06-2020 00:22 (+0100)
 
Reading parameters from file "complex_16821.dat" ...... done

If your calculation crashes here, before "Checking processes and threads..."
is displayed, then your stack size is insufficient.
If so, use "ulimit -s unlimited" at runtime.
You can disable this check with "check_stack_size F".

Checking processes and threads...
   Determining the default number of threads...
      No default threads set at compilation time: defaulting to 1.
      OpenMP library call suggests 4 threads.
      Hybrid MPI-OpenMP compilation detected.
      Number of MPI processes > 1.
      OMP_NUM_THREADS environment variable present and
      its value matches the one obtained from the OpenMP library call.
      Using this value as default.
      Default threads: 4
      Default applies to threads_max and threads_num_fftboxes.
      Settings in the input file override this default.
   ... done

   Running with 40 MPI processes.
   There are 10 MPI processes running on the same node as the root process.
   Each MPI process is using: 
               1 threads for simulation cell FFTs.
               1 threads for parallel FFT box operations.
               4 threads for loops over batched FFT box operations.
               4 threads in other parallel regions.
... done

Basic input checks...... done

Reading geometry and species blocks from file "complex_16821.dat" ...
  <species_atomic_set> block not found: NGWF initialisation set to SOLVE
IS: Dielectric excluded regions:
    - NONE.
    
  Number of PPD points along a3 set to 1.  This is 
  the default value, it may have been provided also in the input file.
... done
 Writing xyz coordinates to file "complex_16821.xyz" ... done


--------------------------------------------------------------------------------
---------------------------------- INPUT FILE ----------------------------------
--------------------------------------------------------------------------------

cutoff_energy       : 800 eV                                                    
xc_functional PBE                                                               
task SINGLEPOINT                                                                
write_xyz true                                                                  
output_detail VERBOSE                                                           
ngwf_threshold_orig : 0.000002                                                  
kernel_cutoff       : 1000                                                      
k_zero              : 3.5                                                       
elec_cg_max 0                                                                   
occ_mix 1.0                                                                     
dispersion 1                                                                    
maxit_ngwf_cg 40                                                                
minit_lnv 10                                                                    
maxit_lnv 10                                                                    
write_denskern T                                                                
write_tightbox_ngwfs T                                                          
charge 9                                                                        
is_implicit_solvent T                                                           
is_auto_solvation T                                                             
is_include_apolar T                                                             
is_smeared_ion_rep T                                                            
is_solvent_surf_tension 4.7624E-5 Ha/bohr**2                                    
is_apolar_scaling_factor 0.281075                                               
is_solvation_beta 1.3                                                           
is_density_threshold 0.00035                                                    
is_bulk_permittivity 78.54                                                      
is_dielectric_model fix_initial                                                 
is_smeared_ion_width 0.8                                                        
mg_defco_fd_order 8                                                             
is_bc_coarseness 10                                                             
is_bc_surface_coarseness 1                                                      
fine_grid_scale 2.0                                                             
%block species                                                                  
N   N   7 4 8.0                                                                 
H   H   1 1 8.0                                                                 
C   C   6 4 8.0                                                                 
S   S  16 9 8.0                                                                 
O   O   8 4 8.0                                                                 
%endblock species                                                               
%block species_pot                                                              
N   N_00.recpot                                                                 
H   H_04.recpot                                                                 
C   C_01.recpot                                                                 
S   S_00.recpot                                                                 
O   O_02.recpot                                                                 
%endblock species_pot                                                           
%block lattice_cart                                                             
139.252   0.000   0.000                                                         
0.000 142.425   0.000                                                           
0.000   0.000   162.84                                                          
%endblock lattice_cart                                                          
%block positions_abs                                                            
     Hash =   000002752488094404413313
%endblock positions_abs                                                         

--------------------------------------------------------------------------------
-------------------------------- END INPUT FILE --------------------------------
--------------------------------------------------------------------------------


 
 ESDF WARNING(1): "kernelcutoff" (esdf_physical) has no units. Assume "bohr".
 ESDF WARNING(2): "kzero" (esdf_physical) has no units. Assume "1/bohr".
 ESDF WARNING(3
 ): "issmearedionwidth" (esdf_physical) has no units. Assume "bohr".
<<<<<<<<<<<<<<<<<<<<<<<<<<<<<<<<< Full system >>>>>>>>>>>>>>>>>>>>>>>>>>>>>>>>>>
<<<<<<<<<<<<<<<<<<<<<<<<< Pseudopotential information >>>>>>>>>>>>>>>>>>>>>>>>>>
File: N_00.recpot [ 2001 points up to Gmax=  52.9 (1/bohr)]
  Atomic number:  7;  ionic charge:  5.000000
    Shell 1: l = 0; rc = 1.48 bohr
File: H_04.recpot [ 2001 points up to Gmax=  52.9 (1/bohr)]
  Atomic number:  1;  ionic charge:  1.000000
    Local potential
File: C_01.recpot [ 2001 points up to Gmax=  52.9 (1/bohr)]
  Atomic number:  6;  ionic charge:  4.000000
    Shell 1: l = 0; rc = 1.48 bohr
File: S_00.recpot [ 2001 points up to Gmax=  52.9 (1/bohr)]
  Atomic number: 16;  ionic charge:  6.000000
    Shell 1: l = 0; rc = 1.90 bohr
    Shell 2: l = 2; rc = 1.84 bohr
File: O_02.recpot [ 2001 points up to Gmax=  52.9 (1/bohr)]
  Atomic number:  8;  ionic charge:  6.000000
    Shell 1: l = 0; rc = 1.31 bohr
<<<<<<<<<<<<<<<<<<<<<<<<<<<<<<<<<<<<<<<<>>>>>>>>>>>>>>>>>>>>>>>>>>>>>>>>>>>>>>>>

-------------------------- Atom counting information ---------------------------
Symbol    Natoms    Nngwfs    Nprojs
  N        237       948       237
  H       1318      1318         0
  C        816      3264       816
  S          6        54        36
  O        240       960       240
.......   ......    ......    ......
Totals:   2617      6544      1329
--------------------------------------------------------------------------------

=============================== PSINC grid sizes ===============================
                      Simulation cell:  275 x 280 x 320
                              FFT-box:   99 x  99 x  99
                                  PPD:    5 x   5 x   1
Grid space d1=  0.506370909091a0 (KE cutoff=  29.62556Eh = 806.15239eV)
Grid space d2=  0.508660714286a0 (KE cutoff=  29.35943Eh = 798.91072eV)
Grid space d3=  0.508875000000a0 (KE cutoff=  29.33471Eh = 798.23802eV)
================================================================================

********************* Fourier parallelisation information **********************
       Coarse grid (whole simulation cell) dimensions:    275   280   320
          Real-space ('12') slabs/node (min max mean):      8     8     8
         Recip-space ('23') slabs/node (min max mean):      3     4     3
********************************************************************************

********************* Fourier parallelisation information **********************
       Double grid (whole simulation cell) dimensions:    550   560   640
          Real-space ('12') slabs/node (min max mean):     16    16    16
         Recip-space ('23') slabs/node (min max mean):      6     7     6
********************************************************************************
ONETEP fine grid is 550 x 560 x 640 gridpoints, 139.2520 x 142.4250 x 162.8400 bohr.
FD multigrid is     545 x 553 x 633 gridpoints, 137.9861 x 140.6447 x 161.0589 bohr.


Calculating local pseudopotential in open BC on a radial grid ...
Discrepancy between calculated realspace psloc and -Z/x on [5a0,257.280a0]:
max |rel. diff| # avg |rel. diff| #  avg rel. diff #  f # pseudopotential file
 0.000256370913    0.000003612608   0.000000072509   55  'N_00.recpot'
 0.000395389207    0.000016224277  -0.000000076597   55  'H_04.recpot'
 0.000377360759    0.000017565724   0.000000149252   55  'C_01.recpot'
 0.000469715301    0.000020587835   0.000000455518   55  'S_00.recpot'
 0.000665442002    0.000026079317   0.000000158685   55  'O_02.recpot'
... done

Atom SCF Calculation for N  : Z (AE atom) =   7 : Z (PS atom) =   5
Config String:
Orbitals (num,occ):  2     2.00 3.00
Orbitals   (num,l):  2        0    1
Real-space Grid (nr,dr,rmax): 1203    0.0066555740    8.0000000000
Spherical Bessel Basis (nsws,lmax,cutoff):   47    1  176.3951722778
Confining potential (l,width,scale):  0    3.0000000000  100.0000000000
Confining potential (l,width,scale):  1    3.0000000000  100.0000000000
  1         -4.7312375307   -3.4155304497    7.0523828109   -1.9351020946
  2         -9.7309464766   -2.0532547791    8.2966052865   -2.2494486027
  3         -9.6627394379   -2.1124926340    8.2327997121   -2.2369778124
  4         -9.6814993499   -2.1215521045    8.2229805960   -2.2365178421
  5         -9.6843326483   -2.1250939529    8.2191374534   -2.2362718126
  6         -9.6859628709   -2.1267894855    8.2172963573   -2.2362066344
  7         -9.6867347035   -2.1276425665    8.2163697352   -2.2361903369
  8         -9.6870802100   -2.1280764625    8.2158983890   -2.2361891460
  9         -9.6872290423   -2.1282977424    8.2156580222   -2.2361920435
 10         -9.6872901988   -2.1284107021    8.2155353368   -2.2361953393
 11         -9.6873135296   -2.1284684031    8.2154726809   -2.2361979819
 12         -9.6873212476   -2.1284978948    8.2154406648   -2.2361998431
 13         -9.6873229586   -2.1285129774    8.2154242957   -2.2362010676
 14         -9.6873226456   -2.1285206957    8.2154159216   -2.2362018403
 15         -9.6873218534   -2.1285246479    8.2154116349   -2.2362023142
 16         -9.6873212599   -2.1285262679    8.2154098784   -2.2362025420
 17         -9.6873207834   -2.1285272564    8.2154088068   -2.2362026955
 18         -9.6873204210   -2.1285278597    8.2154081529   -2.2362027982
 19         -9.6873201550   -2.1285282280    8.2154077538   -2.2362028667
 20         -9.6873199645   -2.1285284529    8.2154075102   -2.2362029121
 21         -9.6873198305   -2.1285285903    8.2154073614   -2.2362029421
 22         -9.6873197377   -2.1285286742    8.2154072705   -2.2362029618
Atom SCF converged after  22 iterations to a total energy of     -9.68731974

Atom SCF Calculation for H  : Z (AE atom) =   1 : Z (PS atom) =   1
Config String:
Orbitals (num,occ):  1     1.00
Orbitals   (num,l):  1        0
Real-space Grid (nr,dr,rmax): 1203    0.0066555740    8.0000000000
Spherical Bessel Basis (nsws,lmax,cutoff):   47    0  176.3951722778
Confining potential (l,width,scale):  0    3.0000000000  100.0000000000
  1         -0.3194257691   -0.2393854593    0.2820953124   -0.2424203209
  2         -0.3951823392   -0.2377116493    0.2886404059   -0.2475147891
  3         -0.4317044583   -0.2352244387    0.2921333887   -0.2514046172
  4         -0.4470703708   -0.2341892222    0.2934391879   -0.2531009782
  5         -0.4532132900   -0.2338556667    0.2938388426   -0.2537313520
  6         -0.4556579251   -0.2337612552    0.2939448584   -0.2539550462
  7         -0.4566418315   -0.2337377355    0.2939680120   -0.2540342273
  8         -0.4570437922   -0.2337331116    0.2939708287   -0.2540627372
  9         -0.4572102946   -0.2337328328    0.2939698291   -0.2540732650
 10         -0.4572800424   -0.2337332404    0.2939687193   -0.2540772588
 11         -0.4573095100   -0.2337335791    0.2939680317   -0.2540788122
 12         -0.4573220379   -0.2337337762    0.2939676699   -0.2540794294
 13         -0.4573273880   -0.2337338775    0.2939674931   -0.2540796787
 14         -0.4573296803   -0.2337339266    0.2939674099   -0.2540797808
 15         -0.4573306647   -0.2337339495    0.2939673718   -0.2540798230
 16         -0.4573310882   -0.2337339601    0.2939673545   -0.2540798406
 17         -0.4573312706   -0.2337339649    0.2939673467   -0.2540798479
 18         -0.4573313493   -0.2337339670    0.2939673433   -0.2540798510
Atom SCF converged after  18 iterations to a total energy of     -0.45733135

Atom SCF Calculation for C  : Z (AE atom) =   6 : Z (PS atom) =   4
Config String:
Orbitals (num,occ):  2     2.00 2.00
Orbitals   (num,l):  2        0    1
Real-space Grid (nr,dr,rmax): 1203    0.0066555740    8.0000000000
Spherical Bessel Basis (nsws,lmax,cutoff):   47    1  176.3951722778
Confining potential (l,width,scale):  0    3.0000000000  100.0000000000
Confining potential (l,width,scale):  1    3.0000000000  100.0000000000
  1         -5.2976922011   -1.3069684169    4.5135249990   -1.4493313817
  2         -5.3721716256   -1.3429755895    4.4750154450   -1.4361613026
  3         -5.3809959565   -1.3617365618    4.4541655428   -1.4305930207
  4         -5.3918938866   -1.3667928461    4.4484735100   -1.4294652294
  5         -5.3956096428   -1.3688539142    4.4461376126   -1.4290734646
  6         -5.3968271862   -1.3696852393    4.4451910874   -1.4289366866
  7         -5.3972028401   -1.3700178062    4.4448112275   -1.4288900460
  8         -5.3973067903   -1.3701500158    4.4446598370   -1.4288749220
  9         -5.3973286940   -1.3702023868    4.4445997329   -1.4288704293
 10         -5.3973289850   -1.3702230869    4.4445759233   -1.4288693188
 11         -5.3973254264   -1.3702312560    4.4445665049   -1.4288691775
 12         -5.3973224003   -1.3702344755    4.4445627836   -1.4288692549
 13         -5.3973208708   -1.3702354890    4.4445616088   -1.4288693270
 14         -5.3973198783   -1.3702360102    4.4445610034   -1.4288693814
 15         -5.3973192535   -1.3702362780    4.4445606917   -1.4288694190
 16         -5.3973188684   -1.3702364155    4.4445605313   -1.4288694437
 17         -5.3973186349   -1.3702364860    4.4445604489   -1.4288694595
 18         -5.3973184951   -1.3702365221    4.4445604065   -1.4288694693
 19         -5.3973184122   -1.3702365405    4.4445603848   -1.4288694753
Atom SCF converged after  19 iterations to a total energy of     -5.39731841

Atom SCF Calculation for S  : Z (AE atom) =  16 : Z (PS atom) =   6
Config String:
Orbitals (num,occ):  3     2.00 4.00 0.00
Orbitals   (num,l):  3        0    1    2
Real-space Grid (nr,dr,rmax): 1203    0.0066555740    8.0000000000
Spherical Bessel Basis (nsws,lmax,cutoff):   47    2  176.3951722778
Confining potential (l,width,scale):  0    3.0000000000  100.0000000000
Confining potential (l,width,scale):  1    3.0000000000  100.0000000000
Confining potential (l,width,scale):  2    3.0000000000  100.0000000000
  1        -12.4735062396   -1.0328741412   10.1554312477   -2.4512393157
  2         -9.9458301913   -2.4607392455    8.3041325857   -2.0306994528
  3        -10.1450417646   -2.2931184565    8.4831893826   -2.0812538287
  4        -10.1528335592   -2.2733105793    8.5050388867   -2.0896035179
  5        -10.1571940363   -2.2633716629    8.5160794258   -2.0939370707
  6        -10.1594380571   -2.2584938667    8.5215163935   -2.0961289008
  7        -10.1605856507   -2.2561081821    8.5241804044   -2.0972291378
  8        -10.1611799191   -2.2549395235    8.5254868240   -2.0977806248
  9        -10.1614918752   -2.2543658586    8.5261285885   -2.0980571586
 10        -10.1616572884   -2.2540839121    8.5264441898   -2.0981959233
 11        -10.1617455602   -2.2539453058    8.5265994231   -2.0982656006
 12        -10.1617928447   -2.2538772062    8.5266757320   -2.0983006047
 13        -10.1618182292   -2.2538437891    8.5267131983   -2.0983181961
 14        -10.1618318741   -2.2538274201    8.5267315620   -2.0983270391
 15        -10.1618392144   -2.2538194197    8.5267405433   -2.0983314852
 16        -10.1618431651   -2.2538155200    8.5267449245   -2.0983337210
 17        -10.1618452923   -2.2538136252    8.5267470551   -2.0983348455
 18        -10.1618464380   -2.2538127080    8.5267480875   -2.0983354110
 19        -10.1618470552   -2.2538122659    8.5267485856   -2.0983356955
 20        -10.1618473878   -2.2538120540    8.5267488248   -2.0983358386
 21        -10.1618475670   -2.2538119530    8.5267489389   -2.0983359106
 22        -10.1618476637   -2.2538119053    8.5267489929   -2.0983359468
Atom SCF converged after  22 iterations to a total energy of    -10.16184766

Atom SCF Calculation for O  : Z (AE atom) =   8 : Z (PS atom) =   6
Config String:
Orbitals (num,occ):  2     2.00 4.00
Orbitals   (num,l):  2        0    1
Real-space Grid (nr,dr,rmax): 1203    0.0066555740    8.0000000000
Spherical Bessel Basis (nsws,lmax,cutoff):   47    1  176.3951722778
Confining potential (l,width,scale):  0    3.0000000000  100.0000000000
Confining potential (l,width,scale):  1    3.0000000000  100.0000000000
  1         -1.8735052164   -7.5539365035   10.1554312477   -2.4512393157
  2        -16.0318313751   -3.1285771268   13.6395848164   -3.2358799643
  3        -15.9524020423   -3.0762819706   13.6967272503   -3.2536856837
  4        -15.8521515939   -3.0781493909   13.6951909330   -3.2561700440
  5        -15.8357139793   -3.0748501933   13.6988803334   -3.2580493133
  6        -15.8246052853   -3.0740779781   13.6997881576   -3.2588327446
  7        -15.8189019501   -3.0737449687   13.7001869911   -3.2592378801
  8        -15.8159785510   -3.0736026016   13.7003615168   -3.2594475790
  9        -15.8144776168   -3.0735437994   13.7004360379   -3.2595560735
 10        -15.8137058024   -3.0735207882   13.7004667348   -3.2596122456
 11        -15.8133083127   -3.0735125946   13.7004786868   -3.2596413656
 12        -15.8131032938   -3.0735102195   13.7004828997   -3.2596564858
 13        -15.8129973902   -3.0735099286   13.7004840891   -3.2596643505
 14        -15.8129426040   -3.0735102506   13.7004842061   -3.2596684489
 15        -15.8129142203   -3.0735106556   13.7004840157   -3.2596705887
 16        -15.8128994940   -3.0735109855   13.7004837906   -3.2596717080
 17        -15.8128918425   -3.0735112169   13.7004836103   -3.2596722946
 18        -15.8128878614   -3.0735113674   13.7004834848   -3.2596726026
 19        -15.8128857871   -3.0735114608   13.7004834035   -3.2596727646
 20        -15.8128847048   -3.0735115170   13.7004833533   -3.2596728500
 21        -15.8128841394   -3.0735115501   13.7004833231   -3.2596728951
 22        -15.8128838436   -3.0735115693   13.7004833054   -3.2596729190
 23        -15.8128836887   -3.0735115802   13.7004832951   -3.2596729316
 24        -15.8128836074   -3.0735115864   13.7004832893   -3.2596729383
Atom SCF converged after  24 iterations to a total energy of    -15.81288361

========================== Calculation in vacuum ==============================
= Adjusting the following parameters: 
= is_implicit_solvent: F
= is_include_apolar: F
= write_denskern: T
= write_tightbox_ngwfs: T
= restart read filename prefix: ""
= restart write filename prefix: "vacuum_"
===============================================================================

Determining parallel strategy ...
... using space-filling curve
... NGWF load balancing: max    164;  min    163;  average    164
... Projector load balancing: max     36;  min     32;  average     33
... done
Calculating direct Ion-Ion energy ...
Ion-Ion Energy        :    840315.95426638529170
======================= Empirical dispersion information =======================
Model : Elstner
Dispersion Correction Energy: -0.33294921E+01 Hartree
================================================================================
Basis initialisation ...... NGWF spheres initialised
... Projector spheres initialised
... NGWF tight boxes initialised
... Tight-boxes gathered
... NGWF basis size (local,global):    1794584  71816584
... Nonlocal pseudopotential projector initialisation
... done

========================== Sparse matrix information ===========================
                        Overlap matrix filling:   6.83%
                        Density kernel filling: 100.00%
              NGWF-Proj overlap matrix filling:   1.78%
                    Hamiltonian matrix filling:   7.73%
                  NGWF diagonal matrix filling:   0.05%
                             KS matrix filling: 100.00% 
                           KSKS matrix filling: 100.00% 
================================================================================

Sparse matrix initialisation ... done

Generating smeared ion density ... done
Smeared ion self correction:     -14538.952731
Smeared ion non-self correction: -840267.667880
NGWF initialisation ...... done
============ Calculation of NGWF S^-1 using Hotelling algorithm ================ 
         Iteration  |  Frobenius norm and Maximum abs value    (of I-S*S_n^-1)   
               1       0.78734959E+02     0.98265924E+00
               2       0.76892865E+02     0.96579149E+00
               3       0.73905198E+02     0.93338823E+00
               4       0.69649638E+02     0.87338142E+00
               5       0.64338954E+02     0.76975383E+00
               6       0.58360911E+02     0.70394259E+00
               7       0.52338343E+02     0.67044387E+00
               8       0.46772262E+02     0.64432227E+00
               9       0.40714658E+02     0.60521108E+00
              10       0.32474358E+02     0.53764951E+00
              11       0.21906714E+02     0.42840437E+00
              12       0.11256100E+02     0.28285474E+00
              13       0.37400907E+01     0.13413804E+00
              14       0.59734043E+00     0.34739035E-01
              15       0.28100183E-01     0.25989819E-02
              16       0.13622066E-03     0.18405666E-04
              17       0.56413732E-08     0.11427763E-08
              18       0.95130820E-13     0.47739590E-14
================================================================================
Calculating local pseudopotential in open BC on the fine real space grid ...
... done

MG BCs: +ve charge blocks (gridpoints):     19778 (   15517744).
MG BCs: -ve charge blocks (gridpoints):      7939 (    1061902).
MG BCs:     Elided blocks (gridpoints):    177342 (  174197059).
MG BCs: Computational effort saved:  99.9855%.
MG BCs: Charge after coarse-graining:           -9.0002143.
MG DL_MG: Calling solver with defect correction order = 8
MG DL_MG: Solver finished
MG Hartree energy from (\int phi*rho dr):              1471.583229
MG Hartree energy from (\int eps (grad phi)^2 dr):     1470.959807
MG Discrepancy due to finite box and discretization:     -0.623422 (  -0.04236%)
MG Correction to account for finite box:                  0.462917
MG Remaining discrepancy, due to discretization:         -0.160505 (  -0.01091%)
Up spin density kernel initialisation ... 
======= Optimisation of K by Palser-Manolopoulos canonical purification ======== 
         Iteration  |  Band structure energy |    c_n   
               1       -2596.80057726231780    0.5272091
               2       -2773.57548252084143    0.5172363
               3       -2955.16817850597499    0.5152832
               4       -3107.26124745859852    0.5283445
               5       -3201.21262297259227    0.5633862
               6       -3240.75966142940251    0.6082028
               7       -3254.20674397998118    0.6214628
               8       -3259.98139631657250    0.6216832
               9       -3262.76662520903074    0.6362118
              10       -3263.92933509736395    0.6558800
              11       -3264.39912177282804    0.6671571
              12       -3264.60737236774366    0.6607784
              13       -3264.71083321171500    0.6229329
              14       -3264.76863531712661    0.5456293
              15       -3264.80040917697215    0.4480984
              16       -3264.80822025221460    0.4061932
              17       -3264.80939452739176    0.4041265
              18       -3264.81023940894784    0.4028097
              19       -3264.81087472579065    0.4005713
              20       -3264.81127315586491    0.4319236
              21       -3264.81155386975934    0.4745856
              22       -3264.81173032960123    0.4963705
              23       -3264.81178618529293    0.4999264
              24       -3264.81179074191641    0.5000000
              25       -3264.81179077077650    0.5000000
Termination criterion satisfied: band energy change below threshold.
Final occupancy bounds: [    0.00000000000003:    0.99999999999996]
Closest occupancy to 0.5:     0.99999999999999
================================================================================
... done

Writing density kernel to file "complex_16821.vacuum_dkn" ... done

>>> Optimising kernel for current NGWFs:
   Initial electron number for spin 1:    7234.00000000
     Final electron number for spin 1:    7234.00000000

=================== Penalty functional idempotency correction ==================
 RMS occupancy error at iteration   1:  0.000000 (step -0.5000 Ne1=   7234.0000)
            Final RMS occupancy error   :  0.000000 (Ne1=   7234.0000)
               Final occupancy bounds   : [  0.0000,  1.0000]
================================================================================

................................................................................
<<<<<<<<<<<<<< LNV (Original version) density kernel optimisation >>>>>>>>>>>>>>
~~~~~~~~~~~~~~~~~~~~~~~~~~~~~~~~~~~~~~~~~~~~~~~~~~~~~~~~~~~~~~~~~~~~~~~~~~~~~~~~
   iter  |      energy (Eh)       | rms gradient |  commutator  |   dE (Eh)
MG BCs: +ve charge blocks (gridpoints):     30206 (   16718405).
MG BCs: -ve charge blocks (gridpoints):      8295 (    1095065).
MG BCs:     Elided blocks (gridpoints):    166900 (  172963235).
MG BCs: Computational effort saved:  99.9798%.
MG BCs: Charge after coarse-graining:           -9.0009303.
MG DL_MG: Calling solver with defect correction order = 8
MG DL_MG: Solver finished
MG Hartree energy from (\int phi*rho dr):              1426.293086
MG Hartree energy from (\int eps (grad phi)^2 dr):     1425.610975
MG Discrepancy due to finite box and discretization:     -0.682110 (  -0.04782%)
MG Correction to account for finite box:                  0.476601
MG Remaining discrepancy, due to discretization:         -0.205509 (  -0.01441%)
      ideal mu1:      -0.697520869387
             Q0:  -11569.300318747642
             G0:    -144.505164238722
   RMS gradient:       0.001836954475
MG BCs: +ve charge blocks (gridpoints):     30181 (   16799889).
MG BCs: -ve charge blocks (gridpoints):      8164 (    1074553).
MG BCs:     Elided blocks (gridpoints):    166926 (  172902263).
MG BCs: Computational effort saved:  99.9799%.
MG BCs: Charge after coarse-graining:           -9.0009506.
MG DL_MG: Calling solver with defect correction order = 8
MG DL_MG: Solver finished
MG Hartree energy from (\int phi*rho dr):              1451.747086
MG Hartree energy from (\int eps (grad phi)^2 dr):     1451.083336
MG Discrepancy due to finite box and discretization:     -0.663750 (  -0.04572%)
MG Correction to account for finite box:                  0.474893
MG Remaining discrepancy, due to discretization:         -0.188856 (  -0.01301%)
     Trial step:       0.500000000000
             Q1:  -11580.820641075377
 Quadratic coef:      60.732259791626
 Linear coef   :     -72.252582119361
           Qmin:  -11590.789868291931
Quadratic minimum step length (  0.297422582196) accepted
    Initial Ne1:    7234.00000000
      Final Ne1:    7234.00000000

=================== Penalty functional idempotency correction ==================
 RMS occupancy error at iteration   1:  0.003379 (step -0.4885 Ne1=   7234.0000)
 RMS occupancy error at iteration   2:  0.000027 (step -0.5001 Ne1=   7234.0000)
            Final RMS occupancy error   :  0.000000 (Ne1=   7234.0000)
               Final occupancy bounds   : [  0.0000,  1.0000]
================================================================================

    1        -1.156930031875E+04     1.8370E-03     1.6617E-03
MG BCs: +ve charge blocks (gridpoints):     30185 (   16768162).
MG BCs: -ve charge blocks (gridpoints):      8238 (    1083247).
MG BCs:     Elided blocks (gridpoints):    166921 (  172925296).
MG BCs: Computational effort saved:  99.9799%.
MG BCs: Charge after coarse-graining:           -9.0009426.
MG DL_MG: Calling solver with defect correction order = 8
MG DL_MG: Solver finished
MG Hartree energy from (\int phi*rho dr):              1433.514341
MG Hartree energy from (\int eps (grad phi)^2 dr):     1432.844133
MG Discrepancy due to finite box and discretization:     -0.670208 (  -0.04675%)
MG Correction to account for finite box:                  0.475489
MG Remaining discrepancy, due to discretization:         -0.194719 (  -0.01358%)
      ideal mu1:      -0.743957683234
             Q0:  -11591.183693353785
             G0:     -12.088246132946
   RMS gradient:       0.000527785707
MG BCs: +ve charge blocks (gridpoints):     30185 (   16784560).
MG BCs: -ve charge blocks (gridpoints):      8206 (    1078042).
MG BCs:     Elided blocks (gridpoints):    166922 (  172914103).
MG BCs: Computational effort saved:  99.9799%.
MG BCs: Charge after coarse-graining:           -9.0009464.
MG DL_MG: Calling solver with defect correction order = 8
MG DL_MG: Solver finished
MG Hartree energy from (\int phi*rho dr):              1438.815583
MG Hartree energy from (\int eps (grad phi)^2 dr):     1438.149740
MG Discrepancy due to finite box and discretization:     -0.665843 (  -0.04628%)
MG Correction to account for finite box:                  0.474435
MG Remaining discrepancy, due to discretization:         -0.191409 (  -0.01330%)
     Trial step:       0.385631029740
             Q1:  -11594.007121289033
 Quadratic coef:       1.838174868748
 Linear coef   :      -4.661602803996
           Qmin:  -11594.139144039093
Quadratic minimum step length (  0.488979236988) accepted
    Initial Ne1:    7233.99988091
      Final Ne1:    7234.00000000

=================== Penalty functional idempotency correction ==================
 RMS occupancy error at iteration   1:  0.001777 (step -0.4931 Ne1=   7234.0000)
 RMS occupancy error at iteration   2:  0.000012 (step -0.5002 Ne1=   7234.0000)
            Final RMS occupancy error   :  0.000000 (Ne1=   7234.0000)
               Final occupancy bounds   : [  0.0000,  1.0000]
================================================================================

    2        -1.159118369335E+04     5.2779E-04     4.7744E-04    -2.1883E+01
MG BCs: +ve charge blocks (gridpoints):     30182 (   16789005).
MG BCs: -ve charge blocks (gridpoints):      8202 (    1076622).
MG BCs:     Elided blocks (gridpoints):    166925 (  172911078).
MG BCs: Computational effort saved:  99.9799%.
MG BCs: Charge after coarse-graining:           -9.0009475.
MG DL_MG: Calling solver with defect correction order = 8
MG DL_MG: Solver finished
MG Hartree energy from (\int phi*rho dr):              1440.286355
MG Hartree energy from (\int eps (grad phi)^2 dr):     1439.621603
MG Discrepancy due to finite box and discretization:     -0.664752 (  -0.04615%)
MG Correction to account for finite box:                  0.474167
MG Remaining discrepancy, due to discretization:         -0.190585 (  -0.01323%)
      ideal mu1:      -0.769724079260
             Q0:  -11594.175480072736
             G0:      -1.943192314354
   RMS gradient:       0.000211660230
MG BCs: +ve charge blocks (gridpoints):     30187 (   16788749).
MG BCs: -ve charge blocks (gridpoints):      8211 (    1077500).
MG BCs:     Elided blocks (gridpoints):    166918 (  172910456).
MG BCs: Computational effort saved:  99.9799%.
MG BCs: Charge after coarse-graining:           -9.0009470.
MG DL_MG: Calling solver with defect correction order = 8
MG DL_MG: Solver finished
MG Hartree energy from (\int phi*rho dr):              1438.100610
MG Hartree energy from (\int eps (grad phi)^2 dr):     1437.436528
MG Discrepancy due to finite box and discretization:     -0.664082 (  -0.04618%)
MG Correction to account for finite box:                  0.473738
MG Remaining discrepancy, due to discretization:         -0.190344 (  -0.01324%)
     Trial step:       0.434241369150
             Q1:  -11594.672257657512
 Quadratic coef:       0.347036906331
 Linear coef   :      -0.843814491106
           Qmin:  -11594.688410313303
Quadratic minimum step length (  0.527925349210) accepted
    Initial Ne1:    7233.99990472
      Final Ne1:    7234.00000000

=================== Penalty functional idempotency correction ==================
 RMS occupancy error at iteration   1:  0.000643 (step -0.4968 Ne1=   7234.0000)
 RMS occupancy error at iteration   2:  0.000004 (step -0.5000 Ne1=   7234.0000)
            Final RMS occupancy error   :  0.000000 (Ne1=   7234.0000)
               Final occupancy bounds   : [  0.0000,  1.0000]
================================================================================

    3        -1.159417548007E+04     2.1166E-04     1.9147E-04    -2.9918E+00
MG BCs: +ve charge blocks (gridpoints):     30189 (   16788655).
MG BCs: -ve charge blocks (gridpoints):      8209 (    1077795).
MG BCs:     Elided blocks (gridpoints):    166916 (  172910255).
MG BCs: Computational effort saved:  99.9799%.
MG BCs: Charge after coarse-graining:           -9.0009469.
MG DL_MG: Calling solver with defect correction order = 8
MG DL_MG: Solver finished
MG Hartree energy from (\int phi*rho dr):              1437.638966
MG Hartree energy from (\int eps (grad phi)^2 dr):     1436.975018
MG Discrepancy due to finite box and discretization:     -0.663948 (  -0.04618%)
MG Correction to account for finite box:                  0.473646
MG Remaining discrepancy, due to discretization:         -0.190302 (  -0.01324%)
      ideal mu1:      -0.770869618666
             Q0:  -11594.693199029542
             G0:      -0.511413983274
   RMS gradient:       0.000108721380
MG BCs: +ve charge blocks (gridpoints):     30189 (   16789370).
MG BCs: -ve charge blocks (gridpoints):      8212 (    1077559).
MG BCs:     Elided blocks (gridpoints):    166916 (  172909776).
MG BCs: Computational effort saved:  99.9799%.
MG BCs: Charge after coarse-graining:           -9.0009472.
MG DL_MG: Calling solver with defect correction order = 8
MG DL_MG: Solver finished
MG Hartree energy from (\int phi*rho dr):              1438.900669
MG Hartree energy from (\int eps (grad phi)^2 dr):     1438.236777
MG Discrepancy due to finite box and discretization:     -0.663892 (  -0.04614%)
MG Correction to account for finite box:                  0.473484
MG Remaining discrepancy, due to discretization:         -0.190408 (  -0.01323%)
     Trial step:       0.478797479577
             Q1:  -11594.820338077610
 Quadratic coef:       0.117724678143
 Linear coef   :      -0.244863726212
           Qmin:  -11594.820526292951
Quadratic minimum step length (  0.497942049195) accepted
    Initial Ne1:    7233.99997647
      Final Ne1:    7234.00000000

=================== Penalty functional idempotency correction ==================
 RMS occupancy error at iteration   1:  0.000291 (step -0.4956 Ne1=   7234.0000)
 RMS occupancy error at iteration   2:  0.000003 (step -0.5000 Ne1=   7234.0000)
            Final RMS occupancy error   :  0.000000 (Ne1=   7234.0000)
               Final occupancy bounds   : [  0.0000,  1.0000]
================================================================================

    4        -1.159469319903E+04     1.0872E-04     9.8351E-05    -5.1772E-01
MG BCs: +ve charge blocks (gridpoints):     30190 (   16789372).
MG BCs: -ve charge blocks (gridpoints):      8212 (    1077562).
MG BCs:     Elided blocks (gridpoints):    166915 (  172909771).
MG BCs: Computational effort saved:  99.9799%.
MG BCs: Charge after coarse-graining:           -9.0009472.
MG DL_MG: Calling solver with defect correction order = 8
MG DL_MG: Solver finished
MG Hartree energy from (\int phi*rho dr):              1438.951724
MG Hartree energy from (\int eps (grad phi)^2 dr):     1438.287833
MG Discrepancy due to finite box and discretization:     -0.663890 (  -0.04614%)
MG Correction to account for finite box:                  0.473478
MG Remaining discrepancy, due to discretization:         -0.190412 (  -0.01323%)
      ideal mu1:      -0.771215380560
             Q0:  -11594.821167422459
             G0:      -0.188372085540
   RMS gradient:       0.000066159981
MG BCs: +ve charge blocks (gridpoints):     30188 (   16789551).
MG BCs: -ve charge blocks (gridpoints):      8211 (    1077328).
MG BCs:     Elided blocks (gridpoints):    166917 (  172909826).
MG BCs: Computational effort saved:  99.9799%.
MG BCs: Charge after coarse-graining:           -9.0009472.
MG DL_MG: Calling solver with defect correction order = 8
MG DL_MG: Solver finished
MG Hartree energy from (\int phi*rho dr):              1439.345608
MG Hartree energy from (\int eps (grad phi)^2 dr):     1438.681726
MG Discrepancy due to finite box and discretization:     -0.663882 (  -0.04612%)
MG Correction to account for finite box:                  0.473306
MG Remaining discrepancy, due to discretization:         -0.190576 (  -0.01324%)
     Trial step:       0.488275944656
             Q1:  -11594.880307928775
 Quadratic coef:       0.032837051696
 Linear coef   :      -0.091977558014
           Qmin:  -11594.885575391058
Quadratic minimum step length (  0.683837718468) accepted
    Initial Ne1:    7233.99998801
      Final Ne1:    7234.00000000

=================== Penalty functional idempotency correction ==================
 RMS occupancy error at iteration   1:  0.000433 (step -0.4781 Ne1=   7234.0000)
 RMS occupancy error at iteration   2:  0.000009 (step -0.5001 Ne1=   7234.0000)
            Final RMS occupancy error   :  0.000000 (Ne1=   7234.0000)
               Final occupancy bounds   : [  0.0000,  1.0000]
================================================================================

    5        -1.159482116742E+04     6.6160E-05     5.9849E-05    -1.2797E-01
MG BCs: +ve charge blocks (gridpoints):     30186 (   16789573).
MG BCs: -ve charge blocks (gridpoints):      8209 (    1077294).
MG BCs:     Elided blocks (gridpoints):    166919 (  172909838).
MG BCs: Computational effort saved:  99.9799%.
MG BCs: Charge after coarse-graining:           -9.0009471.
MG DL_MG: Calling solver with defect correction order = 8
MG DL_MG: Solver finished
MG Hartree energy from (\int phi*rho dr):              1439.502465
MG Hartree energy from (\int eps (grad phi)^2 dr):     1438.838589
MG Discrepancy due to finite box and discretization:     -0.663876 (  -0.04612%)
MG Correction to account for finite box:                  0.473234
MG Remaining discrepancy, due to discretization:         -0.190642 (  -0.01324%)
      ideal mu1:      -0.771499158988
             Q0:  -11594.885238651186
             G0:      -0.160498870561
   RMS gradient:       0.000061449023
MG BCs: +ve charge blocks (gridpoints):     30186 (   16788827).
MG BCs: -ve charge blocks (gridpoints):      8209 (    1077770).
MG BCs:     Elided blocks (gridpoints):    166919 (  172910108).
MG BCs: Computational effort saved:  99.9799%.
MG BCs: Charge after coarse-graining:           -9.0009469.
MG DL_MG: Calling solver with defect correction order = 8
MG DL_MG: Solver finished
MG Hartree energy from (\int phi*rho dr):              1438.233614
MG Hartree energy from (\int eps (grad phi)^2 dr):     1437.569999
MG Discrepancy due to finite box and discretization:     -0.663614 (  -0.04614%)
MG Correction to account for finite box:                  0.472985
MG Remaining discrepancy, due to discretization:         -0.190629 (  -0.01325%)
     Trial step:       0.577842113364
             Q1:  -11594.955931895995
 Quadratic coef:       0.022049761748
 Linear coef   :      -0.092743006557
           Qmin:  -11594.982759719252
Quadratic minimum step length (  1.215224352998) accepted
    Initial Ne1:    7233.99992801
      Final Ne1:    7234.00000000

=================== Penalty functional idempotency correction ==================
 RMS occupancy error at iteration   1:  0.003182 (step -0.3558 Ne1=   7234.0000)
 RMS occupancy error at iteration   2:  0.000212 (step -0.4942 Ne1=   7234.0000)
 RMS occupancy error at iteration   3:  0.000004 (step -0.5000 Ne1=   7234.0000)
            Final RMS occupancy error   :  0.000000 (Ne1=   7234.0000)
               Final occupancy bounds   : [  0.0000,  1.0000]
================================================================================

    6        -1.159488523865E+04     6.1449E-05     5.5588E-05    -6.4071E-02
MG BCs: +ve charge blocks (gridpoints):     30187 (   16788066).
MG BCs: -ve charge blocks (gridpoints):      8211 (    1078238).
MG BCs:     Elided blocks (gridpoints):    166919 (  172910401).
MG BCs: Computational effort saved:  99.9799%.
MG BCs: Charge after coarse-graining:           -9.0009466.
MG DL_MG: Calling solver with defect correction order = 8
MG DL_MG: Solver finished
MG Hartree energy from (\int phi*rho dr):              1436.841760
MG Hartree energy from (\int eps (grad phi)^2 dr):     1436.178411
MG Discrepancy due to finite box and discretization:     -0.663349 (  -0.04617%)
MG Correction to account for finite box:                  0.472733
MG Remaining discrepancy, due to discretization:         -0.190616 (  -0.01327%)
      ideal mu1:      -0.771640825164
             Q0:  -11594.966862289701
             G0:      -0.305350194439
   RMS gradient:       0.000084441475
MG BCs: +ve charge blocks (gridpoints):     30189 (   16790570).
MG BCs: -ve charge blocks (gridpoints):      8208 (    1076789).
MG BCs:     Elided blocks (gridpoints):    166916 (  172909346).
MG BCs: Computational effort saved:  99.9799%.
MG BCs: Charge after coarse-graining:           -9.0009475.
MG DL_MG: Calling solver with defect correction order = 8
MG DL_MG: Solver finished
MG Hartree energy from (\int phi*rho dr):              1440.310895
MG Hartree energy from (\int eps (grad phi)^2 dr):     1439.647785
MG Discrepancy due to finite box and discretization:     -0.663111 (  -0.04604%)
MG Correction to account for finite box:                  0.472660
MG Remaining discrepancy, due to discretization:         -0.190451 (  -0.01322%)
     Trial step:       0.837978405657
             Q1:  -11595.046376872691
 Quadratic coef:       0.176362286113
 Linear coef   :      -0.255876869103
           Qmin:  -11595.059672625721
Quadratic minimum step length (  0.607894396081) accepted
    Initial Ne1:    7233.99999914
      Final Ne1:    7234.00000000

=================== Penalty functional idempotency correction ==================
 RMS occupancy error at iteration   1:  0.000172 (step -0.4880 Ne1=   7234.0000)
 RMS occupancy error at iteration   2:  0.000001 (step -0.5000 Ne1=   7234.0000)
            Final RMS occupancy error   :  0.000000 (Ne1=   7234.0000)
               Final occupancy bounds   : [  0.0000,  1.0000]
================================================================================

    7        -1.159496686229E+04     8.4441E-05     7.6387E-05    -8.1624E-02
MG BCs: +ve charge blocks (gridpoints):     30189 (   16789870).
MG BCs: -ve charge blocks (gridpoints):      8209 (    1077160).
MG BCs:     Elided blocks (gridpoints):    166917 (  172909675).
MG BCs: Computational effort saved:  99.9799%.
MG BCs: Charge after coarse-graining:           -9.0009473.
MG DL_MG: Calling solver with defect correction order = 8
MG DL_MG: Solver finished
MG Hartree energy from (\int phi*rho dr):              1439.353888
MG Hartree energy from (\int eps (grad phi)^2 dr):     1438.690711
MG Discrepancy due to finite box and discretization:     -0.663176 (  -0.04607%)
MG Correction to account for finite box:                  0.472682
MG Remaining discrepancy, due to discretization:         -0.190495 (  -0.01323%)
      ideal mu1:      -0.772639886765
             Q0:  -11595.059894661419
             G0:      -0.223660284636
   RMS gradient:       0.000072195646
MG BCs: +ve charge blocks (gridpoints):     30187 (   16789866).
MG BCs: -ve charge blocks (gridpoints):      8211 (    1077168).
MG BCs:     Elided blocks (gridpoints):    166918 (  172909671).
MG BCs: Computational effort saved:  99.9799%.
MG BCs: Charge after coarse-graining:           -9.0009474.
MG DL_MG: Calling solver with defect correction order = 8
MG DL_MG: Solver finished
MG Hartree energy from (\int phi*rho dr):              1439.329633
MG Hartree energy from (\int eps (grad phi)^2 dr):     1438.666761
MG Discrepancy due to finite box and discretization:     -0.662872 (  -0.04605%)
MG Correction to account for finite box:                  0.472550
MG Remaining discrepancy, due to discretization:         -0.190321 (  -0.01322%)
     Trial step:       0.713724300298
             Q1:  -11595.159353260882
 Quadratic coef:       0.060173180693
 Linear coef   :      -0.159631780156
           Qmin:  -11595.165765353904
Quadratic minimum step length (  0.946709807304) accepted
    Initial Ne1:    7233.99999875
      Final Ne1:    7234.00000000

=================== Penalty functional idempotency correction ==================
 RMS occupancy error at iteration   1:  0.001729 (step -0.4011 Ne1=   7234.0000)
 RMS occupancy error at iteration   2:  0.000078 (step -0.4958 Ne1=   7234.0000)
 RMS occupancy error at iteration   3:  0.000000 (step -0.5000 Ne1=   7234.0000)
            Final RMS occupancy error   :  0.000000 (Ne1=   7234.0000)
               Final occupancy bounds   : [  0.0000,  1.0000]
================================================================================

    8        -1.159505989466E+04     7.2196E-05     6.5309E-05    -9.3032E-02
MG BCs: +ve charge blocks (gridpoints):     30187 (   16789896).
MG BCs: -ve charge blocks (gridpoints):      8208 (    1077171).
MG BCs:     Elided blocks (gridpoints):    166918 (  172909638).
MG BCs: Computational effort saved:  99.9799%.
MG BCs: Charge after coarse-graining:           -9.0009474.
MG DL_MG: Calling solver with defect correction order = 8
MG DL_MG: Solver finished
MG Hartree energy from (\int phi*rho dr):              1439.327076
MG Hartree energy from (\int eps (grad phi)^2 dr):     1438.664300
MG Discrepancy due to finite box and discretization:     -0.662777 (  -0.04605%)
MG Correction to account for finite box:                  0.472509
MG Remaining discrepancy, due to discretization:         -0.190267 (  -0.01322%)
      ideal mu1:      -0.772168528252
             Q0:  -11595.162441862165
             G0:      -0.284284361625
   RMS gradient:       0.000082425130
MG BCs: +ve charge blocks (gridpoints):     30191 (   16788858).
MG BCs: -ve charge blocks (gridpoints):      8208 (    1077850).
MG BCs:     Elided blocks (gridpoints):    166915 (  172909997).
MG BCs: Computational effort saved:  99.9799%.
MG BCs: Charge after coarse-graining:           -9.0009471.
MG DL_MG: Calling solver with defect correction order = 8
MG DL_MG: Solver finished
MG Hartree energy from (\int phi*rho dr):              1437.621978
MG Hartree energy from (\int eps (grad phi)^2 dr):     1436.959448
MG Discrepancy due to finite box and discretization:     -0.662530 (  -0.04609%)
MG Correction to account for finite box:                  0.472384
MG Remaining discrepancy, due to discretization:         -0.190146 (  -0.01323%)
     Trial step:       0.822003524812
             Q1:  -11595.226822142256
 Quadratic coef:       0.169302467213
 Linear coef   :      -0.233682747304
           Qmin:  -11595.243078056201
Quadratic minimum step length (  0.567292506524) accepted
    Initial Ne1:    7233.99999901
      Final Ne1:    7234.00000000

=================== Penalty functional idempotency correction ==================
 RMS occupancy error at iteration   1:  0.003629 (step -0.3349 Ne1=   7234.0000)
 RMS occupancy error at iteration   2:  0.000258 (step -0.4859 Ne1=   7234.0000)
 RMS occupancy error at iteration   3:  0.000005 (step -0.5003 Ne1=   7234.0000)
            Final RMS occupancy error   :  0.000000 (Ne1=   7234.0000)
               Final occupancy bounds   : [  0.0000,  1.0000]
================================================================================

    9        -1.159516244186E+04     8.2425E-05     7.4563E-05    -1.0255E-01
MG BCs: +ve charge blocks (gridpoints):     30190 (   16789186).
MG BCs: -ve charge blocks (gridpoints):      8208 (    1077642).
MG BCs:     Elided blocks (gridpoints):    166915 (  172909877).
MG BCs: Computational effort saved:  99.9799%.
MG BCs: Charge after coarse-graining:           -9.0009471.
MG DL_MG: Calling solver with defect correction order = 8
MG DL_MG: Solver finished
MG Hartree energy from (\int phi*rho dr):              1438.133263
MG Hartree energy from (\int eps (grad phi)^2 dr):     1437.470699
MG Discrepancy due to finite box and discretization:     -0.662564 (  -0.04607%)
MG Correction to account for finite box:                  0.472397
MG Remaining discrepancy, due to discretization:         -0.190167 (  -0.01322%)
      ideal mu1:      -0.771213623541
   10        -1.159525454167E+04     6.8711E-05     6.2157E-05    -9.2100E-02
Finished density kernel iterations (  10)

Writing density kernel to file "complex_16821.vacuum_dkn" ... done


>>> Density kernel optimised for the current NGWF basis:
     ~~~~~~~~~~~~~~~~~~~~~~~~~~~~~~~~~~~~~~~~~~~~~~~~~~~~~~~~~~~
     Total energy                =  -1.15952545416731E+04  Eh
     Estimated bandgap           =  -3.9744E-01  Eh
     RMS occupancy error         =   1.3851E-09
     [H,K] commutator            =   6.2157E-05
     Occupancy bounds            = [  0.000:  1.000]
     ~~~~~~~~~~~~~~~~~~~~~~~~~~~~~~~~~~~~~~~~~~~~~~~~~~~~~~~~~~~




################################################################################
########################### NGWF CG iteration  001 #############################
################################################################################
****** Reciprocal space K.E. preconditioning with k_zero =  3.5000 a0^-1 *******

>>> Checking for convergence of NGWFs:   NOT CONVERGED
  ========================================================================
         NGWF RMS gradient =  1.6321E-03 >  2.0000E-06  | above tolerance
  ========================================================================

>>> Improving NGWFs using line search:
============ Calculation of NGWF S^-1 using Hotelling algorithm ================ 
         Iteration  |  Frobenius norm and Maximum abs value    (of I-S*S_n^-1)   
               1       0.20475217E+00     0.56837261E-02
               2       0.98299221E-03     0.51033517E-04
               3       0.39378727E-07     0.39855786E-08
               4       0.13380518E-12     0.77715612E-14
================================================================================
MG BCs: +ve charge blocks (gridpoints):     29723 (   16728599).
MG BCs: -ve charge blocks (gridpoints):      8209 (    1077551).
MG BCs:     Elided blocks (gridpoints):    167389 (  172970555).
MG BCs: Computational effort saved:  99.9801%.
MG BCs: Charge after coarse-graining:           -9.0009509.
MG DL_MG: Calling solver with defect correction order = 8
MG DL_MG: Solver finished
MG Hartree energy from (\int phi*rho dr):              1405.708924
MG Hartree energy from (\int eps (grad phi)^2 dr):     1405.047329
MG Discrepancy due to finite box and discretization:     -0.661595 (  -0.04706%)
MG Correction to account for finite box:                  0.472302
MG Remaining discrepancy, due to discretization:         -0.189293 (  -0.01347%)
============ Calculation of NGWF S^-1 using Hotelling algorithm ================ 
         Iteration  |  Frobenius norm and Maximum abs value    (of I-S*S_n^-1)   
               1       0.18384764E+01     0.45378912E-01
               2       0.70468159E-01     0.28750216E-02
               3       0.14353097E-03     0.12703330E-04
               4       0.11619225E-08     0.25334435E-09
               5       0.11274670E-12     0.57731597E-14
================================================================================
------------------------------- NGWF line search -------------------------------
RMS gradient                =       0.00163207850374
Trial step length           =               0.122474
Gradient along search dir.  =       -285.21731774105
Functional at step 0        =  -11595.25454167311545
Functional at step 1        =  -11627.44133652886376
Functional predicted        =  -11706.38492530044641
Selected quadratic step     =               0.779268
--------------------------- NGWF line search finished --------------------------
                                               
Writing NGWFs to file "complex_16821.vacuum_tightbox_ngwfs"....  done

>>> Optimising kernel for current NGWFs:
   Initial electron number for spin 1:    7268.86874296
     Final electron number for spin 1:    7234.00000000

=================== Penalty functional idempotency correction ==================
 RMS occupancy error at iteration   1:  0.004352 (step -0.4854 Ne1=   7234.0000)
 RMS occupancy error at iteration   2:  0.000073 (step -0.5002 Ne1=   7234.0000)
            Final RMS occupancy error   :  0.000000 (Ne1=   7234.0000)
               Final occupancy bounds   : [  0.0000,  1.0000]
================================================================================

................................................................................
<<<<<<<<<<<<<< LNV (Original version) density kernel optimisation >>>>>>>>>>>>>>
~~~~~~~~~~~~~~~~~~~~~~~~~~~~~~~~~~~~~~~~~~~~~~~~~~~~~~~~~~~~~~~~~~~~~~~~~~~~~~~~
   iter  |      energy (Eh)       | rms gradient |  commutator  |   dE (Eh)
MG BCs: +ve charge blocks (gridpoints):     24223 (   16393408).
MG BCs: -ve charge blocks (gridpoints):      8334 (    1061757).
MG BCs:     Elided blocks (gridpoints):    172897 (  173321540).
MG BCs: Computational effort saved:  99.9829%.
MG BCs: Charge after coarse-graining:           -9.0006632.
MG DL_MG: Calling solver with defect correction order = 8
MG DL_MG: Solver finished
MG Hartree energy from (\int phi*rho dr):              1253.513557
MG Hartree energy from (\int eps (grad phi)^2 dr):     1252.852169
MG Discrepancy due to finite box and discretization:     -0.661387 (  -0.05276%)
MG Correction to account for finite box:                  0.471864
MG Remaining discrepancy, due to discretization:         -0.189524 (  -0.01512%)
      ideal mu1:      -0.712343693292
             Q0:  -11705.618733533891
             G0:      -9.637739790269
   RMS gradient:       0.000474399593
MG BCs: +ve charge blocks (gridpoints):     24273 (   16405941).
MG BCs: -ve charge blocks (gridpoints):      8326 (    1058957).
MG BCs:     Elided blocks (gridpoints):    172847 (  173311807).
MG BCs: Computational effort saved:  99.9829%.
MG BCs: Charge after coarse-graining:           -9.0006591.
MG DL_MG: Calling solver with defect correction order = 8
MG DL_MG: Solver finished
MG Hartree energy from (\int phi*rho dr):              1267.588713
MG Hartree energy from (\int eps (grad phi)^2 dr):     1266.922258
MG Discrepancy due to finite box and discretization:     -0.666456 (  -0.05258%)
MG Correction to account for finite box:                  0.471099
MG Remaining discrepancy, due to discretization:         -0.195357 (  -0.01541%)
     Trial step:       0.682873663251
             Q1:  -11705.427928882535
 Quadratic coef:       6.772163327398
 Linear coef   :      -6.581358676042
           Qmin:  -11707.217716012927
Quadratic minimum step length (  0.331816901853) accepted
    Initial Ne1:    7233.99957416
      Final Ne1:    7234.00000000

=================== Penalty functional idempotency correction ==================
 RMS occupancy error at iteration   1:  0.000349 (step -0.4986 Ne1=   7234.0000)
 RMS occupancy error at iteration   2:  0.000000 (step -0.5000 Ne1=   7234.0000)
            Final RMS occupancy error   :  0.000000 (Ne1=   7234.0000)
               Final occupancy bounds   : [  0.0000,  1.0000]
================================================================================

    1        -1.170561873353E+04     4.7440E-04     4.2915E-04
MG BCs: +ve charge blocks (gridpoints):     24255 (   16399531).
MG BCs: -ve charge blocks (gridpoints):      8331 (    1060410).
MG BCs:     Elided blocks (gridpoints):    172865 (  173316764).
MG BCs: Computational effort saved:  99.9829%.
MG BCs: Charge after coarse-graining:           -9.0006612.
MG DL_MG: Calling solver with defect correction order = 8
MG DL_MG: Solver finished
MG Hartree energy from (\int phi*rho dr):              1259.516626
MG Hartree energy from (\int eps (grad phi)^2 dr):     1258.852866
MG Discrepancy due to finite box and discretization:     -0.663760 (  -0.05270%)
MG Correction to account for finite box:                  0.471471
MG Remaining discrepancy, due to discretization:         -0.192290 (  -0.01527%)
      ideal mu1:      -0.718298725183
             Q0:  -11707.195817477535
             G0:      -1.051771525851
   RMS gradient:       0.000157239262
MG BCs: +ve charge blocks (gridpoints):     24260 (   16398643).
MG BCs: -ve charge blocks (gridpoints):      8333 (    1061361).
MG BCs:     Elided blocks (gridpoints):    172860 (  173316701).
MG BCs: Computational effort saved:  99.9829%.
MG BCs: Charge after coarse-graining:           -9.0006613.
MG DL_MG: Calling solver with defect correction order = 8
MG DL_MG: Solver finished
MG Hartree energy from (\int phi*rho dr):              1260.342395
MG Hartree energy from (\int eps (grad phi)^2 dr):     1259.678308
MG Discrepancy due to finite box and discretization:     -0.664086 (  -0.05269%)
MG Correction to account for finite box:                  0.471359
MG Remaining discrepancy, due to discretization:         -0.192727 (  -0.01529%)
     Trial step:       0.476013679737
             Q1:  -11707.425244886428
 Quadratic coef:       0.271230225371
 Linear coef   :      -0.500657634263
           Qmin:  -11707.426855580316
Quadratic minimum step length (  0.439331351157) accepted
    Initial Ne1:    7233.99993805
      Final Ne1:    7234.00000000

=================== Penalty functional idempotency correction ==================
 RMS occupancy error at iteration   1:  0.000171 (step -0.4986 Ne1=   7234.0000)
 RMS occupancy error at iteration   2:  0.000001 (step -0.5000 Ne1=   7234.0000)
            Final RMS occupancy error   :  0.000000 (Ne1=   7234.0000)
               Final occupancy bounds   : [  0.0000,  1.0000]
================================================================================

    2        -1.170719581748E+04     1.5724E-04     1.4224E-04    -1.5771E+00
MG BCs: +ve charge blocks (gridpoints):     24261 (   16398689).
MG BCs: -ve charge blocks (gridpoints):      8334 (    1061317).
MG BCs:     Elided blocks (gridpoints):    172859 (  173316699).
MG BCs: Computational effort saved:  99.9829%.
MG BCs: Charge after coarse-graining:           -9.0006612.
MG DL_MG: Calling solver with defect correction order = 8
MG DL_MG: Solver finished
MG Hartree energy from (\int phi*rho dr):              1260.278729
MG Hartree energy from (\int eps (grad phi)^2 dr):     1259.614670
MG Discrepancy due to finite box and discretization:     -0.664060 (  -0.05269%)
MG Correction to account for finite box:                  0.471368
MG Remaining discrepancy, due to discretization:         -0.192692 (  -0.01529%)
      ideal mu1:      -0.718869241111
             Q0:  -11707.427353774779
             G0:      -0.189493375799
   RMS gradient:       0.000066449249
MG BCs: +ve charge blocks (gridpoints):     24256 (   16397871).
MG BCs: -ve charge blocks (gridpoints):      8335 (    1061727).
MG BCs:     Elided blocks (gridpoints):    172864 (  173317107).
MG BCs: Computational effort saved:  99.9829%.
MG BCs: Charge after coarse-graining:           -9.0006614.
MG DL_MG: Calling solver with defect correction order = 8
MG DL_MG: Solver finished
MG Hartree energy from (\int phi*rho dr):              1259.686413
MG Hartree energy from (\int eps (grad phi)^2 dr):     1259.022434
MG Discrepancy due to finite box and discretization:     -0.663979 (  -0.05271%)
MG Correction to account for finite box:                  0.471307
MG Remaining discrepancy, due to discretization:         -0.192671 (  -0.01530%)
     Trial step:       0.457304857932
             Q1:  -11707.488110493636
 Quadratic coef:       0.025899522443
 Linear coef   :      -0.086656241299
           Qmin:  -11707.499838742142
Quadratic minimum step length (  0.765039591043) accepted
    Initial Ne1:    7233.99998071
      Final Ne1:    7234.00000000

=================== Penalty functional idempotency correction ==================
 RMS occupancy error at iteration   1:  0.000258 (step -0.4866 Ne1=   7234.0000)
 RMS occupancy error at iteration   2:  0.000003 (step -0.5000 Ne1=   7234.0000)
            Final RMS occupancy error   :  0.000000 (Ne1=   7234.0000)
               Final occupancy bounds   : [  0.0000,  1.0000]
================================================================================

    3        -1.170742735377E+04     6.6449E-05     6.0111E-05    -2.3154E-01
MG BCs: +ve charge blocks (gridpoints):     24256 (   16397456).
MG BCs: -ve charge blocks (gridpoints):      8337 (    1061977).
MG BCs:     Elided blocks (gridpoints):    172864 (  173317272).
MG BCs: Computational effort saved:  99.9829%.
MG BCs: Charge after coarse-graining:           -9.0006613.
MG DL_MG: Calling solver with defect correction order = 8
MG DL_MG: Solver finished
MG Hartree energy from (\int phi*rho dr):              1259.288596
MG Hartree energy from (\int eps (grad phi)^2 dr):     1258.624669
MG Discrepancy due to finite box and discretization:     -0.663926 (  -0.05272%)
MG Correction to account for finite box:                  0.471268
MG Remaining discrepancy, due to discretization:         -0.192658 (  -0.01530%)
      ideal mu1:      -0.717383022973
             Q0:  -11707.499775343225
             G0:      -0.086155927245
   RMS gradient:       0.000044856948
MG BCs: +ve charge blocks (gridpoints):     24256 (   16397465).
MG BCs: -ve charge blocks (gridpoints):      8335 (    1061952).
MG BCs:     Elided blocks (gridpoints):    172864 (  173317288).
MG BCs: Computational effort saved:  99.9829%.
MG BCs: Charge after coarse-graining:           -9.0006614.
MG DL_MG: Calling solver with defect correction order = 8
MG DL_MG: Solver finished
MG Hartree energy from (\int phi*rho dr):              1259.353147
MG Hartree energy from (\int eps (grad phi)^2 dr):     1258.689423
MG Discrepancy due to finite box and discretization:     -0.663724 (  -0.05270%)
MG Correction to account for finite box:                  0.471217
MG Remaining discrepancy, due to discretization:         -0.192507 (  -0.01529%)
     Trial step:       0.591486535345
             Q1:  -11707.531099669402
 Quadratic coef:       0.019635744729
 Linear coef   :      -0.050960070906
           Qmin:  -11707.532839136609
Quadratic minimum step length (  0.767533806238) accepted
    Initial Ne1:    7233.99999023
      Final Ne1:    7234.00000000

=================== Penalty functional idempotency correction ==================
 RMS occupancy error at iteration   1:  0.000456 (step -0.4736 Ne1=   7234.0000)
 RMS occupancy error at iteration   2:  0.000005 (step -0.5000 Ne1=   7234.0000)
            Final RMS occupancy error   :  0.000000 (Ne1=   7234.0000)
               Final occupancy bounds   : [ -0.0000,  1.0000]
================================================================================

    4        -1.170749977534E+04     4.4857E-05     4.0578E-05    -7.2422E-02
MG BCs: +ve charge blocks (gridpoints):     24256 (   16397517).
MG BCs: -ve charge blocks (gridpoints):      8335 (    1061904).
MG BCs:     Elided blocks (gridpoints):    172864 (  173317284).
MG BCs: Computational effort saved:  99.9829%.
MG BCs: Charge after coarse-graining:           -9.0006614.
MG DL_MG: Calling solver with defect correction order = 8
MG DL_MG: Solver finished
MG Hartree energy from (\int phi*rho dr):              1259.374374
MG Hartree energy from (\int eps (grad phi)^2 dr):     1258.710710
MG Discrepancy due to finite box and discretization:     -0.663664 (  -0.05270%)
MG Correction to account for finite box:                  0.471202
MG Remaining discrepancy, due to discretization:         -0.192462 (  -0.01528%)
      ideal mu1:      -0.717677208802
             Q0:  -11707.532865786343
             G0:      -0.076477814663
   RMS gradient:       0.000042098320
MG BCs: +ve charge blocks (gridpoints):     24258 (   16399033).
MG BCs: -ve charge blocks (gridpoints):      8332 (    1061370).
MG BCs:     Elided blocks (gridpoints):    172862 (  173316302).
MG BCs: Computational effort saved:  99.9829%.
MG BCs: Charge after coarse-graining:           -9.0006610.
MG DL_MG: Calling solver with defect correction order = 8
MG DL_MG: Solver finished
MG Hartree energy from (\int phi*rho dr):              1260.391789
MG Hartree energy from (\int eps (grad phi)^2 dr):     1259.728248
MG Discrepancy due to finite box and discretization:     -0.663541 (  -0.05265%)
MG Correction to account for finite box:                  0.471158
MG Remaining discrepancy, due to discretization:         -0.192383 (  -0.01526%)
     Trial step:       0.673784766681
             Q1:  -11707.560333414585
 Quadratic coef:       0.024061958267
 Linear coef   :      -0.051529586509
           Qmin:  -11707.560453922108
Quadratic minimum step length (  0.721467680174) accepted
    Initial Ne1:    7233.99999427
      Final Ne1:    7234.00000000

=================== Penalty functional idempotency correction ==================
 RMS occupancy error at iteration   1:  0.000958 (step -0.4477 Ne1=   7234.0000)
 RMS occupancy error at iteration   2:  0.000015 (step -0.4998 Ne1=   7234.0000)
            Final RMS occupancy error   :  0.000000 (Ne1=   7234.0000)
               Final occupancy bounds   : [  0.0000,  1.0000]
================================================================================

    5        -1.170753286579E+04     4.2098E-05     3.8083E-05    -3.3090E-02
MG BCs: +ve charge blocks (gridpoints):     24258 (   16399147).
MG BCs: -ve charge blocks (gridpoints):      8331 (    1061321).
MG BCs:     Elided blocks (gridpoints):    172862 (  173316237).
MG BCs: Computational effort saved:  99.9829%.
MG BCs: Charge after coarse-graining:           -9.0006610.
MG DL_MG: Calling solver with defect correction order = 8
MG DL_MG: Solver finished
MG Hartree energy from (\int phi*rho dr):              1260.464418
MG Hartree energy from (\int eps (grad phi)^2 dr):     1259.800884
MG Discrepancy due to finite box and discretization:     -0.663533 (  -0.05264%)
MG Correction to account for finite box:                  0.471156
MG Remaining discrepancy, due to discretization:         -0.192378 (  -0.01526%)
      ideal mu1:      -0.718747491807
             Q0:  -11707.560957188252
             G0:      -0.050482085485
   RMS gradient:       0.000033583308
MG BCs: +ve charge blocks (gridpoints):     24258 (   16399010).
MG BCs: -ve charge blocks (gridpoints):      8332 (    1061461).
MG BCs:     Elided blocks (gridpoints):    172862 (  173316234).
MG BCs: Computational effort saved:  99.9829%.
MG BCs: Charge after coarse-graining:           -9.0006611.
MG DL_MG: Calling solver with defect correction order = 8
MG DL_MG: Solver finished
MG Hartree energy from (\int phi*rho dr):              1260.173457
MG Hartree energy from (\int eps (grad phi)^2 dr):     1259.509972
MG Discrepancy due to finite box and discretization:     -0.663484 (  -0.05265%)
MG Correction to account for finite box:                  0.471072
MG Remaining discrepancy, due to discretization:         -0.192412 (  -0.01527%)
     Trial step:       0.697218712137
             Q1:  -11707.583087380975
 Quadratic coef:       0.013066861904
 Linear coef   :      -0.035197054628
           Qmin:  -11707.584658989488
Quadratic minimum step length (  0.939018307496) accepted
    Initial Ne1:    7234.00004690
      Final Ne1:    7234.00000000

=================== Penalty functional idempotency correction ==================
 RMS occupancy error at iteration   1:  0.001540 (step -0.4224 Ne1=   7234.0000)
 RMS occupancy error at iteration   2:  0.000022 (step -0.4998 Ne1=   7234.0000)
            Final RMS occupancy error   :  0.000000 (Ne1=   7234.0000)
               Final occupancy bounds   : [  0.0000,  1.0000]
================================================================================

    6        -1.170756095719E+04     3.3583E-05     3.0380E-05    -2.8091E-02
MG BCs: +ve charge blocks (gridpoints):     24257 (   16398949).
MG BCs: -ve charge blocks (gridpoints):      8332 (    1061524).
MG BCs:     Elided blocks (gridpoints):    172863 (  173316232).
MG BCs: Computational effort saved:  99.9829%.
MG BCs: Charge after coarse-graining:           -9.0006611.
MG DL_MG: Calling solver with defect correction order = 8
MG DL_MG: Solver finished
MG Hartree energy from (\int phi*rho dr):              1260.073990
MG Hartree energy from (\int eps (grad phi)^2 dr):     1259.410518
MG Discrepancy due to finite box and discretization:     -0.663473 (  -0.05265%)
MG Correction to account for finite box:                  0.471049
MG Remaining discrepancy, due to discretization:         -0.192424 (  -0.01527%)
      ideal mu1:      -0.718822420806
             Q0:  -11707.585649442975
             G0:      -0.041283656474
   RMS gradient:       0.000031048869
MG BCs: +ve charge blocks (gridpoints):     24257 (   16397710).
MG BCs: -ve charge blocks (gridpoints):      8334 (    1061782).
MG BCs:     Elided blocks (gridpoints):    172863 (  173317213).
MG BCs: Computational effort saved:  99.9829%.
MG BCs: Charge after coarse-graining:           -9.0006614.
MG DL_MG: Calling solver with defect correction order = 8
MG DL_MG: Solver finished
MG Hartree energy from (\int phi*rho dr):              1259.540030
MG Hartree energy from (\int eps (grad phi)^2 dr):     1258.876502
MG Discrepancy due to finite box and discretization:     -0.663528 (  -0.05268%)
MG Correction to account for finite box:                  0.471077
MG Remaining discrepancy, due to discretization:         -0.192451 (  -0.01528%)
     Trial step:       0.809136042348
             Q1:  -11707.594885591301
 Quadratic coef:       0.024167946087
 Linear coef   :      -0.033404094413
           Qmin:  -11707.597191937315
Quadratic minimum step length (  0.559179846203) accepted
    Initial Ne1:    7234.00003629
      Final Ne1:    7234.00000000

=================== Penalty functional idempotency correction ==================
 RMS occupancy error at iteration   1:  0.000020 (step -0.4988 Ne1=   7234.0000)
            Final RMS occupancy error   :  0.000000 (Ne1=   7234.0000)
               Final occupancy bounds   : [ -0.0000,  1.0000]
================================================================================

    7        -1.170758564944E+04     3.1049E-05     2.8087E-05    -2.4692E-02
MG BCs: +ve charge blocks (gridpoints):     24259 (   16398149).
MG BCs: -ve charge blocks (gridpoints):      8334 (    1061675).
MG BCs:     Elided blocks (gridpoints):    172861 (  173316881).
MG BCs: Computational effort saved:  99.9829%.
MG BCs: Charge after coarse-graining:           -9.0006612.
MG DL_MG: Calling solver with defect correction order = 8
MG DL_MG: Solver finished
MG Hartree energy from (\int phi*rho dr):              1259.703525
MG Hartree energy from (\int eps (grad phi)^2 dr):     1259.040014
MG Discrepancy due to finite box and discretization:     -0.663511 (  -0.05267%)
MG Correction to account for finite box:                  0.471069
MG Remaining discrepancy, due to discretization:         -0.192442 (  -0.01528%)
      ideal mu1:      -0.718347898234
             Q0:  -11707.597195090493
             G0:      -0.029848815545
   RMS gradient:       0.000026396242
MG BCs: +ve charge blocks (gridpoints):     24258 (   16397983).
MG BCs: -ve charge blocks (gridpoints):      8335 (    1061677).
MG BCs:     Elided blocks (gridpoints):    172862 (  173317045).
MG BCs: Computational effort saved:  99.9829%.
MG BCs: Charge after coarse-graining:           -9.0006613.
MG DL_MG: Calling solver with defect correction order = 8
MG DL_MG: Solver finished
MG Hartree energy from (\int phi*rho dr):              1259.569738
MG Hartree energy from (\int eps (grad phi)^2 dr):     1258.906209
MG Discrepancy due to finite box and discretization:     -0.663529 (  -0.05268%)
MG Correction to account for finite box:                  0.471040
MG Remaining discrepancy, due to discretization:         -0.192489 (  -0.01528%)
     Trial step:       0.672645945291
             Q1:  -11707.611497023492
[...]
MG DL_MG: Calling solver with defect correction order = 8
MG DL_MG: Solver finished
MG Hartree energy from (\int phi*rho dr):              1216.879271
MG Hartree energy from (\int eps (grad phi)^2 dr):     1216.681136
MG Discrepancy due to finite box and discretization:     -0.198135 (  -0.01628%)
MG Correction to account for finite box:                  0.006347
MG Remaining discrepancy, due to discretization:         -0.191787 (  -0.01576%)
             Q2:  -11742.516562181991
  Cubic LS coeff:       0.733438832987
Predicted energy:  -11742.516562181987
Cubic minimum step length accepted
    Initial Ne1:    7234.00000000
      Final Ne1:    7234.00000000

=================== Penalty functional idempotency correction ==================
 RMS occupancy error at iteration   1:  0.000000 (step -0.5000 Ne1=   7234.0000)
            Final RMS occupancy error   :  0.000000 (Ne1=   7234.0000)
               Final occupancy bounds   : [  0.0000,  1.0000]
================================================================================

    7        -1.174251656218E+04     7.5600E-09     6.8389E-09    -8.1491E-10

Reusing previously generated solute cavity.
MG BCs: +ve charge blocks (gridpoints):     28546 (   18536598).
MG BCs: -ve charge blocks (gridpoints):      8332 (    1030753).
MG BCs:     Elided blocks (gridpoints):    168574 (  171209354).
MG BCs: Computational effort saved:  99.9807%.
MG BCs: Charge after coarse-graining:           -9.0009335.
MG DL_MG: Calling solver with defect correction order = 8
MG DL_MG: Solver finished
MG Hartree energy from (\int phi*rho dr):              1216.879269
MG Hartree energy from (\int eps (grad phi)^2 dr):     1216.681134
MG Discrepancy due to finite box and discretization:     -0.198135 (  -0.01628%)
MG Correction to account for finite box:                  0.006347
MG Remaining discrepancy, due to discretization:         -0.191787 (  -0.01576%)
      ideal mu1:      -0.480738411074
             Q0:  -11742.516562181991
             G0:      -0.000000001825
   RMS gradient:       0.000000005411

Reusing previously generated solute cavity.
MG BCs: +ve charge blocks (gridpoints):     28546 (   18536599).
MG BCs: -ve charge blocks (gridpoints):      8332 (    1030754).
MG BCs:     Elided blocks (gridpoints):    168574 (  171209352).
MG BCs: Computational effort saved:  99.9807%.
MG BCs: Charge after coarse-graining:           -9.0009335.
MG DL_MG: Calling solver with defect correction order = 8
MG DL_MG: Solver finished
MG Hartree energy from (\int phi*rho dr):              1216.879254
MG Hartree energy from (\int eps (grad phi)^2 dr):     1216.681120
MG Discrepancy due to finite box and discretization:     -0.198135 (  -0.01628%)
MG Correction to account for finite box:                  0.006347
MG Remaining discrepancy, due to discretization:         -0.191787 (  -0.01576%)
     Trial step:       0.508291181179
             Q1:  -11742.516562182340
 Quadratic coef:       0.000000000578
 Linear coef   :      -0.000000000928
           Qmin:  -11742.516562182363
Quadratic minimum step length (  0.407674893463) accepted
    Initial Ne1:    7234.00000000
      Final Ne1:    7234.00000000

=================== Penalty functional idempotency correction ==================
 RMS occupancy error at iteration   1:  0.000000 (step -0.5000 Ne1=   7234.0000)
            Final RMS occupancy error   :  0.000000 (Ne1=   7234.0000)
               Final occupancy bounds   : [  0.0000,  1.0000]
================================================================================

    8        -1.174251656218E+04     5.4108E-09     4.8947E-09    -1.9791E-09

Reusing previously generated solute cavity.
MG BCs: +ve charge blocks (gridpoints):     28546 (   18536599).
MG BCs: -ve charge blocks (gridpoints):      8332 (    1030754).
MG BCs:     Elided blocks (gridpoints):    168574 (  171209352).
MG BCs: Computational effort saved:  99.9807%.
MG BCs: Charge after coarse-graining:           -9.0009335.
MG DL_MG: Calling solver with defect correction order = 8
MG DL_MG: Solver finished
MG Hartree energy from (\int phi*rho dr):              1216.879257
MG Hartree energy from (\int eps (grad phi)^2 dr):     1216.681122
MG Discrepancy due to finite box and discretization:     -0.198135 (  -0.01628%)
MG Correction to account for finite box:                  0.006347
MG Remaining discrepancy, due to discretization:         -0.191787 (  -0.01576%)
      ideal mu1:      -0.480738399545
             Q0:  -11742.516562182340
             G0:      -0.000000001131
   RMS gradient:       0.000000003681

Reusing previously generated solute cavity.
MG BCs: +ve charge blocks (gridpoints):     28546 (   18536599).
MG BCs: -ve charge blocks (gridpoints):      8332 (    1030754).
MG BCs:     Elided blocks (gridpoints):    168574 (  171209352).
MG BCs: Computational effort saved:  99.9807%.
MG BCs: Charge after coarse-graining:           -9.0009335.
MG DL_MG: Calling solver with defect correction order = 8
MG DL_MG: Solver finished
MG Hartree energy from (\int phi*rho dr):              1216.879258
MG Hartree energy from (\int eps (grad phi)^2 dr):     1216.681123
MG Discrepancy due to finite box and discretization:     -0.198135 (  -0.01628%)
MG Correction to account for finite box:                  0.006347
MG Remaining discrepancy, due to discretization:         -0.191787 (  -0.01576%)
     Trial step:       0.455211547673
             Q1:  -11742.516562182340
 Quadratic coef:       0.000000000515
 Linear coef   :      -0.000000000515
           Qmin:  -11742.516562182469
Quadratic minimum step length (  0.227694593759) accepted
    Initial Ne1:    7234.00000000
      Final Ne1:    7234.00000000

=================== Penalty functional idempotency correction ==================
 RMS occupancy error at iteration   1:  0.000000 (step -0.5000 Ne1=   7234.0000)
            Final RMS occupancy error   :  0.000000 (Ne1=   7234.0000)
               Final occupancy bounds   : [  0.0000,  1.0000]
================================================================================

    9        -1.174251656218E+04     3.6812E-09     3.3301E-09    -3.4925E-10

Reusing previously generated solute cavity.
MG BCs: +ve charge blocks (gridpoints):     28546 (   18536598).
MG BCs: -ve charge blocks (gridpoints):      8332 (    1030754).
MG BCs:     Elided blocks (gridpoints):    168574 (  171209353).
MG BCs: Computational effort saved:  99.9807%.
MG BCs: Charge after coarse-graining:           -9.0009335.
MG DL_MG: Calling solver with defect correction order = 8
MG DL_MG: Solver finished
MG Hartree energy from (\int phi*rho dr):              1216.879257
MG Hartree energy from (\int eps (grad phi)^2 dr):     1216.681123
MG Discrepancy due to finite box and discretization:     -0.198135 (  -0.01628%)
MG Correction to account for finite box:                  0.006347
MG Remaining discrepancy, due to discretization:         -0.191787 (  -0.01576%)
      ideal mu1:      -0.480738398450
   10        -1.174251656218E+04     3.0716E-09     2.7787E-09     0.0000E+00
Finished density kernel iterations (  10)

Writing density kernel to file "complex_16821.dkn" ... done


>>> Density kernel optimised for the current NGWF basis:
     ~~~~~~~~~~~~~~~~~~~~~~~~~~~~~~~~~~~~~~~~~~~~~~~~~~~~~~~~~~~
     Total energy                =  -1.17425165621823E+04  Eh
     Estimated bandgap           =   9.7544E-02  Eh
     RMS occupancy error         =   3.4919E-16
     [H,K] commutator            =   2.7787E-09
     Occupancy bounds            = [ -0.000:  1.000]
     ~~~~~~~~~~~~~~~~~~~~~~~~~~~~~~~~~~~~~~~~~~~~~~~~~~~~~~~~~~~




################################################################################
########################### NGWF CG iteration  004 #############################
################################################################################
****** Reciprocal space K.E. preconditioning with k_zero =  3.5000 a0^-1 *******

>>> Checking for convergence of NGWFs: 
           ........................................................
           |         *** NGWF optimisation converged ***          |
           | RMS NGWF gradient =    0.00000197911661              |
           | Criteria satisfied:                                  |
           | -> RMS NGWF gradient lower than set threshold.       |
           ========================================================

Reusing previously generated solute cavity.
MG BCs: +ve charge blocks (gridpoints):     28546 (   18536598).
MG BCs: -ve charge blocks (gridpoints):      8332 (    1030754).
MG BCs:     Elided blocks (gridpoints):    168574 (  171209353).
MG BCs: Computational effort saved:  99.9807%.
MG BCs: Charge after coarse-graining:           -9.0009335.
MG DL_MG: Calling solver with defect correction order = 8
MG DL_MG: Solver finished
MG Hartree energy from (\int phi*rho dr):              1216.879257
MG Hartree energy from (\int eps (grad phi)^2 dr):     1216.681123
MG Discrepancy due to finite box and discretization:     -0.198135 (  -0.01628%)
MG Correction to account for finite box:                  0.006347
MG Remaining discrepancy, due to discretization:         -0.191787 (  -0.01576%)

================================================================================
           ---------------- ENERGY COMPONENTS (Eh) ----------------
           | Kinetic                    :     8572.67116885885662 |
           | Pseudo. (local,OBC,corr'd) :    -5073.94474016919776 |
           | Pseudopotential (non-local):     1411.75413437682687 |
           | Hartree (molecular)        :     1216.87925741905269 |
           | Exchange-correlation       :    -3376.52146085126788 |
           | Ion-ion (open BC)          :   840315.95426638529170 |
           | Dispersion Correction      :       -3.32949207217195 |
           | Smeared ion non-self corr. :  -840267.66788027971052 |
           | Smeared ion self corr.     :   -14538.95273137971344 |
           | Solvent cavitation energy  :        2.28022958136798 |
           | Solute-solvent dis-rep en. :       -1.63931405178497 |
           | Total                      :   -11742.51656218250719 |
           --------------------------------------------------------
           ------ LOCAL ENERGY COMPONENTS FROM MATRIX TRACES ------
           | Pseudopotential (local)    :    -5073.94474016919776 |
           | Hartree                    :    -2001.12689113792521 |
           --------------------------------------------------------
           Integrated density           :     7233.99999999810370
           Integrated density tr(KS)    :     7234.00000000000000
================================================================================


                        <<<<< CALCULATION SUMMARY >>>>>                         
|ITER|    RMS GRADIENT   |     TOTAL ENERGY    |   step   |     Epredicted              
   0     0.00003931422895 -11742.45862990920432   0.604167 -11742.50862417989083        
   1     0.00001042440937 -11742.51591296284460   0.093378 -11742.51645622895921        
   2     0.00000450809709 -11742.51654178858735   0.016366 -11742.51655959521486        
   3     0.00000197911661 -11742.51656218233984  <-- CG                                 

=================== Finished the calculation in solvent ========================
= Adjusting the following parameters: 
= read_denskern: F
= read_tightbox_ngwfs: F
= maxit_pen: 0 (restored to user-specified value)
= restart read filename prefix: ""
= restart write filename prefix: ""
================================================================================

================================================================================
IS: Calculation in solvent completed (NGWFs converged).      

Individual components of total energy in solvent:     hartree           kcal/mol
- Usual non-electrostatic DFT terms:    -12960.03673513097419    -8132545.659064
- Electrostatic fixed charge energy:      1216.87925741905269      763603.246255
- Apolar cavitation energy:                  2.28022958136798        1430.865634
- Apolar dispersion-repulsion energy:       -1.63931405178497       -1028.685076
 -------------------------------------------------------------------------------
- Total energy in solvent:              -11742.51656218233984    -7368540.232251

Components of total energy in solvent:                hartree           kcal/mol
- Usual non-electrostatic DFT terms:    -12960.03673513097419    -8132545.659064
- Electrostatic energy:                   1216.87925741905269      763603.246255
- Apolar energy terms:                       0.64091552958300         402.180558
 -------------------------------------------------------------------------------
- Total energy in solvent:              -11742.51656218233984    -7368540.232251

Calculation of free energy of solvation:              hartree           kcal/mol
- Total energy in solvent:         (+)  -11742.51656218233984    -7368540.232251
- Total energy in vacuum:          (-)  -11738.75742031505797    -7366181.335166
 -------------------------------------------------------------------------------
- Total free energy of solvation:           -3.75914186728187       -2358.897085

Components of polar term in f.e. of solvation:        hartree           kcal/mol
- Electrostatic:                            -4.63867125286470       -2910.810095
- Change in nonelectrostatic DFT terms:      0.23861385600139         149.732452
 -------------------------------------------------------------------------------
- Polar term in f.e. of solvation:          -4.40005739686330       -2761.077643

Components of free energy of solvation:               hartree           kcal/mol
- Polar term in f.e. of solvation: (+)      -4.40005739686330       -2761.077643
- Apolar (cavitation, dis., rep.): (+)       0.64091552958300         402.180558
 -------------------------------------------------------------------------------
- Total free energy of solvation:           -3.75914186728030       -2358.897085
================================================================================


------------------------------ TIMING INFORMATION ------------------------------
AVERAGE TIME:   27044.544s on     40 node(s)                                    
TOTAL TIME:     27044.545s on     40 node(s)                                    
================= AVERAGE TIMINGS FROM ALL NODES (CUMULATIVE) ==================
|| TAG                                    #calls    cpu time   %total  Gflops ||
|| work_imbalance                       :     1        0.00s   0.000%  ------ ||
|| parallel_prepare_fd_halos_request    :  1953        0.02s   0.000%  ------ ||
|| sparse_set_to_garbage                :   182        0.04s   0.000%  ------ ||
|| parallel_prepare_fd_halos_satisfy    :  1953        0.06s   0.000%  ------ ||
|| ngwfs_initialise_from_radial         :     1        0.15s   0.001%  ------ ||
|| parallel_prepare_fd_halos_alloc      :  1953        0.19s   0.001%  ------ ||
|| basis_extract_function_from_box      :  5398        0.21s   0.001%  ------ ||
|| restart_ngwfs_tightbox_input         :     1        0.92s   0.003%  ------ ||
|| pseudopotentials_nonlocal_mat        :    31        1.42s   0.005%  ------ ||
|| density_init_guess_real              :     1        2.09s   0.008%  ------ ||
|| parallel_prepare_fd_halos_comms_imbal:  1953        3.05s   0.011%  ------ ||
|| openbc_locps_radial                  :     1        5.33s   0.020%  ------ ||
|| restart_kernel_read                  :     1        5.51s   0.020%  ------ ||
|| parallel_prepare_fd_halos_clear      :  1953       14.26s   0.053%  ------ ||
|| restart_kernel_write                 :    17       14.52s   0.054%  ------ ||
|| sparse_init                          :     2       23.18s   0.086%  ------ ||
|| parallel_prepare_fd_halos_comms_wait :  1953       24.65s   0.091%  ------ ||
|| projectors_func_ovlp_box             :    31       24.95s   0.092%  ------ ||
|| projectors_init_fftbox_recip         :   207       26.74s   0.099%  ------ ||
|| function_ops_brappd_ketppd           :    31       32.25s   0.119%  ------ ||
|| parallel_prepare_fd_halos            :  1953       42.24s   0.156%  ------ ||
|| palser_mano_kernel_optimise          :     1       44.54s   0.165%  ------ ||
|| pseudo_make_structure_factor         :     2       53.49s   0.198%  ------ ||
|| fourier_apply_box_pair               :  7777       53.95s   0.199% 556.397 ||
|| basis_copy_function_to_box           : 88016       55.58s   0.206%  ------ ||
|| ngwf_gradient_coeffs                 :    16       65.91s   0.244%  ------ ||
|| restart_ngwfs_tightbox_output        :    14       81.89s   0.303%  ------ ||
|| sparse_embed_hotelling_invert_embed  :    31       98.16s   0.363%  ------ ||
|| finite_difference_derivative         :  1953      103.67s   0.383%  ------ ||
|| openbc_locps_on_grid                 :     2      191.43s   0.708%  ------ ||
|| integrals_kinetic                    :    31      192.45s   0.712%  ------ ||
|| projectors_gradient_batch            :   176      213.07s   0.788%  ------ ||
|| fourier_apply_cell_backward          :  1303      218.89s   0.809%  81.029 ||
|| fourier_apply_cell_forward           :  1301      221.37s   0.819%  80.000 ||
|| sparse_trace                         :  5400      280.54s   1.037%  ------ ||
|| basis_dot_function_with_box          : 13.61M     320.48s   1.185%  ------ ||
|| kernel_purify                        :   496      364.78s   1.349%  ------ ||
|| hamiltonian_energy_components        :     4      430.51s   1.592%  ------ ||
|| xc_energy_potential                  :   325      514.80s   1.904%  ------ ||
|| lnv_gradient_norm                    :   160      590.54s   2.184%  ------ ||
|| basis_add_function_to_box            : 28.37M     600.77s   2.221%  ------ ||
|| kernel_fix                           :   160      700.74s   2.591%  ------ ||
|| ngwf_gradient_build_batch            :   176      766.88s   2.836%  ------ ||
|| cell_grid_deposit_box_real           : 55154      900.03s   3.328%  ------ ||
|| cell_grid_extract_box_real           : 51140      988.54s   3.655%  ------ ||
|| integrals_locpot_mat_els_batch       :  1859     1050.79s   3.885%  ------ ||
|| ngwf_gradient_batch                  :   176     1087.56s   4.021%  ------ ||
|| ngwf_gradient_lnv                    :    16     1250.67s   4.624%  ------ ||
|| density_batch_row_sums               :  3564     1425.68s   5.272%  ------ ||
|| density_fftbox_deposit_to_cell       : 53136     1557.90s   5.761%  ------ ||
|| sparse_product                       :  6737     2279.09s   8.427%  ------ ||
|| multigrid_prepare_bound_cond         :   325     2452.41s   9.068%  ------ ||
|| potential_apply_to_ngwf_batch        :  1859     3302.46s  12.211%  ------ ||
|| density_fftbox_interpolate_multiply  : 53136     3676.66s  13.595%  ------ ||
|| fourier_apply_box                    : 183.3k    3682.82s  13.618% 931.411 ||
|| integrals_locpot_dbl_grid            :   169     4373.50s  16.171%  ------ ||
|| density_batch_interp_deposit         :  3564     5925.04s  21.908%  ------ ||
|| dl_mg_solver_calls                   :   325     6532.71s  24.155%  ------ ||
|| density_on_dbl_grid                  :   324     7720.40s  28.547%  ------ ||
|| multigrid_calculate_hartree          :   325     9131.32s  33.764%  ------ ||
|| hamiltonian_lhxc_calculate           :   320    17376.98s  64.253%  ------ ||
|| lnv_denskernel_optimise_cg           :    16    23161.69s  85.643%  ------ ||
|| ngwf_cg_optimise                     :     2    26233.71s  97.002%  ------ ||
|| total_time                           :     1    27044.54s 100.000%  ------ ||
================================================================================
Overhead of generating timer report: 
- 0 ms averaging over threads,
- 5 ms ensuring consistency across MPI ranks,
- 2 ms printing in order.

Job completed: 01-06-2020 07:53 (+0100)

