 +---------------------------------------------------------------+
 |                                                               |
 |        ####### #     # ####### ####### ####### ######         |
 |        #     # ##    # #          #    #       #     #        |
 |        #     # # #   # #          #    #       #     #        |
 |        #     # #  #  # #####      #    #####   ######         |
 |        #     # #   # # #          #    #       #              |
 |        #     # #    ## #          #    #       #              |
 |        ####### #     # #######    #    ####### #              |
 |                                                               |
 |        Linear-Scaling Ab Initio Total Energy Program          |
 |                                                               |
 |          Release for academic collaborators of ODG            |
 |                                             Version 5.3.2.6.  |
 |                                                               |
 +---------------------------------------------------------------+
 |                                                               |
 |  Authors:                                                     |
 |  Jacek Dziedzic, Peter D. Haynes, Nicholas D. M. Hine,        |
 |  Arash. A. Mostofi, Mike C. Payne and Chris-Kriton Skylaris   |
 |                                                               |
 |  Contributors:                                                |
 |  J. Aarons, L. Andrinopoulos, P. W. Avraam, R. A. Bell,       |
 |  A. Bhandari, G. A. Bramley, R. J. Charlton, S. J. Clark,     |
 |  R. J. Clements, G. C. Constantinescu, F. Corsetti,           |
 |  N. Corsini, O. Dieguez, S. M. M. Dubois, K. K. B. Duff,      |
 |  J. M. Escartin, A. Greco, H. Helal, Q. O. Hill, L. P. Lee,   |
 |  J.-H. Li, E. B. Linscott, G. Moynihan, D. D. O`Regan,        |
 |  O. K. Okan, M. J. S. Phipps, C. J. Pickard,                  |
 |  J. C. A. Prentice, M. I. J. Probert, L. E. Ratcliff,         |
 |  M. Robinson, A. Ruiz Serrano, J. S. Spencer, E. W. Tait,     |
 |  G. Teobaldi, D. Turban, V. Vitale, K. A. Wilkinson,          |
 |  C. Weber, J. C. Womack, N. Yeung and T. J. Zuehlsdorff       |
 |                                                               |
 |                                   Copyright (c) 2004-2019     |
 |                                                               |
 |  Please cite:                                                 |
 |  "Introducing ONETEP: Linear-scaling density functional       |
 |   simulations on parallel computers".                         |
 |   C.-K. Skylaris, P. D. Haynes, A. A. Mostofi, M. C. Payne.   |
 |   J. Chem. Phys. 122 084119 (2005).                           |
 |                                                               |
 |          in all publications arising from your use of ONETEP. |
 |                                                               |
 +---------------------------------------------------------------+
 |                                                               |
 |   ONETEP is based on developments described in the following  |
 |   publications:                                               |
 |                                                               |
 |  "Nonorthogonal generalized Wannier function pseudopotential  |
 |   plane-wave method".                                         |
 |   C.-K. Skylaris, A. A. Mostofi, P. D. Haynes, O. Dieguez,    |
 |   M. C. Payne.                                                |
 |   Phys. Rev. B 66 035119 (2002).                              |
 |                                                               |
 |  "Preconditioned iterative minimization for linear-scaling    |
 |   electronic structure calculations".                         |
 |   A. A. Mostofi, P. D. Haynes, C.-K. Skylaris, M. C. Payne.   |
 |   J. Chem. Phys. 119(17), pp.8842-8848 (2003).                |
 |                                                               |
 |  "Total-energy calculations on a real space grid with         |
 |   localized functions and a plane-wave basis".                |
 |   A. A. Mostofi, C.-K. Skylaris, P. D. Haynes, M. C. Payne.   |
 |   Comput. Phys. Commun. 147, pp.788-802 (2002).               |
 |                                                               |
 |  "Accurate kinetic energy evaluation in electronic structure  |
 |   calculations with localized functions on real space grids"  |
 |   C.-K. Skylaris, A. A. Mostofi, P. D. Haynes, C. J. Pickard, |
 |   M. C. Payne.                                                |
 |   Comput. Phys. Commun. 140, pp.315-322 (2001).               |
 |                                                               |
 |  "Accurate ionic forces and geometry optimization in linear-  |
 |   scaling density-functional theory with local orbitals"      |
 |   N. D. M. Hine, M. Robinson, P. D. Haynes, C.-K. Skylaris,   |
 |   M. C. Payne, and A. A. Mostofi.                             |
 |   Phys. Rev. B 83 195102 (2011).                              |
 |                                                               |
 +---------------------------------------------------------------+

Job started: 26-05-2020 07:19 (+0100)
 
Reading parameters from file "complex_21381.dat" ...... done

If your calculation crashes here, before "Checking processes and threads..."
is displayed, then your stack size is insufficient.
If so, use "ulimit -s unlimited" at runtime.
You can disable this check with "check_stack_size F".

Checking processes and threads...
   Determining the default number of threads...
      No default threads set at compilation time: defaulting to 1.
      OpenMP library call suggests 4 threads.
      Hybrid MPI-OpenMP compilation detected.
      Number of MPI processes > 1.
      OMP_NUM_THREADS environment variable present and
      its value matches the one obtained from the OpenMP library call.
      Using this value as default.
      Default threads: 4
      Default applies to threads_max and threads_num_fftboxes.
      Settings in the input file override this default.
   ... done

   Running with 60 MPI processes.
   There are 6 MPI processes running on the same node as the root process.
   Each MPI process is using: 
               1 threads for simulation cell FFTs.
               1 threads for parallel FFT box operations.
               4 threads for loops over batched FFT box operations.
               4 threads in other parallel regions.
... done

Basic input checks...... done

Reading geometry and species blocks from file "complex_21381.dat" ...
  <species_atomic_set> block not found: NGWF initialisation set to SOLVE
IS: Dielectric excluded regions:
    - NONE.
    
  Number of PPD points along a3 set to 1.  This is 
  the default value, it may have been provided also in the input file.
... done
 Writing xyz coordinates to file "complex_21381.xyz" ... done


--------------------------------------------------------------------------------
---------------------------------- INPUT FILE ----------------------------------
--------------------------------------------------------------------------------

cutoff_energy       : 800 eV                                                    
xc_functional PBE                                                               
task SINGLEPOINT                                                                
write_xyz true                                                                  
output_detail VERBOSE                                                           
ngwf_threshold_orig : 0.000002                                                  
kernel_cutoff       : 1000                                                      
k_zero              : 3.5                                                       
elec_cg_max 0                                                                   
occ_mix 1.0                                                                     
dispersion 1                                                                    
maxit_ngwf_cg 40                                                                
minit_lnv 10                                                                    
maxit_lnv 10                                                                    
write_denskern T                                                                
write_tightbox_ngwfs T                                                          
charge 9                                                                        
is_implicit_solvent T                                                           
is_auto_solvation T                                                             
is_include_apolar T                                                             
is_smeared_ion_rep T                                                            
is_solvent_surf_tension 4.7624E-5 Ha/bohr**2                                    
is_apolar_scaling_factor 0.281075                                               
is_solvation_beta 1.3                                                           
is_density_threshold 0.00035                                                    
is_bulk_permittivity 78.54                                                      
is_dielectric_model fix_initial                                                 
is_smeared_ion_width 0.8                                                        
mg_defco_fd_order 8                                                             
is_bc_coarseness 10                                                             
is_bc_surface_coarseness 1                                                      
fine_grid_scale 2.0                                                             
%block species                                                                  
N   N   7 4 8.0                                                                 
H   H   1 1 8.0                                                                 
C   C   6 4 8.0                                                                 
S   S  16 9 8.0                                                                 
O   O   8 4 8.0                                                                 
%endblock species                                                               
%block species_pot                                                              
N   N_00.recpot                                                                 
H   H_04.recpot                                                                 
C   C_01.recpot                                                                 
S   S_00.recpot                                                                 
O   O_02.recpot                                                                 
%endblock species_pot                                                           
%block lattice_cart                                                             
139.252   0.000   0.000                                                         
0.000 142.425   0.000                                                           
0.000   0.000   162.84                                                          
%endblock lattice_cart                                                          
%block positions_abs                                                            
     Hash =   000008154256048856693563
%endblock positions_abs                                                         

--------------------------------------------------------------------------------
-------------------------------- END INPUT FILE --------------------------------
--------------------------------------------------------------------------------


 
 ESDF WARNING(1): "kernelcutoff" (esdf_physical) has no units. Assume "bohr".
 ESDF WARNING(2): "kzero" (esdf_physical) has no units. Assume "1/bohr".
 ESDF WARNING(3
 ): "issmearedionwidth" (esdf_physical) has no units. Assume "bohr".
<<<<<<<<<<<<<<<<<<<<<<<<<<<<<<<<< Full system >>>>>>>>>>>>>>>>>>>>>>>>>>>>>>>>>>
<<<<<<<<<<<<<<<<<<<<<<<<< Pseudopotential information >>>>>>>>>>>>>>>>>>>>>>>>>>
File: N_00.recpot [ 2001 points up to Gmax=  52.9 (1/bohr)]
  Atomic number:  7;  ionic charge:  5.000000
    Shell 1: l = 0; rc = 1.48 bohr
File: H_04.recpot [ 2001 points up to Gmax=  52.9 (1/bohr)]
  Atomic number:  1;  ionic charge:  1.000000
    Local potential
File: C_01.recpot [ 2001 points up to Gmax=  52.9 (1/bohr)]
  Atomic number:  6;  ionic charge:  4.000000
    Shell 1: l = 0; rc = 1.48 bohr
File: S_00.recpot [ 2001 points up to Gmax=  52.9 (1/bohr)]
  Atomic number: 16;  ionic charge:  6.000000
    Shell 1: l = 0; rc = 1.90 bohr
    Shell 2: l = 2; rc = 1.84 bohr
File: O_02.recpot [ 2001 points up to Gmax=  52.9 (1/bohr)]
  Atomic number:  8;  ionic charge:  6.000000
    Shell 1: l = 0; rc = 1.31 bohr
<<<<<<<<<<<<<<<<<<<<<<<<<<<<<<<<<<<<<<<<>>>>>>>>>>>>>>>>>>>>>>>>>>>>>>>>>>>>>>>>

-------------------------- Atom counting information ---------------------------
Symbol    Natoms    Nngwfs    Nprojs
  N        237       948       237
  H       1318      1318         0
  C        816      3264       816
  S          6        54        36
  O        240       960       240
.......   ......    ......    ......
Totals:   2617      6544      1329
--------------------------------------------------------------------------------

=============================== PSINC grid sizes ===============================
                      Simulation cell:  275 x 280 x 320
                              FFT-box:   99 x  99 x  99
                                  PPD:    5 x   5 x   1
Grid space d1=  0.506370909091a0 (KE cutoff=  29.62556Eh = 806.15239eV)
Grid space d2=  0.508660714286a0 (KE cutoff=  29.35943Eh = 798.91072eV)
Grid space d3=  0.508875000000a0 (KE cutoff=  29.33471Eh = 798.23802eV)
================================================================================

********************* Fourier parallelisation information **********************
       Coarse grid (whole simulation cell) dimensions:    275   280   320
          Real-space ('12') slabs/node (min max mean):      5     6     5
         Recip-space ('23') slabs/node (min max mean):      2     3     2
********************************************************************************

********************* Fourier parallelisation information **********************
       Double grid (whole simulation cell) dimensions:    550   560   640
          Real-space ('12') slabs/node (min max mean):     10    11    10
         Recip-space ('23') slabs/node (min max mean):      4     5     4
********************************************************************************
ONETEP fine grid is 550 x 560 x 640 gridpoints, 139.2520 x 142.4250 x 162.8400 bohr.
FD multigrid is     545 x 553 x 633 gridpoints, 137.9861 x 140.6447 x 161.0589 bohr.


Calculating local pseudopotential in open BC on a radial grid ...
Discrepancy between calculated realspace psloc and -Z/x on [5a0,257.280a0]:
max |rel. diff| # avg |rel. diff| #  avg rel. diff #  f # pseudopotential file
 0.000256370913    0.000003612608   0.000000072509   55  'N_00.recpot'
 0.000395389207    0.000016224277  -0.000000076597   55  'H_04.recpot'
 0.000377360759    0.000017565724   0.000000149252   55  'C_01.recpot'
 0.000469715301    0.000020587835   0.000000455518   55  'S_00.recpot'
 0.000665442002    0.000026079317   0.000000158685   55  'O_02.recpot'
... done

Atom SCF Calculation for N  : Z (AE atom) =   7 : Z (PS atom) =   5
Config String:
Orbitals (num,occ):  2     2.00 3.00
Orbitals   (num,l):  2        0    1
Real-space Grid (nr,dr,rmax): 1203    0.0066555740    8.0000000000
Spherical Bessel Basis (nsws,lmax,cutoff):   47    1  176.3951722778
Confining potential (l,width,scale):  0    3.0000000000  100.0000000000
Confining potential (l,width,scale):  1    3.0000000000  100.0000000000
  1         -4.7312375307   -3.4155304497    7.0523828109   -1.9351020946
  2         -9.7309464766   -2.0532547791    8.2966052865   -2.2494486027
  3         -9.6627394379   -2.1124926340    8.2327997121   -2.2369778124
  4         -9.6814993499   -2.1215521045    8.2229805960   -2.2365178421
  5         -9.6843326483   -2.1250939529    8.2191374534   -2.2362718126
  6         -9.6859628709   -2.1267894855    8.2172963573   -2.2362066344
  7         -9.6867347035   -2.1276425665    8.2163697352   -2.2361903369
  8         -9.6870802100   -2.1280764625    8.2158983890   -2.2361891460
  9         -9.6872290423   -2.1282977424    8.2156580222   -2.2361920435
 10         -9.6872901988   -2.1284107021    8.2155353368   -2.2361953393
 11         -9.6873135296   -2.1284684031    8.2154726809   -2.2361979819
 12         -9.6873212476   -2.1284978948    8.2154406648   -2.2361998431
 13         -9.6873229586   -2.1285129774    8.2154242957   -2.2362010676
 14         -9.6873226456   -2.1285206957    8.2154159216   -2.2362018403
 15         -9.6873218534   -2.1285246479    8.2154116349   -2.2362023142
 16         -9.6873212599   -2.1285262679    8.2154098784   -2.2362025420
 17         -9.6873207834   -2.1285272564    8.2154088068   -2.2362026955
 18         -9.6873204210   -2.1285278596    8.2154081529   -2.2362027982
 19         -9.6873201550   -2.1285282280    8.2154077538   -2.2362028667
 20         -9.6873199645   -2.1285284529    8.2154075102   -2.2362029121
 21         -9.6873198305   -2.1285285903    8.2154073614   -2.2362029421
 22         -9.6873197377   -2.1285286742    8.2154072705   -2.2362029618
Atom SCF converged after  22 iterations to a total energy of     -9.68731974

Atom SCF Calculation for H  : Z (AE atom) =   1 : Z (PS atom) =   1
Config String:
Orbitals (num,occ):  1     1.00
Orbitals   (num,l):  1        0
Real-space Grid (nr,dr,rmax): 1203    0.0066555740    8.0000000000
Spherical Bessel Basis (nsws,lmax,cutoff):   47    0  176.3951722778
Confining potential (l,width,scale):  0    3.0000000000  100.0000000000
  1         -0.3194257691   -0.2393854593    0.2820953124   -0.2424203209
  2         -0.3951823392   -0.2377116493    0.2886404059   -0.2475147891
  3         -0.4317044583   -0.2352244387    0.2921333887   -0.2514046172
  4         -0.4470703708   -0.2341892222    0.2934391879   -0.2531009782
  5         -0.4532132900   -0.2338556667    0.2938388426   -0.2537313520
  6         -0.4556579251   -0.2337612552    0.2939448584   -0.2539550462
  7         -0.4566418315   -0.2337377355    0.2939680120   -0.2540342273
  8         -0.4570437922   -0.2337331116    0.2939708287   -0.2540627372
  9         -0.4572102946   -0.2337328328    0.2939698291   -0.2540732650
 10         -0.4572800424   -0.2337332404    0.2939687193   -0.2540772588
 11         -0.4573095100   -0.2337335791    0.2939680317   -0.2540788122
 12         -0.4573220379   -0.2337337762    0.2939676699   -0.2540794294
 13         -0.4573273880   -0.2337338775    0.2939674931   -0.2540796787
 14         -0.4573296803   -0.2337339266    0.2939674099   -0.2540797808
 15         -0.4573306647   -0.2337339495    0.2939673718   -0.2540798230
 16         -0.4573310882   -0.2337339601    0.2939673545   -0.2540798406
 17         -0.4573312706   -0.2337339649    0.2939673467   -0.2540798479
 18         -0.4573313493   -0.2337339670    0.2939673433   -0.2540798510
Atom SCF converged after  18 iterations to a total energy of     -0.45733135

Atom SCF Calculation for C  : Z (AE atom) =   6 : Z (PS atom) =   4
Config String:
Orbitals (num,occ):  2     2.00 2.00
Orbitals   (num,l):  2        0    1
Real-space Grid (nr,dr,rmax): 1203    0.0066555740    8.0000000000
Spherical Bessel Basis (nsws,lmax,cutoff):   47    1  176.3951722778
Confining potential (l,width,scale):  0    3.0000000000  100.0000000000
Confining potential (l,width,scale):  1    3.0000000000  100.0000000000
  1         -5.2976922011   -1.3069684169    4.5135249990   -1.4493313817
  2         -5.3721716256   -1.3429755895    4.4750154450   -1.4361613026
  3         -5.3809959565   -1.3617365618    4.4541655428   -1.4305930207
  4         -5.3918938866   -1.3667928461    4.4484735100   -1.4294652294
  5         -5.3956096428   -1.3688539142    4.4461376126   -1.4290734646
  6         -5.3968271862   -1.3696852393    4.4451910874   -1.4289366866
  7         -5.3972028401   -1.3700178062    4.4448112275   -1.4288900460
  8         -5.3973067903   -1.3701500158    4.4446598370   -1.4288749220
  9         -5.3973286940   -1.3702023868    4.4445997329   -1.4288704293
 10         -5.3973289850   -1.3702230869    4.4445759233   -1.4288693188
 11         -5.3973254264   -1.3702312560    4.4445665049   -1.4288691775
 12         -5.3973224003   -1.3702344755    4.4445627836   -1.4288692549
 13         -5.3973208708   -1.3702354890    4.4445616088   -1.4288693270
 14         -5.3973198783   -1.3702360102    4.4445610034   -1.4288693814
 15         -5.3973192535   -1.3702362780    4.4445606917   -1.4288694190
 16         -5.3973188684   -1.3702364155    4.4445605313   -1.4288694437
 17         -5.3973186349   -1.3702364860    4.4445604489   -1.4288694595
 18         -5.3973184951   -1.3702365221    4.4445604065   -1.4288694693
 19         -5.3973184122   -1.3702365405    4.4445603848   -1.4288694753
Atom SCF converged after  19 iterations to a total energy of     -5.39731841

Atom SCF Calculation for S  : Z (AE atom) =  16 : Z (PS atom) =   6
Config String:
Orbitals (num,occ):  3     2.00 4.00 0.00
Orbitals   (num,l):  3        0    1    2
Real-space Grid (nr,dr,rmax): 1203    0.0066555740    8.0000000000
Spherical Bessel Basis (nsws,lmax,cutoff):   47    2  176.3951722778
Confining potential (l,width,scale):  0    3.0000000000  100.0000000000
Confining potential (l,width,scale):  1    3.0000000000  100.0000000000
Confining potential (l,width,scale):  2    3.0000000000  100.0000000000
  1        -12.4735062396   -1.0328741412   10.1554312477   -2.4512393157
  2         -9.9458301913   -2.4607392455    8.3041325857   -2.0306994528
  3        -10.1450417646   -2.2931184565    8.4831893826   -2.0812538287
  4        -10.1528335592   -2.2733105793    8.5050388867   -2.0896035179
  5        -10.1571940363   -2.2633716629    8.5160794258   -2.0939370707
  6        -10.1594380571   -2.2584938667    8.5215163935   -2.0961289008
  7        -10.1605856507   -2.2561081821    8.5241804044   -2.0972291378
  8        -10.1611799191   -2.2549395235    8.5254868240   -2.0977806248
  9        -10.1614918752   -2.2543658586    8.5261285885   -2.0980571586
 10        -10.1616572884   -2.2540839121    8.5264441898   -2.0981959233
 11        -10.1617455602   -2.2539453058    8.5265994231   -2.0982656006
 12        -10.1617928447   -2.2538772062    8.5266757320   -2.0983006047
 13        -10.1618182292   -2.2538437891    8.5267131983   -2.0983181961
 14        -10.1618318741   -2.2538274201    8.5267315620   -2.0983270391
 15        -10.1618392144   -2.2538194197    8.5267405433   -2.0983314852
 16        -10.1618431651   -2.2538155200    8.5267449245   -2.0983337210
 17        -10.1618452923   -2.2538136252    8.5267470551   -2.0983348455
 18        -10.1618464380   -2.2538127080    8.5267480875   -2.0983354110
 19        -10.1618470552   -2.2538122659    8.5267485856   -2.0983356955
 20        -10.1618473878   -2.2538120540    8.5267488248   -2.0983358386
 21        -10.1618475670   -2.2538119530    8.5267489389   -2.0983359106
 22        -10.1618476637   -2.2538119053    8.5267489929   -2.0983359468
Atom SCF converged after  22 iterations to a total energy of    -10.16184766

Atom SCF Calculation for O  : Z (AE atom) =   8 : Z (PS atom) =   6
Config String:
Orbitals (num,occ):  2     2.00 4.00
Orbitals   (num,l):  2        0    1
Real-space Grid (nr,dr,rmax): 1203    0.0066555740    8.0000000000
Spherical Bessel Basis (nsws,lmax,cutoff):   47    1  176.3951722778
Confining potential (l,width,scale):  0    3.0000000000  100.0000000000
Confining potential (l,width,scale):  1    3.0000000000  100.0000000000
  1         -1.8735052164   -7.5539365035   10.1554312477   -2.4512393157
  2        -16.0318313751   -3.1285771268   13.6395848164   -3.2358799643
  3        -15.9524020423   -3.0762819706   13.6967272503   -3.2536856837
  4        -15.8521515939   -3.0781493909   13.6951909330   -3.2561700440
  5        -15.8357139793   -3.0748501933   13.6988803334   -3.2580493133
  6        -15.8246052853   -3.0740779781   13.6997881576   -3.2588327446
  7        -15.8189019501   -3.0737449687   13.7001869911   -3.2592378801
  8        -15.8159785510   -3.0736026016   13.7003615168   -3.2594475790
  9        -15.8144776168   -3.0735437994   13.7004360379   -3.2595560735
 10        -15.8137058024   -3.0735207882   13.7004667348   -3.2596122456
 11        -15.8133083127   -3.0735125946   13.7004786868   -3.2596413656
 12        -15.8131032938   -3.0735102195   13.7004828997   -3.2596564858
 13        -15.8129973902   -3.0735099286   13.7004840891   -3.2596643505
 14        -15.8129426040   -3.0735102506   13.7004842061   -3.2596684489
 15        -15.8129142203   -3.0735106556   13.7004840157   -3.2596705887
 16        -15.8128994940   -3.0735109855   13.7004837906   -3.2596717080
 17        -15.8128918425   -3.0735112169   13.7004836103   -3.2596722946
 18        -15.8128878614   -3.0735113674   13.7004834848   -3.2596726026
 19        -15.8128857871   -3.0735114608   13.7004834035   -3.2596727646
 20        -15.8128847048   -3.0735115170   13.7004833533   -3.2596728500
 21        -15.8128841394   -3.0735115501   13.7004833231   -3.2596728951
 22        -15.8128838436   -3.0735115693   13.7004833054   -3.2596729190
 23        -15.8128836887   -3.0735115802   13.7004832951   -3.2596729316
 24        -15.8128836074   -3.0735115864   13.7004832893   -3.2596729383
Atom SCF converged after  24 iterations to a total energy of    -15.81288361

========================== Calculation in vacuum ==============================
= Adjusting the following parameters: 
= is_implicit_solvent: F
= is_include_apolar: F
= write_denskern: T
= write_tightbox_ngwfs: T
= restart read filename prefix: ""
= restart write filename prefix: "vacuum_"
===============================================================================

Determining parallel strategy ...
... using space-filling curve
... NGWF load balancing: max    110;  min    109;  average    109
... Projector load balancing: max     26;  min     21;  average     22
... done
Calculating direct Ion-Ion energy ...
Ion-Ion Energy        :    839609.37440762529150
======================= Empirical dispersion information =======================
Model : Elstner
Dispersion Correction Energy: -0.33526344E+01 Hartree
================================================================================
Basis initialisation ...... NGWF spheres initialised
... Projector spheres initialised
... NGWF tight boxes initialised
... Tight-boxes gathered
... NGWF basis size (local,global):    1386243  83205440
... Nonlocal pseudopotential projector initialisation
... done

========================== Sparse matrix information ===========================
                        Overlap matrix filling:   6.87%
                        Density kernel filling: 100.00%
              NGWF-Proj overlap matrix filling:   1.78%
                    Hamiltonian matrix filling:   7.77%
                  NGWF diagonal matrix filling:   0.05%
                             KS matrix filling: 100.00% 
                           KSKS matrix filling: 100.00% 
================================================================================

Sparse matrix initialisation ... done

Generating smeared ion density ... done
Smeared ion self correction:     -14538.952731
Smeared ion non-self correction: -839561.204961
NGWF initialisation ...... done
============ Calculation of NGWF S^-1 using Hotelling algorithm ================ 
         Iteration  |  Frobenius norm and Maximum abs value    (of I-S*S_n^-1)   
               1       0.78671558E+02     0.98227930E+00
               2       0.76784264E+02     0.96501137E+00
               3       0.73739350E+02     0.93175686E+00
               4       0.69429889E+02     0.86991205E+00
               5       0.64080387E+02     0.76526318E+00
               6       0.58085433E+02     0.70692704E+00
               7       0.52078581E+02     0.67117228E+00
               8       0.46524222E+02     0.64369740E+00
               9       0.40402793E+02     0.60393040E+00
              10       0.32053490E+02     0.53536894E+00
              11       0.21437333E+02     0.42505849E+00
              12       0.10881045E+02     0.27554051E+00
              13       0.35563319E+01     0.12910153E+00
              14       0.55941066E+00     0.32012154E-01
              15       0.26915758E-01     0.23518250E-02
              16       0.14153647E-03     0.16039410E-04
              17       0.59812561E-08     0.86615126E-09
              18       0.93116340E-13     0.53290705E-14
================================================================================
Calculating local pseudopotential in open BC on the fine real space grid ...
... done

MG BCs: +ve charge blocks (gridpoints):     19797 (   15522021).
MG BCs: -ve charge blocks (gridpoints):      7862 (    1062616).
MG BCs:     Elided blocks (gridpoints):    177323 (  174192068).
MG BCs: Computational effort saved:  99.9855%.
MG BCs: Charge after coarse-graining:           -9.0002188.
MG DL_MG: Calling solver with defect correction order = 8
MG DL_MG: Solver finished
MG Hartree energy from (\int phi*rho dr):              1471.719297
MG Hartree energy from (\int eps (grad phi)^2 dr):     1471.095462
MG Discrepancy due to finite box and discretization:     -0.623835 (  -0.04239%)
MG Correction to account for finite box:                  0.463318
MG Remaining discrepancy, due to discretization:         -0.160517 (  -0.01091%)
Up spin density kernel initialisation ... 
======= Optimisation of K by Palser-Manolopoulos canonical purification ======== 
         Iteration  |  Band structure energy |    c_n   
               1       -2602.82587269664600    0.5264368
               2       -2779.72541938434506    0.5167876
               3       -2960.34686866701213    0.5155190
               4       -3110.25415652145193    0.5294488
               5       -3201.71755230344706    0.5652499
               6       -3239.81080553162474    0.6091263
               7       -3252.84874541488625    0.6213343
               8       -3258.50653144821945    0.6212926
               9       -3261.23136772212683    0.6351223
              10       -3262.37105161670979    0.6603254
              11       -3262.81863994722607    0.6831500
              12       -3263.00773061599511    0.6772776
              13       -3263.10730759601847    0.6388981
              14       -3263.16859618281887    0.5786371
              15       -3263.20370820919379    0.5000980
              16       -3263.21834938838037    0.4213769
              17       -3263.21962508382740    0.4048691
              18       -3263.22014018879554    0.4343590
              19       -3263.22042842353585    0.4764859
              20       -3263.22064990386298    0.4970106
              21       -3263.22083173160991    0.4999516
              22       -3263.22095659993147    0.5000000
              23       -3263.22099697802514    0.5000000
              24       -3263.22099999525381    0.5000003
              25       -3263.22100001026865    0.5000003
Termination criterion satisfied: band energy change below threshold.
Final occupancy bounds: [    0.00000000000000:    0.99999999999999]
Closest occupancy to 0.5:     0.99999999999999
================================================================================
... done

Writing density kernel to file "complex_21381.vacuum_dkn" ... done

>>> Optimising kernel for current NGWFs:
   Initial electron number for spin 1:    7234.00000000
     Final electron number for spin 1:    7234.00000000

=================== Penalty functional idempotency correction ==================
 RMS occupancy error at iteration   1:  0.000000 (step -0.5000 Ne1=   7234.0000)
            Final RMS occupancy error   :  0.000000 (Ne1=   7234.0000)
               Final occupancy bounds   : [  0.0000,  1.0000]
================================================================================

................................................................................
<<<<<<<<<<<<<< LNV (Original version) density kernel optimisation >>>>>>>>>>>>>>
~~~~~~~~~~~~~~~~~~~~~~~~~~~~~~~~~~~~~~~~~~~~~~~~~~~~~~~~~~~~~~~~~~~~~~~~~~~~~~~~
   iter  |      energy (Eh)       | rms gradient |  commutator  |   dE (Eh)
MG BCs: +ve charge blocks (gridpoints):     30421 (   16732388).
MG BCs: -ve charge blocks (gridpoints):      8207 (    1094451).
MG BCs:     Elided blocks (gridpoints):    166689 (  172949866).
MG BCs: Computational effort saved:  99.9798%.
MG BCs: Charge after coarse-graining:           -9.0009401.
MG DL_MG: Calling solver with defect correction order = 8
MG DL_MG: Solver finished
MG Hartree energy from (\int phi*rho dr):              1425.618336
MG Hartree energy from (\int eps (grad phi)^2 dr):     1424.944689
MG Discrepancy due to finite box and discretization:     -0.673647 (  -0.04725%)
MG Correction to account for finite box:                  0.467970
MG Remaining discrepancy, due to discretization:         -0.205676 (  -0.01443%)
      ideal mu1:      -0.723286210170
             Q0:  -11570.976415001438
             G0:    -140.791276195707
   RMS gradient:       0.001813195289
MG BCs: +ve charge blocks (gridpoints):     30396 (   16811256).
MG BCs: -ve charge blocks (gridpoints):      8102 (    1074895).
MG BCs:     Elided blocks (gridpoints):    166713 (  172890554).
MG BCs: Computational effort saved:  99.9798%.
MG BCs: Charge after coarse-graining:           -9.0009606.
MG DL_MG: Calling solver with defect correction order = 8
MG DL_MG: Solver finished
MG Hartree energy from (\int phi*rho dr):              1451.438641
MG Hartree energy from (\int eps (grad phi)^2 dr):     1450.782037
MG Discrepancy due to finite box and discretization:     -0.656603 (  -0.04524%)
MG Correction to account for finite box:                  0.467483
MG Remaining discrepancy, due to discretization:         -0.189120 (  -0.01303%)
     Trial step:       0.500000000000
             Q1:  -11581.839056484168
 Quadratic coef:      59.532996615124
 Linear coef   :     -70.395638097854
           Qmin:  -11591.786495733813
Quadratic minimum step length (  0.295616053703) accepted
    Initial Ne1:    7234.00000000
      Final Ne1:    7234.00000000

=================== Penalty functional idempotency correction ==================
 RMS occupancy error at iteration   1:  0.003267 (step -0.4890 Ne1=   7234.0000)
 RMS occupancy error at iteration   2:  0.000024 (step -0.5000 Ne1=   7234.0000)
            Final RMS occupancy error   :  0.000000 (Ne1=   7234.0000)
               Final occupancy bounds   : [  0.0000,  1.0000]
================================================================================

    1        -1.157097641500E+04     1.8132E-03     1.6402E-03
MG BCs: +ve charge blocks (gridpoints):     30402 (   16780299).
MG BCs: -ve charge blocks (gridpoints):      8156 (    1083330).
MG BCs:     Elided blocks (gridpoints):    166707 (  172913076).
MG BCs: Computational effort saved:  99.9798%.
MG BCs: Charge after coarse-graining:           -9.0009522.
MG DL_MG: Calling solver with defect correction order = 8
MG DL_MG: Solver finished
MG Hartree energy from (\int phi*rho dr):              1433.082802
MG Hartree energy from (\int eps (grad phi)^2 dr):     1432.420183
MG Discrepancy due to finite box and discretization:     -0.662620 (  -0.04624%)
MG Correction to account for finite box:                  0.467602
MG Remaining discrepancy, due to discretization:         -0.195018 (  -0.01361%)
      ideal mu1:      -0.761261444830
             Q0:  -11592.163288982701
             G0:     -11.384757811564
   RMS gradient:       0.000512262960
MG BCs: +ve charge blocks (gridpoints):     30401 (   16796298).
MG BCs: -ve charge blocks (gridpoints):      8130 (    1078290).
MG BCs:     Elided blocks (gridpoints):    166708 (  172902117).
MG BCs: Computational effort saved:  99.9798%.
MG BCs: Charge after coarse-graining:           -9.0009560.
MG DL_MG: Calling solver with defect correction order = 8
MG DL_MG: Solver finished
MG Hartree energy from (\int phi*rho dr):              1438.485905
MG Hartree energy from (\int eps (grad phi)^2 dr):     1437.827024
MG Discrepancy due to finite box and discretization:     -0.658880 (  -0.04580%)
MG Correction to account for finite box:                  0.467214
MG Remaining discrepancy, due to discretization:         -0.191666 (  -0.01332%)
     Trial step:       0.384458095052
             Q1:  -11594.841002497822
 Quadratic coef:       1.699248785748
 Linear coef   :      -4.376962300868
           Qmin:  -11594.981857862065
Quadratic minimum step length (  0.495147797786) accepted
    Initial Ne1:    7233.99992925
      Final Ne1:    7234.00000000

=================== Penalty functional idempotency correction ==================
 RMS occupancy error at iteration   1:  0.001701 (step -0.4936 Ne1=   7234.0000)
 RMS occupancy error at iteration   2:  0.000008 (step -0.5000 Ne1=   7234.0000)
            Final RMS occupancy error   :  0.000000 (Ne1=   7234.0000)
               Final occupancy bounds   : [  0.0000,  1.0000]
================================================================================

    2        -1.159216328898E+04     5.1226E-04     4.6340E-04    -2.1187E+01
MG BCs: +ve charge blocks (gridpoints):     30399 (   16801003).
MG BCs: -ve charge blocks (gridpoints):      8122 (    1076801).
MG BCs:     Elided blocks (gridpoints):    166709 (  172898901).
MG BCs: Computational effort saved:  99.9798%.
MG BCs: Charge after coarse-graining:           -9.0009570.
MG DL_MG: Calling solver with defect correction order = 8
MG DL_MG: Solver finished
MG Hartree energy from (\int phi*rho dr):              1440.079799
MG Hartree energy from (\int eps (grad phi)^2 dr):     1439.421920
MG Discrepancy due to finite box and discretization:     -0.657879 (  -0.04568%)
MG Correction to account for finite box:                  0.467111
MG Remaining discrepancy, due to discretization:         -0.190768 (  -0.01325%)
      ideal mu1:      -0.781778878519
             Q0:  -11595.014508007793
             G0:      -1.797087620813
   RMS gradient:       0.000203650606
MG BCs: +ve charge blocks (gridpoints):     30397 (   16800213).
MG BCs: -ve charge blocks (gridpoints):      8128 (    1077932).
MG BCs:     Elided blocks (gridpoints):    166712 (  172898560).
MG BCs: Computational effort saved:  99.9798%.
MG BCs: Charge after coarse-graining:           -9.0009566.
MG DL_MG: Calling solver with defect correction order = 8
MG DL_MG: Solver finished
MG Hartree energy from (\int phi*rho dr):              1437.959691
MG Hartree energy from (\int eps (grad phi)^2 dr):     1437.302188
MG Discrepancy due to finite box and discretization:     -0.657503 (  -0.04572%)
MG Correction to account for finite box:                  0.466927
MG Remaining discrepancy, due to discretization:         -0.190576 (  -0.01325%)
     Trial step:       0.436306748866
             Q1:  -11595.467076302273
 Quadratic coef:       0.331513162784
 Linear coef   :      -0.784081457265
           Qmin:  -11595.478127405635
Quadratic minimum step length (  0.515967493708) accepted
    Initial Ne1:    7233.99997187
      Final Ne1:    7234.00000000

=================== Penalty functional idempotency correction ==================
 RMS occupancy error at iteration   1:  0.000567 (step -0.4977 Ne1=   7234.0000)
 RMS occupancy error at iteration   2:  0.000001 (step -0.5000 Ne1=   7234.0000)
            Final RMS occupancy error   :  0.000000 (Ne1=   7234.0000)
               Final occupancy bounds   : [  0.0000,  1.0000]
================================================================================

    3        -1.159501450801E+04     2.0365E-04     1.8423E-04    -2.8512E+00
MG BCs: +ve charge blocks (gridpoints):     30397 (   16800099).
MG BCs: -ve charge blocks (gridpoints):      8127 (    1078132).
MG BCs:     Elided blocks (gridpoints):    166712 (  172898474).
MG BCs: Computational effort saved:  99.9798%.
MG BCs: Charge after coarse-graining:           -9.0009566.
MG DL_MG: Calling solver with defect correction order = 8
MG DL_MG: Solver finished
MG Hartree energy from (\int phi*rho dr):              1437.580608
MG Hartree energy from (\int eps (grad phi)^2 dr):     1436.923165
MG Discrepancy due to finite box and discretization:     -0.657444 (  -0.04573%)
MG Correction to account for finite box:                  0.466894
MG Remaining discrepancy, due to discretization:         -0.190550 (  -0.01325%)
      ideal mu1:      -0.782509285587
             Q0:  -11595.482183785411
             G0:      -0.415466237071
   RMS gradient:       0.000098020381
MG BCs: +ve charge blocks (gridpoints):     30396 (   16800808).
MG BCs: -ve charge blocks (gridpoints):      8122 (    1077921).
MG BCs:     Elided blocks (gridpoints):    166713 (  172897976).
MG BCs: Computational effort saved:  99.9798%.
MG BCs: Charge after coarse-graining:           -9.0009568.
MG DL_MG: Calling solver with defect correction order = 8
MG DL_MG: Solver finished
MG Hartree energy from (\int phi*rho dr):              1438.758521
MG Hartree energy from (\int eps (grad phi)^2 dr):     1438.101029
MG Discrepancy due to finite box and discretization:     -0.657492 (  -0.04570%)
MG Correction to account for finite box:                  0.466821
MG Remaining discrepancy, due to discretization:         -0.190670 (  -0.01325%)
     Trial step:       0.474468228336
             Q1:  -11595.577653774526
 Quadratic coef:       0.101655540320
 Linear coef   :      -0.197125529436
           Qmin:  -11595.577747869358
Quadratic minimum step length (  0.460032972216) accepted
    Initial Ne1:    7233.99999407
      Final Ne1:    7234.00000000

=================== Penalty functional idempotency correction ==================
 RMS occupancy error at iteration   1:  0.000180 (step -0.4992 Ne1=   7234.0000)
            Final RMS occupancy error   :  0.000000 (Ne1=   7234.0000)
               Final occupancy bounds   : [ -0.0000,  1.0000]
================================================================================

    4        -1.159548218379E+04     9.8020E-05     8.8671E-05    -4.6768E-01
MG BCs: +ve charge blocks (gridpoints):     30396 (   16800798).
MG BCs: -ve charge blocks (gridpoints):      8122 (    1077929).
MG BCs:     Elided blocks (gridpoints):    166713 (  172897978).
MG BCs: Computational effort saved:  99.9798%.
MG BCs: Charge after coarse-graining:           -9.0009568.
MG DL_MG: Calling solver with defect correction order = 8
MG DL_MG: Solver finished
MG Hartree energy from (\int phi*rho dr):              1438.722673
MG Hartree energy from (\int eps (grad phi)^2 dr):     1438.065183
MG Discrepancy due to finite box and discretization:     -0.657490 (  -0.04570%)
MG Correction to account for finite box:                  0.466824
MG Remaining discrepancy, due to discretization:         -0.190666 (  -0.01325%)
      ideal mu1:      -0.782858965518
             Q0:  -11595.578138254583
             G0:      -0.101528997659
   RMS gradient:       0.000048596558
MG BCs: +ve charge blocks (gridpoints):     30398 (   16800902).
MG BCs: -ve charge blocks (gridpoints):      8123 (    1077784).
MG BCs:     Elided blocks (gridpoints):    166711 (  172898019).
MG BCs: Computational effort saved:  99.9798%.
MG BCs: Charge after coarse-graining:           -9.0009568.
MG DL_MG: Calling solver with defect correction order = 8
MG DL_MG: Solver finished
MG Hartree energy from (\int phi*rho dr):              1439.084422
MG Hartree energy from (\int eps (grad phi)^2 dr):     1438.426795
MG Discrepancy due to finite box and discretization:     -0.657628 (  -0.04570%)
MG Correction to account for finite box:                  0.466815
MG Remaining discrepancy, due to discretization:         -0.190812 (  -0.01326%)
     Trial step:       0.467194851538
             Q1:  -11595.603276567766
 Quadratic coef:       0.022295511804
 Linear coef   :      -0.047433824988
           Qmin:  -11595.603367186002
Quadratic minimum step length (  0.496979818580) accepted
    Initial Ne1:    7234.00158410
      Final Ne1:    7234.00000000

=================== Penalty functional idempotency correction ==================
 RMS occupancy error at iteration   1:  0.000064 (step -0.4997 Ne1=   7234.0000)
            Final RMS occupancy error   :  0.000000 (Ne1=   7234.0000)
               Final occupancy bounds   : [ -0.0000,  1.0000]
================================================================================

    5        -1.159557813825E+04     4.8597E-05     4.3961E-05    -9.5954E-02
MG BCs: +ve charge blocks (gridpoints):     30398 (   16800917).
MG BCs: -ve charge blocks (gridpoints):      8123 (    1077763).
MG BCs:     Elided blocks (gridpoints):    166711 (  172898025).
MG BCs: Computational effort saved:  99.9798%.
MG BCs: Charge after coarse-graining:           -9.0009568.
MG DL_MG: Calling solver with defect correction order = 8
MG DL_MG: Solver finished
MG Hartree energy from (\int phi*rho dr):              1439.107520
MG Hartree energy from (\int eps (grad phi)^2 dr):     1438.449884
MG Discrepancy due to finite box and discretization:     -0.657636 (  -0.04570%)
MG Correction to account for finite box:                  0.466815
MG Remaining discrepancy, due to discretization:         -0.190822 (  -0.01326%)
      ideal mu1:      -0.782749426633
             Q0:  -11595.603414032608
             G0:      -0.031111271548
   RMS gradient:       0.000026921208
MG BCs: +ve charge blocks (gridpoints):     30396 (   16800546).
MG BCs: -ve charge blocks (gridpoints):      8122 (    1077978).
MG BCs:     Elided blocks (gridpoints):    166713 (  172898181).
MG BCs: Computational effort saved:  99.9798%.
MG BCs: Charge after coarse-graining:           -9.0009567.
MG DL_MG: Calling solver with defect correction order = 8
MG DL_MG: Solver finished
MG Hartree energy from (\int phi*rho dr):              1438.472975
MG Hartree energy from (\int eps (grad phi)^2 dr):     1437.815353
MG Discrepancy due to finite box and discretization:     -0.657621 (  -0.04572%)
MG Correction to account for finite box:                  0.466812
MG Remaining discrepancy, due to discretization:         -0.190810 (  -0.01326%)
     Trial step:       0.481857253301
             Q1:  -11595.613251183531
 Quadratic coef:       0.005154040931
 Linear coef   :      -0.014991191855
           Qmin:  -11595.614314985676
Quadratic minimum step length (  0.700771940608) accepted
    Initial Ne1:    7234.00101404
      Final Ne1:    7234.00000000

=================== Penalty functional idempotency correction ==================
 RMS occupancy error at iteration   1:  0.000041 (step -0.4997 Ne1=   7234.0000)
            Final RMS occupancy error   :  0.000000 (Ne1=   7234.0000)
               Final occupancy bounds   : [ -0.0000,  1.0000]
================================================================================

    6        -1.159560341403E+04     2.6921E-05     2.4353E-05    -2.5276E-02
MG BCs: +ve charge blocks (gridpoints):     30397 (   16800425).
MG BCs: -ve charge blocks (gridpoints):      8121 (    1078072).
MG BCs:     Elided blocks (gridpoints):    166712 (  172898208).
MG BCs: Computational effort saved:  99.9798%.
MG BCs: Charge after coarse-graining:           -9.0009566.
MG DL_MG: Calling solver with defect correction order = 8
MG DL_MG: Solver finished
MG Hartree energy from (\int phi*rho dr):              1438.183979
MG Hartree energy from (\int eps (grad phi)^2 dr):     1437.526365
MG Discrepancy due to finite box and discretization:     -0.657614 (  -0.04573%)
MG Correction to account for finite box:                  0.466810
MG Remaining discrepancy, due to discretization:         -0.190804 (  -0.01327%)
      ideal mu1:      -0.782467253857
             Q0:  -11595.614323221147
             G0:      -0.016134550618
   RMS gradient:       0.000019410430
MG BCs: +ve charge blocks (gridpoints):     30397 (   16800882).
MG BCs: -ve charge blocks (gridpoints):      8122 (    1077812).
MG BCs:     Elided blocks (gridpoints):    166712 (  172898011).
MG BCs: Computational effort saved:  99.9798%.
MG BCs: Charge after coarse-graining:           -9.0009567.
MG DL_MG: Calling solver with defect correction order = 8
MG DL_MG: Solver finished
MG Hartree energy from (\int phi*rho dr):              1438.833391
MG Hartree energy from (\int eps (grad phi)^2 dr):     1438.175809
MG Discrepancy due to finite box and discretization:     -0.657582 (  -0.04570%)
MG Correction to account for finite box:                  0.466796
MG Remaining discrepancy, due to discretization:         -0.190787 (  -0.01326%)
     Trial step:       0.581095553667
             Q1:  -11595.618542366195
 Quadratic coef:       0.005156570576
 Linear coef   :      -0.009375715624
           Qmin:  -11595.618584970412
Quadratic minimum step length (  0.528276165450) accepted
    Initial Ne1:    7234.00024071
      Final Ne1:    7234.00000000

=================== Penalty functional idempotency correction ==================
 RMS occupancy error at iteration   1:  0.000002 (step -0.5000 Ne1=   7234.0000)
            Final RMS occupancy error   :  0.000000 (Ne1=   7234.0000)
               Final occupancy bounds   : [  0.0000,  1.0000]
================================================================================

    7        -1.159561432322E+04     1.9410E-05     1.7559E-05    -1.0909E-02
MG BCs: +ve charge blocks (gridpoints):     30397 (   16800827).
MG BCs: -ve charge blocks (gridpoints):      8122 (    1077842).
MG BCs:     Elided blocks (gridpoints):    166712 (  172898036).
MG BCs: Computational effort saved:  99.9798%.
MG BCs: Charge after coarse-graining:           -9.0009567.
MG DL_MG: Calling solver with defect correction order = 8
MG DL_MG: Solver finished
MG Hartree energy from (\int phi*rho dr):              1438.774280
MG Hartree energy from (\int eps (grad phi)^2 dr):     1438.116695
MG Discrepancy due to finite box and discretization:     -0.657585 (  -0.04570%)
MG Correction to account for finite box:                  0.466797
MG Remaining discrepancy, due to discretization:         -0.190788 (  -0.01326%)
      ideal mu1:      -0.782748672051
             Q0:  -11595.618585084449
             G0:      -0.009385451552
   RMS gradient:       0.000014804591
MG BCs: +ve charge blocks (gridpoints):     30397 (   16800910).
MG BCs: -ve charge blocks (gridpoints):      8122 (    1077792).
MG BCs:     Elided blocks (gridpoints):    166712 (  172898003).
MG BCs: Computational effort saved:  99.9798%.
MG BCs: Charge after coarse-graining:           -9.0009568.
MG DL_MG: Calling solver with defect correction order = 8
MG DL_MG: Solver finished
MG Hartree energy from (\int phi*rho dr):              1438.812108
MG Hartree energy from (\int eps (grad phi)^2 dr):     1438.154572
MG Discrepancy due to finite box and discretization:     -0.657537 (  -0.04570%)
MG Correction to account for finite box:                  0.466781
MG Remaining discrepancy, due to discretization:         -0.190755 (  -0.01326%)
     Trial step:       0.554056793886
             Q1:  -11595.622379272128
 Quadratic coef:       0.001405885516
 Linear coef   :      -0.005200073196
           Qmin:  -11595.623393577200
Quadratic minimum step length (  1.024669452254) accepted
    Initial Ne1:    7234.00027021
      Final Ne1:    7234.00000000

=================== Penalty functional idempotency correction ==================
 RMS occupancy error at iteration   1:  0.000025 (step -0.4991 Ne1=   7234.0000)
            Final RMS occupancy error   :  0.000000 (Ne1=   7234.0000)
               Final occupancy bounds   : [ -0.0000,  1.0000]
================================================================================

    8        -1.159561858508E+04     1.4805E-05     1.3392E-05    -4.2619E-03
MG BCs: +ve charge blocks (gridpoints):     30397 (   16800948).
MG BCs: -ve charge blocks (gridpoints):      8122 (    1077784).
MG BCs:     Elided blocks (gridpoints):    166712 (  172897973).
MG BCs: Computational effort saved:  99.9798%.
MG BCs: Charge after coarse-graining:           -9.0009568.
MG DL_MG: Calling solver with defect correction order = 8
MG DL_MG: Solver finished
MG Hartree energy from (\int phi*rho dr):              1438.842778
MG Hartree energy from (\int eps (grad phi)^2 dr):     1438.185284
MG Discrepancy due to finite box and discretization:     -0.657494 (  -0.04570%)
MG Correction to account for finite box:                  0.466767
MG Remaining discrepancy, due to discretization:         -0.190727 (  -0.01326%)
      ideal mu1:      -0.782786090983
             Q0:  -11595.623380469158
             G0:      -0.012984585612
   RMS gradient:       0.000017460856
MG BCs: +ve charge blocks (gridpoints):     30399 (   16800832).
MG BCs: -ve charge blocks (gridpoints):      8121 (    1077897).
MG BCs:     Elided blocks (gridpoints):    166710 (  172897976).
MG BCs: Computational effort saved:  99.9798%.
MG BCs: Charge after coarse-graining:           -9.0009568.
MG DL_MG: Calling solver with defect correction order = 8
MG DL_MG: Solver finished
MG Hartree energy from (\int phi*rho dr):              1438.508624
MG Hartree energy from (\int eps (grad phi)^2 dr):     1437.851206
MG Discrepancy due to finite box and discretization:     -0.657418 (  -0.04570%)
MG Correction to account for finite box:                  0.466735
MG Remaining discrepancy, due to discretization:         -0.190682 (  -0.01326%)
     Trial step:       0.753475329064
             Q1:  -11595.629246331519
 Quadratic coef:       0.003917702556
 Linear coef   :      -0.009783564916
           Qmin:  -11595.629488522354
Quadratic minimum step length (  0.940816038267) accepted
    Initial Ne1:    7234.00062626
      Final Ne1:    7234.00000000

=================== Penalty functional idempotency correction ==================
 RMS occupancy error at iteration   1:  0.000119 (step -0.4959 Ne1=   7234.0000)
 RMS occupancy error at iteration   2:  0.000000 (step -0.5000 Ne1=   7234.0000)
            Final RMS occupancy error   :  0.000000 (Ne1=   7234.0000)
               Final occupancy bounds   : [  0.0000,  1.0000]
================================================================================

    9        -1.159562338047E+04     1.7461E-05     1.5795E-05    -4.7954E-03
MG BCs: +ve charge blocks (gridpoints):     30399 (   16800816).
MG BCs: -ve charge blocks (gridpoints):      8122 (    1077924).
MG BCs:     Elided blocks (gridpoints):    166710 (  172897965).
MG BCs: Computational effort saved:  99.9798%.
MG BCs: Charge after coarse-graining:           -9.0009567.
MG DL_MG: Calling solver with defect correction order = 8
MG DL_MG: Solver finished
MG Hartree energy from (\int phi*rho dr):              1438.423733
MG Hartree energy from (\int eps (grad phi)^2 dr):     1437.766336
MG Discrepancy due to finite box and discretization:     -0.657397 (  -0.04570%)
MG Correction to account for finite box:                  0.466726
MG Remaining discrepancy, due to discretization:         -0.190671 (  -0.01326%)
      ideal mu1:      -0.782278232537
   10        -1.159562946239E+04     1.8153E-05     1.6422E-05    -6.0819E-03
Finished density kernel iterations (  10)

Writing density kernel to file "complex_21381.vacuum_dkn" ... done


>>> Density kernel optimised for the current NGWF basis:
     ~~~~~~~~~~~~~~~~~~~~~~~~~~~~~~~~~~~~~~~~~~~~~~~~~~~~~~~~~~~
     Total energy                =  -1.15956294623865E+04  Eh
     Estimated bandgap           =  -2.8879E-01  Eh
     RMS occupancy error         =   1.7453E-11
     [H,K] commutator            =   1.6422E-05
     Occupancy bounds            = [  0.000:  1.000]
     ~~~~~~~~~~~~~~~~~~~~~~~~~~~~~~~~~~~~~~~~~~~~~~~~~~~~~~~~~~~




################################################################################
########################### NGWF CG iteration  001 #############################
################################################################################
****** Reciprocal space K.E. preconditioning with k_zero =  3.5000 a0^-1 *******

>>> Checking for convergence of NGWFs:   NOT CONVERGED
  ========================================================================
         NGWF RMS gradient =  1.6321E-03 >  2.0000E-06  | above tolerance
  ========================================================================

>>> Improving NGWFs using line search:
============ Calculation of NGWF S^-1 using Hotelling algorithm ================ 
         Iteration  |  Frobenius norm and Maximum abs value    (of I-S*S_n^-1)   
               1       0.20440527E+00     0.54641665E-02
               2       0.97081212E-03     0.42102255E-04
               3       0.37645443E-07     0.25144675E-08
               4       0.12891494E-12     0.59952043E-14
================================================================================
MG BCs: +ve charge blocks (gridpoints):     29910 (   16743073).
MG BCs: -ve charge blocks (gridpoints):      8135 (    1077711).
MG BCs:     Elided blocks (gridpoints):    167201 (  172955921).
MG BCs: Computational effort saved:  99.9801%.
MG BCs: Charge after coarse-graining:           -9.0009565.
MG DL_MG: Calling solver with defect correction order = 8
MG DL_MG: Solver finished
MG Hartree energy from (\int phi*rho dr):              1405.998580
MG Hartree energy from (\int eps (grad phi)^2 dr):     1405.342160
MG Discrepancy due to finite box and discretization:     -0.656419 (  -0.04669%)
MG Correction to account for finite box:                  0.466684
MG Remaining discrepancy, due to discretization:         -0.189735 (  -0.01349%)
============ Calculation of NGWF S^-1 using Hotelling algorithm ================ 
         Iteration  |  Frobenius norm and Maximum abs value    (of I-S*S_n^-1)   
               1       0.18360239E+01     0.40538596E-01
               2       0.69949972E-01     0.22075173E-02
               3       0.13864950E-03     0.73623232E-05
               4       0.96143202E-09     0.84546814E-10
               5       0.11177567E-12     0.51070259E-14
================================================================================
------------------------------- NGWF line search -------------------------------
RMS gradient                =       0.00163211165779
Trial step length           =               0.122474
Gradient along search dir.  =       -285.22890566973
Functional at step 0        =  -11595.62946238648146
Functional at step 1        =  -11627.81890548160300
Functional predicted        =  -11706.81865792864483
Selected quadratic step     =               0.779649
--------------------------- NGWF line search finished --------------------------
                                               
Writing NGWFs to file "complex_21381.vacuum_tightbox_ngwfs"....  done

>>> Optimising kernel for current NGWFs:
   Initial electron number for spin 1:    7268.98233522
     Final electron number for spin 1:    7234.00000000

=================== Penalty functional idempotency correction ==================
 RMS occupancy error at iteration   1:  0.004388 (step -0.4850 Ne1=   7234.0000)
 RMS occupancy error at iteration   2:  0.000078 (step -0.5003 Ne1=   7234.0000)
            Final RMS occupancy error   :  0.000000 (Ne1=   7234.0000)
               Final occupancy bounds   : [  0.0000,  1.0000]
================================================================================

................................................................................
<<<<<<<<<<<<<< LNV (Original version) density kernel optimisation >>>>>>>>>>>>>>
~~~~~~~~~~~~~~~~~~~~~~~~~~~~~~~~~~~~~~~~~~~~~~~~~~~~~~~~~~~~~~~~~~~~~~~~~~~~~~~~
   iter  |      energy (Eh)       | rms gradient |  commutator  |   dE (Eh)
MG BCs: +ve charge blocks (gridpoints):     24170 (   16405928).
MG BCs: -ve charge blocks (gridpoints):      8267 (    1062302).
MG BCs:     Elided blocks (gridpoints):    172950 (  173308475).
MG BCs: Computational effort saved:  99.9830%.
MG BCs: Charge after coarse-graining:           -9.0006678.
MG DL_MG: Calling solver with defect correction order = 8
MG DL_MG: Solver finished
MG Hartree energy from (\int phi*rho dr):              1253.753266
MG Hartree energy from (\int eps (grad phi)^2 dr):     1253.097097
MG Discrepancy due to finite box and discretization:     -0.656169 (  -0.05234%)
MG Correction to account for finite box:                  0.466493
MG Remaining discrepancy, due to discretization:         -0.189676 (  -0.01513%)
      ideal mu1:      -0.721283873938
             Q0:  -11706.050043143914
             G0:      -9.653728697406
   RMS gradient:       0.000474792942
MG BCs: +ve charge blocks (gridpoints):     24236 (   16422896).
MG BCs: -ve charge blocks (gridpoints):      8254 (    1058393).
MG BCs:     Elided blocks (gridpoints):    172884 (  173295416).
MG BCs: Computational effort saved:  99.9830%.
MG BCs: Charge after coarse-graining:           -9.0006627.
MG DL_MG: Calling solver with defect correction order = 8
MG DL_MG: Solver finished
MG Hartree energy from (\int phi*rho dr):              1272.207982
MG Hartree energy from (\int eps (grad phi)^2 dr):     1271.545108
MG Discrepancy due to finite box and discretization:     -0.662874 (  -0.05210%)
MG Correction to account for finite box:                  0.466091
MG Remaining discrepancy, due to discretization:         -0.196783 (  -0.01547%)
     Trial step:       0.841951111420
             Q1:  -11703.800984076923
 Quadratic coef:      10.377026673121
 Linear coef   :      -8.127967606130
           Qmin:  -11707.641632418166
Quadratic minimum step length (  0.329735654303) accepted
    Initial Ne1:    7233.99947282
      Final Ne1:    7234.00000000

=================== Penalty functional idempotency correction ==================
 RMS occupancy error at iteration   1:  0.000349 (step -0.4986 Ne1=   7234.0000)
 RMS occupancy error at iteration   2:  0.000000 (step -0.5000 Ne1=   7234.0000)
            Final RMS occupancy error   :  0.000000 (Ne1=   7234.0000)
               Final occupancy bounds   : [  0.0000,  1.0000]
================================================================================

    1        -1.170605004314E+04     4.7479E-04     4.2951E-04
MG BCs: +ve charge blocks (gridpoints):     24192 (   16412833).
MG BCs: -ve charge blocks (gridpoints):      8269 (    1060725).
MG BCs:     Elided blocks (gridpoints):    172928 (  173303147).
MG BCs: Computational effort saved:  99.9830%.
MG BCs: Charge after coarse-graining:           -9.0006657.
MG DL_MG: Calling solver with defect correction order = 8
MG DL_MG: Solver finished
MG Hartree energy from (\int phi*rho dr):              1259.752500
MG Hartree energy from (\int eps (grad phi)^2 dr):     1259.093830
MG Discrepancy due to finite box and discretization:     -0.658670 (  -0.05229%)
MG Correction to account for finite box:                  0.466315
MG Remaining discrepancy, due to discretization:         -0.192355 (  -0.01527%)
      ideal mu1:      -0.728475989718
             Q0:  -11707.609324930469
             G0:      -0.968821601145
   RMS gradient:       0.000151452175
MG BCs: +ve charge blocks (gridpoints):     24197 (   16412597).
MG BCs: -ve charge blocks (gridpoints):      8271 (    1061612).
MG BCs:     Elided blocks (gridpoints):    172923 (  173302496).
MG BCs: Computational effort saved:  99.9830%.
MG BCs: Charge after coarse-graining:           -9.0006655.
MG DL_MG: Calling solver with defect correction order = 8
MG DL_MG: Solver finished
MG Hartree energy from (\int phi*rho dr):              1260.901779
MG Hartree energy from (\int eps (grad phi)^2 dr):     1260.242699
MG Discrepancy due to finite box and discretization:     -0.659080 (  -0.05227%)
MG Correction to account for finite box:                  0.466308
MG Remaining discrepancy, due to discretization:         -0.192773 (  -0.01529%)
     Trial step:       0.526897808513
             Q1:  -11707.804712934303
 Quadratic coef:       0.315081974648
 Linear coef   :      -0.510469978483
           Qmin:  -11707.816080330571
Quadratic minimum step length (  0.426818311766) accepted
    Initial Ne1:    7233.99993055
      Final Ne1:    7234.00000000

=================== Penalty functional idempotency correction ==================
 RMS occupancy error at iteration   1:  0.000140 (step -0.4994 Ne1=   7234.0000)
            Final RMS occupancy error   :  0.000000 (Ne1=   7234.0000)
               Final occupancy bounds   : [ -0.0000,  1.0000]
================================================================================

    2        -1.170760932493E+04     1.5145E-04     1.3701E-04    -1.5593E+00
MG BCs: +ve charge blocks (gridpoints):     24194 (   16412640).
MG BCs: -ve charge blocks (gridpoints):      8272 (    1061439).
MG BCs:     Elided blocks (gridpoints):    172926 (  173302626).
MG BCs: Computational effort saved:  99.9830%.
MG BCs: Charge after coarse-graining:           -9.0006656.
MG DL_MG: Calling solver with defect correction order = 8
MG DL_MG: Solver finished
MG Hartree energy from (\int phi*rho dr):              1260.683275
MG Hartree energy from (\int eps (grad phi)^2 dr):     1260.024275
MG Discrepancy due to finite box and discretization:     -0.659000 (  -0.05227%)
MG Correction to account for finite box:                  0.466309
MG Remaining discrepancy, due to discretization:         -0.192691 (  -0.01528%)
      ideal mu1:      -0.729606255391
             Q0:  -11707.816536321887
             G0:      -0.143919093913
   RMS gradient:       0.000057907461
MG BCs: +ve charge blocks (gridpoints):     24196 (   16411972).
MG BCs: -ve charge blocks (gridpoints):      8272 (    1061850).
MG BCs:     Elided blocks (gridpoints):    172924 (  173302883).
MG BCs: Computational effort saved:  99.9830%.
MG BCs: Charge after coarse-graining:           -9.0006656.
MG DL_MG: Calling solver with defect correction order = 8
MG DL_MG: Solver finished
MG Hartree energy from (\int phi*rho dr):              1260.200777
MG Hartree energy from (\int eps (grad phi)^2 dr):     1259.541809
MG Discrepancy due to finite box and discretization:     -0.658967 (  -0.05229%)
MG Correction to account for finite box:                  0.466304
MG Remaining discrepancy, due to discretization:         -0.192664 (  -0.01529%)
     Trial step:       0.474225297831
             Q1:  -11707.860222631716
 Quadratic coef:       0.024563765344
 Linear coef   :      -0.068250075175
           Qmin:  -11707.863944289436
Quadratic minimum step length (  0.658814147037) accepted
    Initial Ne1:    7234.00059546
      Final Ne1:    7234.00000000

=================== Penalty functional idempotency correction ==================
 RMS occupancy error at iteration   1:  0.000061 (step -0.4998 Ne1=   7234.0000)
            Final RMS occupancy error   :  0.000000 (Ne1=   7234.0000)
               Final occupancy bounds   : [ -0.0000,  1.0000]
================================================================================

    3        -1.170781653632E+04     5.7907E-05     5.2384E-05    -2.0721E-01
MG BCs: +ve charge blocks (gridpoints):     24193 (   16411732).
MG BCs: -ve charge blocks (gridpoints):      8272 (    1062027).
MG BCs:     Elided blocks (gridpoints):    172927 (  173302946).
MG BCs: Computational effort saved:  99.9830%.
MG BCs: Charge after coarse-graining:           -9.0006656.
MG DL_MG: Calling solver with defect correction order = 8
MG DL_MG: Solver finished
MG Hartree energy from (\int phi*rho dr):              1260.013071
MG Hartree energy from (\int eps (grad phi)^2 dr):     1259.354115
MG Discrepancy due to finite box and discretization:     -0.658956 (  -0.05230%)
MG Correction to account for finite box:                  0.466302
MG Remaining discrepancy, due to discretization:         -0.192654 (  -0.01529%)
      ideal mu1:      -0.728644536856
             Q0:  -11707.864028627635
             G0:      -0.033836958022
   RMS gradient:       0.000028069726
MG BCs: +ve charge blocks (gridpoints):     24191 (   16411499).
MG BCs: -ve charge blocks (gridpoints):      8272 (    1062105).
MG BCs:     Elided blocks (gridpoints):    172929 (  173303101).
MG BCs: Computational effort saved:  99.9830%.
MG BCs: Charge after coarse-graining:           -9.0006656.
MG DL_MG: Calling solver with defect correction order = 8
MG DL_MG: Solver finished
MG Hartree energy from (\int phi*rho dr):              1260.029489
MG Hartree energy from (\int eps (grad phi)^2 dr):     1259.370638
MG Discrepancy due to finite box and discretization:     -0.658851 (  -0.05229%)
MG Correction to account for finite box:                  0.466306
MG Remaining discrepancy, due to discretization:         -0.192546 (  -0.01528%)
     Trial step:       0.558951102596
             Q1:  -11707.872450189316
 Quadratic coef:       0.010491643314
 Linear coef   :      -0.018913204995
           Qmin:  -11707.872552300059
Quadratic minimum step length (  0.503808434459) accepted
    Initial Ne1:    7234.00021326
      Final Ne1:    7234.00000000

=================== Penalty functional idempotency correction ==================
 RMS occupancy error at iteration   1:  0.000017 (step -0.4999 Ne1=   7234.0000)
            Final RMS occupancy error   :  0.000000 (Ne1=   7234.0000)
               Final occupancy bounds   : [ -0.0000,  1.0000]
================================================================================

    4        -1.170786402863E+04     2.8070E-05     2.5392E-05    -4.7492E-02
MG BCs: +ve charge blocks (gridpoints):     24192 (   16411523).
MG BCs: -ve charge blocks (gridpoints):      8271 (    1062093).
MG BCs:     Elided blocks (gridpoints):    172928 (  173303089).
MG BCs: Computational effort saved:  99.9830%.
MG BCs: Charge after coarse-graining:           -9.0006656.
MG DL_MG: Calling solver with defect correction order = 8
MG DL_MG: Solver finished
MG Hartree energy from (\int phi*rho dr):              1260.027708
MG Hartree energy from (\int eps (grad phi)^2 dr):     1259.368846
MG Discrepancy due to finite box and discretization:     -0.658862 (  -0.05229%)
MG Correction to account for finite box:                  0.466305
MG Remaining discrepancy, due to discretization:         -0.192556 (  -0.01528%)
      ideal mu1:      -0.728630394665
             Q0:  -11707.872556711663
             G0:      -0.010864942692
   RMS gradient:       0.000015925401
MG BCs: +ve charge blocks (gridpoints):     24194 (   16412070).
MG BCs: -ve charge blocks (gridpoints):      8270 (    1061864).
MG BCs:     Elided blocks (gridpoints):    172926 (  173302771).
MG BCs: Computational effort saved:  99.9830%.
MG BCs: Charge after coarse-graining:           -9.0006655.
MG DL_MG: Calling solver with defect correction order = 8
MG DL_MG: Solver finished
MG Hartree energy from (\int phi*rho dr):              1260.420134
MG Hartree energy from (\int eps (grad phi)^2 dr):     1259.761312
MG Discrepancy due to finite box and discretization:     -0.658823 (  -0.05227%)
MG Correction to account for finite box:                  0.466299
MG Remaining discrepancy, due to discretization:         -0.192523 (  -0.01527%)
     Trial step:       0.530663999098
             Q1:  -11707.875555757666
 Quadratic coef:       0.002766587937
 Linear coef   :      -0.005765633939
           Qmin:  -11707.875560640643
Quadratic minimum step length (  0.552958090080) accepted
    Initial Ne1:    7234.00008586
      Final Ne1:    7234.00000000

=================== Penalty functional idempotency correction ==================
 RMS occupancy error at iteration   1:  0.000008 (step -0.5000 Ne1=   7234.0000)
            Final RMS occupancy error   :  0.000000 (Ne1=   7234.0000)
               Final occupancy bounds   : [ -0.0000,  1.0000]
================================================================================

    5        -1.170787255671E+04     1.5925E-05     1.4406E-05    -8.5281E-03
MG BCs: +ve charge blocks (gridpoints):     24194 (   16412098).
MG BCs: -ve charge blocks (gridpoints):      8270 (    1061849).
MG BCs:     Elided blocks (gridpoints):    172926 (  173302758).
MG BCs: Computational effort saved:  99.9830%.
MG BCs: Charge after coarse-graining:           -9.0006655.
MG DL_MG: Calling solver with defect correction order = 8
MG DL_MG: Solver finished
MG Hartree energy from (\int phi*rho dr):              1260.436641
MG Hartree energy from (\int eps (grad phi)^2 dr):     1259.777819
MG Discrepancy due to finite box and discretization:     -0.658821 (  -0.05227%)
MG Correction to account for finite box:                  0.466299
MG Remaining discrepancy, due to discretization:         -0.192522 (  -0.01527%)
      ideal mu1:      -0.728981545908
             Q0:  -11707.875561469700
             G0:      -0.003241693329
   RMS gradient:       0.000008698916
MG BCs: +ve charge blocks (gridpoints):     24194 (   16412079).
MG BCs: -ve charge blocks (gridpoints):      8270 (    1061891).
MG BCs:     Elided blocks (gridpoints):    172926 (  173302735).
MG BCs: Computational effort saved:  99.9830%.
MG BCs: Charge after coarse-graining:           -9.0006655.
MG DL_MG: Calling solver with defect correction order = 8
MG DL_MG: Solver finished
MG Hartree energy from (\int phi*rho dr):              1260.400850
MG Hartree energy from (\int eps (grad phi)^2 dr):     1259.742037
MG Discrepancy due to finite box and discretization:     -0.658813 (  -0.05227%)
MG Correction to account for finite box:                  0.466296
MG Remaining discrepancy, due to discretization:         -0.192517 (  -0.01527%)
     Trial step:       0.541696364595
             Q1:  -11707.876654549735
 Quadratic coef:       0.000662933457
 Linear coef   :      -0.001756013491
           Qmin:  -11707.876724325244
Quadratic minimum step length (  0.717437108455) accepted
    Initial Ne1:    7234.00003883
      Final Ne1:    7234.00000000

=================== Penalty functional idempotency correction ==================
 RMS occupancy error at iteration   1:  0.000005 (step -0.4999 Ne1=   7234.0000)
            Final RMS occupancy error   :  0.000000 (Ne1=   7234.0000)
               Final occupancy bounds   : [ -0.0000,  1.0000]
================================================================================

    6        -1.170787556147E+04     8.6989E-06     7.8692E-06    -3.0048E-03
MG BCs: +ve charge blocks (gridpoints):     24194 (   16412066).
MG BCs: -ve charge blocks (gridpoints):      8270 (    1061908).
MG BCs:     Elided blocks (gridpoints):    172926 (  173302731).
MG BCs: Computational effort saved:  99.9830%.
MG BCs: Charge after coarse-graining:           -9.0006655.
MG DL_MG: Calling solver with defect correction order = 8
MG DL_MG: Solver finished
MG Hartree energy from (\int phi*rho dr):              1260.389218
MG Hartree energy from (\int eps (grad phi)^2 dr):     1259.730408
MG Discrepancy due to finite box and discretization:     -0.658810 (  -0.05227%)
MG Correction to account for finite box:                  0.466295
MG Remaining discrepancy, due to discretization:         -0.192515 (  -0.01527%)
      ideal mu1:      -0.728939234465
             Q0:  -11707.876724384027
             G0:      -0.001787206775
   RMS gradient:       0.000006460172
MG BCs: +ve charge blocks (gridpoints):     24194 (   16411841).
MG BCs: -ve charge blocks (gridpoints):      8271 (    1061982).
MG BCs:     Elided blocks (gridpoints):    172926 (  173302882).
MG BCs: Computational effort saved:  99.9830%.
MG BCs: Charge after coarse-graining:           -9.0006655.
MG DL_MG: Calling solver with defect correction order = 8
MG DL_MG: Solver finished
MG Hartree energy from (\int phi*rho dr):              1260.296647
MG Hartree energy from (\int eps (grad phi)^2 dr):     1259.637825
MG Discrepancy due to finite box and discretization:     -0.658823 (  -0.05228%)
MG Correction to account for finite box:                  0.466298
MG Remaining discrepancy, due to discretization:         -0.192524 (  -0.01528%)
     Trial step:       0.623404422085
             Q1:  -11707.877130244393
 Quadratic coef:       0.000708292240
 Linear coef   :      -0.001114152606
           Qmin:  -11707.877162528044
Quadratic minimum step length (  0.490311500165) accepted
    Initial Ne1:    7234.00000711
      Final Ne1:    7234.00000000

=================== Penalty functional idempotency correction ==================
 RMS occupancy error at iteration   1:  0.000000 (step -0.5000 Ne1=   7234.0000)
            Final RMS occupancy error   :  0.000000 (Ne1=   7234.0000)
               Final occupancy bounds   : [  0.0000,  1.0000]
================================================================================

    7        -1.170787672438E+04     6.4602E-06     5.8440E-06    -1.1629E-03
MG BCs: +ve charge blocks (gridpoints):     24194 (   16411899).
MG BCs: -ve charge blocks (gridpoints):      8271 (    1061961).
MG BCs:     Elided blocks (gridpoints):    172926 (  173302845).
MG BCs: Computational effort saved:  99.9830%.
MG BCs: Charge after coarse-graining:           -9.0006655.
MG DL_MG: Calling solver with defect correction order = 8
MG DL_MG: Solver finished
MG Hartree energy from (\int phi*rho dr):              1260.316374
MG Hartree energy from (\int eps (grad phi)^2 dr):     1259.657554
MG Discrepancy due to finite box and discretization:     -0.658820 (  -0.05227%)
MG Correction to account for finite box:                  0.466298
MG Remaining discrepancy, due to discretization:         -0.192523 (  -0.01528%)
      ideal mu1:      -0.728865303446
             Q0:  -11707.877162525081
             G0:      -0.001156274610
   RMS gradient:       0.000005196174
MG BCs: +ve charge blocks (gridpoints):     24194 (   16411848).
MG BCs: -ve charge blocks (gridpoints):      8271 (    1061974).
MG BCs:     Elided blocks (gridpoints):    172926 (  173302883).
MG BCs: Computational effort saved:  99.9830%.
MG BCs: Charge after coarse-graining:           -9.0006655.
MG DL_MG: Calling solver with defect correction order = 8
MG DL_MG: Solver finished
MG Hartree energy from (\int phi*rho dr):              1260.273129
MG Hartree energy from (\int eps (grad phi)^2 dr):     1259.614302
MG Discrepancy due to finite box and discretization:     -0.658828 (  -0.05228%)
MG Correction to account for finite box:                  0.466299
MG Remaining discrepancy, due to discretization:         -0.192528 (  -0.01528%)
     Trial step:       0.552867395858
             Q1:  -11707.877676004311
 Quadratic coef:       0.000125787303
 Linear coef   :      -0.000639266533
           Qmin:  -11707.877974732854
Quadratic minimum step length (  1.404870028210) accepted
    Initial Ne1:    7234.00001312
      Final Ne1:    7234.00000000

=================== Penalty functional idempotency correction ==================
 RMS occupancy error at iteration   1:  0.000011 (step -0.4993 Ne1=   7234.0000)
            Final RMS occupancy error   :  0.000000 (Ne1=   7234.0000)
               Final occupancy bounds   : [ -0.0000,  1.0000]
================================================================================

    8        -1.170787716253E+04     5.1962E-06     4.7005E-06    -4.3814E-04
MG BCs: +ve charge blocks (gridpoints):     24194 (   16411775).
MG BCs: -ve charge blocks (gridpoints):      8271 (    1061999).
MG BCs:     Elided blocks (gridpoints):    172926 (  173302931).
MG BCs: Computational effort saved:  99.9830%.
MG BCs: Charge after coarse-graining:           -9.0006656.
[...]
MG Hartree energy from (\int phi*rho dr):              1217.205557
MG Hartree energy from (\int eps (grad phi)^2 dr):     1217.007433
MG Discrepancy due to finite box and discretization:     -0.198123 (  -0.01628%)
MG Correction to account for finite box:                  0.006468
MG Remaining discrepancy, due to discretization:         -0.191655 (  -0.01575%)
             Q2:  -11742.500288141076
  Cubic LS coeff:       1.035304929286
Predicted energy:  -11742.500288141226
Cubic minimum step length accepted
    Initial Ne1:    7234.00000000
      Final Ne1:    7234.00000000

=================== Penalty functional idempotency correction ==================
 RMS occupancy error at iteration   1:  0.000000 (step -0.5000 Ne1=   7234.0000)
            Final RMS occupancy error   :  0.000000 (Ne1=   7234.0000)
               Final occupancy bounds   : [  0.0000,  1.0000]
================================================================================

    7        -1.174250028814E+04     9.6087E-09     8.6922E-09    -2.3283E-09

Reusing previously generated solute cavity.
MG BCs: +ve charge blocks (gridpoints):     28710 (   18582802).
MG BCs: -ve charge blocks (gridpoints):      8265 (    1031214).
MG BCs:     Elided blocks (gridpoints):    168410 (  171162689).
MG BCs: Computational effort saved:  99.9806%.
MG BCs: Charge after coarse-graining:           -9.0009310.
MG DL_MG: Calling solver with defect correction order = 8
MG DL_MG: Solver finished
MG Hartree energy from (\int phi*rho dr):              1217.205551
MG Hartree energy from (\int eps (grad phi)^2 dr):     1217.007428
MG Discrepancy due to finite box and discretization:     -0.198123 (  -0.01628%)
MG Correction to account for finite box:                  0.006468
MG Remaining discrepancy, due to discretization:         -0.191655 (  -0.01575%)
      ideal mu1:      -0.481845803912
             Q0:  -11742.500288141309
             G0:      -0.000000004941
   RMS gradient:       0.000000009917

Reusing previously generated solute cavity.
MG BCs: +ve charge blocks (gridpoints):     28710 (   18582801).
MG BCs: -ve charge blocks (gridpoints):      8265 (    1031213).
MG BCs:     Elided blocks (gridpoints):    168410 (  171162691).
MG BCs: Computational effort saved:  99.9806%.
MG BCs: Charge after coarse-graining:           -9.0009310.
MG DL_MG: Calling solver with defect correction order = 8
MG DL_MG: Solver finished
MG Hartree energy from (\int phi*rho dr):              1217.205519
MG Hartree energy from (\int eps (grad phi)^2 dr):     1217.007396
MG Discrepancy due to finite box and discretization:     -0.198123 (  -0.01628%)
MG Correction to account for finite box:                  0.006468
MG Remaining discrepancy, due to discretization:         -0.191655 (  -0.01575%)
     Trial step:       0.681419944442
             Q1:  -11742.500288142939
 Quadratic coef:       0.000000001737
 Linear coef   :      -0.000000003367
           Qmin:  -11742.500288142941
Quadratic minimum step length (  0.660337288633) accepted
    Initial Ne1:    7234.00000000
      Final Ne1:    7234.00000000

=================== Penalty functional idempotency correction ==================
 RMS occupancy error at iteration   1:  0.000000 (step -0.5000 Ne1=   7234.0000)
            Final RMS occupancy error   :  0.000000 (Ne1=   7234.0000)
               Final occupancy bounds   : [  0.0000,  1.0000]
================================================================================

    8        -1.174250028814E+04     9.9170E-09     8.9711E-09    -4.1910E-09

Reusing previously generated solute cavity.
MG BCs: +ve charge blocks (gridpoints):     28710 (   18582801).
MG BCs: -ve charge blocks (gridpoints):      8265 (    1031213).
MG BCs:     Elided blocks (gridpoints):    168410 (  171162691).
MG BCs: Computational effort saved:  99.9806%.
MG BCs: Charge after coarse-graining:           -9.0009310.
MG DL_MG: Calling solver with defect correction order = 8
MG DL_MG: Solver finished
MG Hartree energy from (\int phi*rho dr):              1217.205520
MG Hartree energy from (\int eps (grad phi)^2 dr):     1217.007397
MG Discrepancy due to finite box and discretization:     -0.198123 (  -0.01628%)
MG Correction to account for finite box:                  0.006468
MG Remaining discrepancy, due to discretization:         -0.191655 (  -0.01575%)
      ideal mu1:      -0.481845767938
             Q0:  -11742.500288142823
             G0:      -0.000000002116
   RMS gradient:       0.000000005841

Reusing previously generated solute cavity.
MG BCs: +ve charge blocks (gridpoints):     28710 (   18582802).
MG BCs: -ve charge blocks (gridpoints):      8265 (    1031214).
MG BCs:     Elided blocks (gridpoints):    168410 (  171162689).
MG BCs: Computational effort saved:  99.9806%.
MG BCs: Charge after coarse-graining:           -9.0009310.
MG DL_MG: Calling solver with defect correction order = 8
MG DL_MG: Solver finished
MG Hartree energy from (\int phi*rho dr):              1217.205544
MG Hartree energy from (\int eps (grad phi)^2 dr):     1217.007421
MG Discrepancy due to finite box and discretization:     -0.198123 (  -0.01628%)
MG Correction to account for finite box:                  0.006468
MG Remaining discrepancy, due to discretization:         -0.191655 (  -0.01575%)
     Trial step:       0.670795794958
             Q1:  -11742.500288143521
 Quadratic coef:       0.000000000720
 Linear coef   :      -0.000000001419
           Qmin:  -11742.500288143521
Quadratic minimum step length (  0.660860632797) accepted
    Initial Ne1:    7234.00000000
      Final Ne1:    7234.00000000

=================== Penalty functional idempotency correction ==================
 RMS occupancy error at iteration   1:  0.000000 (step -0.5000 Ne1=   7234.0000)
            Final RMS occupancy error   :  0.000000 (Ne1=   7234.0000)
               Final occupancy bounds   : [  0.0000,  1.0000]
================================================================================

    9        -1.174250028814E+04     5.8412E-09     5.2841E-09    -1.5134E-09

Reusing previously generated solute cavity.
MG BCs: +ve charge blocks (gridpoints):     28710 (   18582802).
MG BCs: -ve charge blocks (gridpoints):      8265 (    1031214).
MG BCs:     Elided blocks (gridpoints):    168410 (  171162689).
MG BCs: Computational effort saved:  99.9806%.
MG BCs: Charge after coarse-graining:           -9.0009310.
MG DL_MG: Calling solver with defect correction order = 8
MG DL_MG: Solver finished
MG Hartree energy from (\int phi*rho dr):              1217.205544
MG Hartree energy from (\int eps (grad phi)^2 dr):     1217.007420
MG Discrepancy due to finite box and discretization:     -0.198123 (  -0.01628%)
MG Correction to account for finite box:                  0.006468
MG Remaining discrepancy, due to discretization:         -0.191655 (  -0.01575%)
      ideal mu1:      -0.481845787886
   10        -1.174250028814E+04     3.8056E-09     3.4426E-09    -4.6566E-10
Finished density kernel iterations (  10)

Writing density kernel to file "complex_21381.dkn" ... done


>>> Density kernel optimised for the current NGWF basis:
     ~~~~~~~~~~~~~~~~~~~~~~~~~~~~~~~~~~~~~~~~~~~~~~~~~~~~~~~~~~~
     Total energy                =  -1.17425002881433E+04  Eh
     Estimated bandgap           =   8.8890E-02  Eh
     RMS occupancy error         =   4.3639E-16
     [H,K] commutator            =   3.4426E-09
     Occupancy bounds            = [  0.000:  1.000]
     ~~~~~~~~~~~~~~~~~~~~~~~~~~~~~~~~~~~~~~~~~~~~~~~~~~~~~~~~~~~




################################################################################
########################### NGWF CG iteration  004 #############################
################################################################################
****** Reciprocal space K.E. preconditioning with k_zero =  3.5000 a0^-1 *******

>>> Checking for convergence of NGWFs: 
           ........................................................
           |         *** NGWF optimisation converged ***          |
           | RMS NGWF gradient =    0.00000198648480              |
           | Criteria satisfied:                                  |
           | -> RMS NGWF gradient lower than set threshold.       |
           ========================================================

Reusing previously generated solute cavity.
MG BCs: +ve charge blocks (gridpoints):     28710 (   18582802).
MG BCs: -ve charge blocks (gridpoints):      8265 (    1031214).
MG BCs:     Elided blocks (gridpoints):    168410 (  171162689).
MG BCs: Computational effort saved:  99.9806%.
MG BCs: Charge after coarse-graining:           -9.0009310.
MG DL_MG: Calling solver with defect correction order = 8
MG DL_MG: Solver finished
MG Hartree energy from (\int phi*rho dr):              1217.205544
MG Hartree energy from (\int eps (grad phi)^2 dr):     1217.007420
MG Discrepancy due to finite box and discretization:     -0.198123 (  -0.01628%)
MG Correction to account for finite box:                  0.006468
MG Remaining discrepancy, due to discretization:         -0.191655 (  -0.01575%)

================================================================================
           ---------------- ENERGY COMPONENTS (Eh) ----------------
           | Kinetic                    :     8571.21380346332626 |
           | Pseudo. (local,OBC,corr'd) :    -5073.18125626252004 |
           | Pseudopotential (non-local):     1411.95784747449579 |
           | Hartree (molecular)        :     1217.20554356558887 |
           | Exchange-correlation       :    -3376.19542976956654 |
           | Ion-ion (open BC)          :   839609.37440762529150 |
           | Dispersion Correction      :       -3.35263435834088 |
           | Smeared ion non-self corr. :  -839561.20496144914068 |
           | Smeared ion self corr.     :   -14538.95273137971526 |
           | Solvent cavitation energy  :        2.25962090987135 |
           | Solute-solvent dis-rep en. :       -1.62449796262926 |
           | Total                      :   -11742.50028814333018 |
           --------------------------------------------------------
           ------ LOCAL ENERGY COMPONENTS FROM MATRIX TRACES ------
           | Pseudopotential (local)    :    -5073.18125626252368 |
           | Hartree                    :    -2005.11208668539939 |
           --------------------------------------------------------
           Integrated density           :     7233.99999999897136
           Integrated density tr(KS)    :     7233.99999999999909
================================================================================


                        <<<<< CALCULATION SUMMARY >>>>>                         
|ITER|    RMS GRADIENT   |     TOTAL ENERGY    |   step   |     Epredicted              
   0     0.00004038899099 -11742.43886452750303   0.608133 -11742.49197598495266        
   1     0.00001000715414 -11742.49973770952784   0.085368 -11742.50019540838912        
   2     0.00000443102298 -11742.50026925769635   0.015710 -11742.50028577104058        
   3     0.00000198648480 -11742.50028814328834  <-- CG                                 

=================== Finished the calculation in solvent ========================
= Adjusting the following parameters: 
= read_denskern: F
= read_tightbox_ngwfs: F
= maxit_pen: 0 (restored to user-specified value)
= restart read filename prefix: ""
= restart write filename prefix: ""
================================================================================

================================================================================
IS: Calculation in solvent completed (NGWFs converged).      

Individual components of total energy in solvent:     hartree           kcal/mol
- Usual non-electrostatic DFT terms:    -12960.34095465611972    -8132736.559694
- Electrostatic fixed charge energy:      1217.20554356558887      763807.993899
- Apolar cavitation energy:                  2.25962090987135        1417.933498
- Apolar dispersion-repulsion energy:       -1.62449796262926       -1019.387840
 -------------------------------------------------------------------------------
- Total energy in solvent:              -11742.50028814328834    -7368530.020138

Components of total energy in solvent:                hartree           kcal/mol
- Usual non-electrostatic DFT terms:    -12960.34095465611972    -8132736.559694
- Electrostatic energy:                   1217.20554356558887      763807.993899
- Apolar energy terms:                       0.63512294724209         398.545658
 -------------------------------------------------------------------------------
- Total energy in solvent:              -11742.50028814328834    -7368530.020138

Calculation of free energy of solvation:              hartree           kcal/mol
- Total energy in solvent:         (+)  -11742.50028814328834    -7368530.020138
- Total energy in vacuum:          (-)  -11738.55353531707078    -7366053.395401
 -------------------------------------------------------------------------------
- Total free energy of solvation:           -3.94675282621756       -2476.624737

Components of polar term in f.e. of solvation:        hartree           kcal/mol
- Electrostatic:                            -4.68209713239003       -2938.060245
- Change in nonelectrostatic DFT terms:      0.10022135893087          62.889851
 -------------------------------------------------------------------------------
- Polar term in f.e. of solvation:          -4.58187577345916       -2875.170394

Components of free energy of solvation:               hartree           kcal/mol
- Polar term in f.e. of solvation: (+)      -4.58187577345916       -2875.170394
- Apolar (cavitation, dis., rep.): (+)       0.63512294724209         398.545658
 -------------------------------------------------------------------------------
- Total free energy of solvation:           -3.94675282621707       -2476.624737
================================================================================


------------------------------ TIMING INFORMATION ------------------------------
AVERAGE TIME:   32414.288s on     60 node(s)                                    
TOTAL TIME:     32414.288s on     60 node(s)                                    
================= AVERAGE TIMINGS FROM ALL NODES (CUMULATIVE) ==================
|| TAG                                    #calls    cpu time   %total  Gflops ||
|| work_imbalance                       :     1        0.00s   0.000%  ------ ||
|| parallel_prepare_fd_halos_request    :  2073        0.03s   0.000%  ------ ||
|| sparse_set_to_garbage                :   194        0.03s   0.000%  ------ ||
|| ngwfs_initialise_from_radial         :     1        0.09s   0.000%  ------ ||
|| basis_extract_function_from_box      :  3817        0.17s   0.001%  ------ ||
|| parallel_prepare_fd_halos_satisfy    :  2073        0.70s   0.002%  ------ ||
|| parallel_prepare_fd_halos_alloc      :  2073        1.88s   0.006%  ------ ||
|| pseudopotentials_nonlocal_mat        :    33        2.29s   0.007%  ------ ||
|| density_init_guess_real              :     1        4.00s   0.012%  ------ ||
|| restart_kernel_read                  :     1        4.39s   0.014%  ------ ||
|| openbc_locps_radial                  :     1        4.56s   0.014%  ------ ||
|| restart_ngwfs_tightbox_input         :     1        9.25s   0.029%  ------ ||
|| parallel_prepare_fd_halos_comms_imbal:  2073        9.80s   0.030%  ------ ||
|| parallel_prepare_fd_halos_clear      :  2073       21.08s   0.065%  ------ ||
|| sparse_init                          :     2       23.05s   0.071%  ------ ||
|| projectors_func_ovlp_box             :    33       28.30s   0.087%  ------ ||
|| parallel_prepare_fd_halos_comms_wait :  2073       28.90s   0.089%  ------ ||
|| function_ops_brappd_ketppd           :    33       30.49s   0.094%  ------ ||
|| palser_mano_kernel_optimise          :     1       34.00s   0.105%  ------ ||
|| projectors_init_fftbox_recip         :   152       34.27s   0.106%  ------ ||
|| basis_copy_function_to_box           : 62277       43.75s   0.135%  ------ ||
|| ngwf_gradient_coeffs                 :    17       52.39s   0.162%  ------ ||
|| fourier_apply_box_pair               :  5523       56.69s   0.175% 564.023 ||
|| pseudo_make_structure_factor         :     2       59.95s   0.185%  ------ ||
|| parallel_prepare_fd_halos            :  2073       62.41s   0.193%  ------ ||
|| sparse_embed_hotelling_invert_embed  :    33       85.06s   0.262%  ------ ||
|| restart_kernel_write                 :    18      118.23s   0.365%  ------ ||
|| finite_difference_derivative         :  2073      161.32s   0.498%  ------ ||
|| projectors_gradient_batch            :   119      162.26s   0.501%  ------ ||
|| integrals_kinetic                    :    33      163.93s   0.506%  ------ ||
|| sparse_trace                         :  5486      185.78s   0.573%  ------ ||
|| fourier_apply_cell_backward          :  1383      187.06s   0.577% 100.635 ||
|| basis_dot_function_with_box          : 9.675M     212.70s   0.656%  ------ ||
|| fourier_apply_cell_forward           :  1381      246.27s   0.760%  76.331 ||
|| openbc_locps_on_grid                 :     2      264.81s   0.817%  ------ ||
|| kernel_purify                        :   527      315.01s   0.972%  ------ ||
|| basis_add_function_to_box            : 20.21M     463.21s   1.429%  ------ ||
|| lnv_gradient_norm                    :   170      470.63s   1.452%  ------ ||
|| hamiltonian_energy_components        :     4      472.27s   1.457%  ------ ||
|| xc_energy_potential                  :   345      501.44s   1.547%  ------ ||
|| kernel_fix                           :   170      538.35s   1.661%  ------ ||
|| integrals_locpot_mat_els_batch       :  1253      804.34s   2.481%  ------ ||
|| ngwf_gradient_build_batch            :   119      807.49s   2.491%  ------ ||
|| ngwf_gradient_batch                  :   119     1121.30s   3.459%  ------ ||
|| density_batch_row_sums               :  2408     1126.55s   3.475%  ------ ||
|| ngwf_gradient_lnv                    :    17     1279.82s   3.948%  ------ ||
|| restart_ngwfs_tightbox_output        :    15     1365.46s   4.213%  ------ ||
|| cell_grid_deposit_box_real           : 39956     1431.88s   4.417%  ------ ||
|| cell_grid_extract_box_real           : 43640     1611.19s   4.971%  ------ ||
|| sparse_product                       :  6973     1961.95s   6.053%  ------ ||
|| density_fftbox_deposit_to_cell       : 37840     2141.86s   6.608%  ------ ||
|| potential_apply_to_ngwf_batch        :  1253     3869.57s  11.938%  ------ ||
|| density_fftbox_interpolate_multiply  : 37840     3882.17s  11.977%  ------ ||
|| multigrid_prepare_bound_cond         :   345     4663.08s  14.386%  ------ ||
|| integrals_locpot_dbl_grid            :   179     4693.61s  14.480%  ------ ||
|| fourier_apply_box                    : 130.0k    4789.27s  14.775% 761.405 ||
|| density_batch_interp_deposit         :  2408     7025.15s  21.673%  ------ ||
|| dl_mg_solver_calls                   :   345     7368.45s  22.732%  ------ ||
|| density_on_dbl_grid                  :   344     8560.18s  26.409%  ------ ||
|| multigrid_calculate_hartree          :   345    12254.36s  37.805%  ------ ||
|| hamiltonian_lhxc_calculate           :   340    21286.93s  65.671%  ------ ||
|| lnv_denskernel_optimise_cg           :    17    26911.01s  83.022%  ------ ||
|| ngwf_cg_optimise                     :     2    31463.30s  97.066%  ------ ||
|| total_time                           :     1    32414.29s 100.000%  ------ ||
================================================================================
Overhead of generating timer report: 
- 0 ms averaging over threads,
- 15 ms ensuring consistency across MPI ranks,
- 0 ms printing in order.

Job completed: 26-05-2020 16:19 (+0100)

Application 40621523 resources: utime ~6737358s, stime ~224625s, Rss ~3590164, inblocks ~339113021, outblocks ~70711900
