 +---------------------------------------------------------------+
 |                                                               |
 |        ####### #     # ####### ####### ####### ######         |
 |        #     # ##    # #          #    #       #     #        |
 |        #     # # #   # #          #    #       #     #        |
 |        #     # #  #  # #####      #    #####   ######         |
 |        #     # #   # # #          #    #       #              |
 |        #     # #    ## #          #    #       #              |
 |        ####### #     # #######    #    ####### #              |
 |                                                               |
 |        Linear-Scaling Ab Initio Total Energy Program          |
 |                                                               |
 |          Release for academic collaborators of ODG            |
 |                                             Version 5.3.2.6.  |
 |                                                               |
 +---------------------------------------------------------------+
 |                                                               |
 |  Authors:                                                     |
 |  Jacek Dziedzic, Peter D. Haynes, Nicholas D. M. Hine,        |
 |  Arash. A. Mostofi, Mike C. Payne and Chris-Kriton Skylaris   |
 |                                                               |
 |  Contributors:                                                |
 |  J. Aarons, L. Andrinopoulos, P. W. Avraam, R. A. Bell,       |
 |  A. Bhandari, G. A. Bramley, R. J. Charlton, S. J. Clark,     |
 |  R. J. Clements, G. C. Constantinescu, F. Corsetti,           |
 |  N. Corsini, O. Dieguez, S. M. M. Dubois, K. K. B. Duff,      |
 |  J. M. Escartin, A. Greco, H. Helal, Q. O. Hill, L. P. Lee,   |
 |  J.-H. Li, E. B. Linscott, G. Moynihan, D. D. O`Regan,        |
 |  O. K. Okan, M. J. S. Phipps, C. J. Pickard,                  |
 |  J. C. A. Prentice, M. I. J. Probert, L. E. Ratcliff,         |
 |  M. Robinson, A. Ruiz Serrano, J. S. Spencer, E. W. Tait,     |
 |  G. Teobaldi, D. Turban, V. Vitale, K. A. Wilkinson,          |
 |  C. Weber, J. C. Womack, N. Yeung and T. J. Zuehlsdorff       |
 |                                                               |
 |                                   Copyright (c) 2004-2019     |
 |                                                               |
 |  Please cite:                                                 |
 |  "Introducing ONETEP: Linear-scaling density functional       |
 |   simulations on parallel computers".                         |
 |   C.-K. Skylaris, P. D. Haynes, A. A. Mostofi, M. C. Payne.   |
 |   J. Chem. Phys. 122 084119 (2005).                           |
 |                                                               |
 |          in all publications arising from your use of ONETEP. |
 |                                                               |
 +---------------------------------------------------------------+
 |                                                               |
 |   ONETEP is based on developments described in the following  |
 |   publications:                                               |
 |                                                               |
 |  "Nonorthogonal generalized Wannier function pseudopotential  |
 |   plane-wave method".                                         |
 |   C.-K. Skylaris, A. A. Mostofi, P. D. Haynes, O. Dieguez,    |
 |   M. C. Payne.                                                |
 |   Phys. Rev. B 66 035119 (2002).                              |
 |                                                               |
 |  "Preconditioned iterative minimization for linear-scaling    |
 |   electronic structure calculations".                         |
 |   A. A. Mostofi, P. D. Haynes, C.-K. Skylaris, M. C. Payne.   |
 |   J. Chem. Phys. 119(17), pp.8842-8848 (2003).                |
 |                                                               |
 |  "Total-energy calculations on a real space grid with         |
 |   localized functions and a plane-wave basis".                |
 |   A. A. Mostofi, C.-K. Skylaris, P. D. Haynes, M. C. Payne.   |
 |   Comput. Phys. Commun. 147, pp.788-802 (2002).               |
 |                                                               |
 |  "Accurate kinetic energy evaluation in electronic structure  |
 |   calculations with localized functions on real space grids"  |
 |   C.-K. Skylaris, A. A. Mostofi, P. D. Haynes, C. J. Pickard, |
 |   M. C. Payne.                                                |
 |   Comput. Phys. Commun. 140, pp.315-322 (2001).               |
 |                                                               |
 |  "Accurate ionic forces and geometry optimization in linear-  |
 |   scaling density-functional theory with local orbitals"      |
 |   N. D. M. Hine, M. Robinson, P. D. Haynes, C.-K. Skylaris,   |
 |   M. C. Payne, and A. A. Mostofi.                             |
 |   Phys. Rev. B 83 195102 (2011).                              |
 |                                                               |
 +---------------------------------------------------------------+

Job started: 26-05-2020 07:19 (+0100)
 
Reading parameters from file "complex_23661.dat" ...... done

If your calculation crashes here, before "Checking processes and threads..."
is displayed, then your stack size is insufficient.
If so, use "ulimit -s unlimited" at runtime.
You can disable this check with "check_stack_size F".

Checking processes and threads...
   Determining the default number of threads...
      No default threads set at compilation time: defaulting to 1.
      OpenMP library call suggests 4 threads.
      Hybrid MPI-OpenMP compilation detected.
      Number of MPI processes > 1.
      OMP_NUM_THREADS environment variable present and
      its value matches the one obtained from the OpenMP library call.
      Using this value as default.
      Default threads: 4
      Default applies to threads_max and threads_num_fftboxes.
      Settings in the input file override this default.
   ... done

   Running with 60 MPI processes.
   There are 6 MPI processes running on the same node as the root process.
   Each MPI process is using: 
               1 threads for simulation cell FFTs.
               1 threads for parallel FFT box operations.
               4 threads for loops over batched FFT box operations.
               4 threads in other parallel regions.
... done

Basic input checks...... done

Reading geometry and species blocks from file "complex_23661.dat" ...
  <species_atomic_set> block not found: NGWF initialisation set to SOLVE
IS: Dielectric excluded regions:
    - NONE.
    
  Number of PPD points along a3 set to 1.  This is 
  the default value, it may have been provided also in the input file.
... done
 Writing xyz coordinates to file "complex_23661.xyz" ... done


--------------------------------------------------------------------------------
---------------------------------- INPUT FILE ----------------------------------
--------------------------------------------------------------------------------

cutoff_energy       : 800 eV                                                    
xc_functional PBE                                                               
task SINGLEPOINT                                                                
write_xyz true                                                                  
output_detail VERBOSE                                                           
ngwf_threshold_orig : 0.000002                                                  
kernel_cutoff       : 1000                                                      
k_zero              : 3.5                                                       
elec_cg_max 0                                                                   
occ_mix 1.0                                                                     
dispersion 1                                                                    
maxit_ngwf_cg 40                                                                
minit_lnv 10                                                                    
maxit_lnv 10                                                                    
write_denskern T                                                                
write_tightbox_ngwfs T                                                          
charge 9                                                                        
is_implicit_solvent T                                                           
is_auto_solvation T                                                             
is_include_apolar T                                                             
is_smeared_ion_rep T                                                            
is_solvent_surf_tension 4.7624E-5 Ha/bohr**2                                    
is_apolar_scaling_factor 0.281075                                               
is_solvation_beta 1.3                                                           
is_density_threshold 0.00035                                                    
is_bulk_permittivity 78.54                                                      
is_dielectric_model fix_initial                                                 
is_smeared_ion_width 0.8                                                        
mg_defco_fd_order 8                                                             
is_bc_coarseness 10                                                             
is_bc_surface_coarseness 1                                                      
fine_grid_scale 2.0                                                             
%block species                                                                  
N   N   7 4 8.0                                                                 
H   H   1 1 8.0                                                                 
C   C   6 4 8.0                                                                 
S   S  16 9 8.0                                                                 
O   O   8 4 8.0                                                                 
%endblock species                                                               
%block species_pot                                                              
N   N_00.recpot                                                                 
H   H_04.recpot                                                                 
C   C_01.recpot                                                                 
S   S_00.recpot                                                                 
O   O_02.recpot                                                                 
%endblock species_pot                                                           
%block lattice_cart                                                             
139.252   0.000   0.000                                                         
0.000 142.425   0.000                                                           
0.000   0.000   162.84                                                          
%endblock lattice_cart                                                          
%block positions_abs                                                            
     Hash =   000000551691619221727515
%endblock positions_abs                                                         

--------------------------------------------------------------------------------
-------------------------------- END INPUT FILE --------------------------------
--------------------------------------------------------------------------------


 
 ESDF WARNING(1): "kernelcutoff" (esdf_physical) has no units. Assume "bohr".
 ESDF WARNING(2): "kzero" (esdf_physical) has no units. Assume "1/bohr".
 ESDF WARNING(3
 ): "issmearedionwidth" (esdf_physical) has no units. Assume "bohr".
<<<<<<<<<<<<<<<<<<<<<<<<<<<<<<<<< Full system >>>>>>>>>>>>>>>>>>>>>>>>>>>>>>>>>>
<<<<<<<<<<<<<<<<<<<<<<<<< Pseudopotential information >>>>>>>>>>>>>>>>>>>>>>>>>>
File: N_00.recpot [ 2001 points up to Gmax=  52.9 (1/bohr)]
  Atomic number:  7;  ionic charge:  5.000000
    Shell 1: l = 0; rc = 1.48 bohr
File: H_04.recpot [ 2001 points up to Gmax=  52.9 (1/bohr)]
  Atomic number:  1;  ionic charge:  1.000000
    Local potential
File: C_01.recpot [ 2001 points up to Gmax=  52.9 (1/bohr)]
  Atomic number:  6;  ionic charge:  4.000000
    Shell 1: l = 0; rc = 1.48 bohr
File: S_00.recpot [ 2001 points up to Gmax=  52.9 (1/bohr)]
  Atomic number: 16;  ionic charge:  6.000000
    Shell 1: l = 0; rc = 1.90 bohr
    Shell 2: l = 2; rc = 1.84 bohr
File: O_02.recpot [ 2001 points up to Gmax=  52.9 (1/bohr)]
  Atomic number:  8;  ionic charge:  6.000000
    Shell 1: l = 0; rc = 1.31 bohr
<<<<<<<<<<<<<<<<<<<<<<<<<<<<<<<<<<<<<<<<>>>>>>>>>>>>>>>>>>>>>>>>>>>>>>>>>>>>>>>>

-------------------------- Atom counting information ---------------------------
Symbol    Natoms    Nngwfs    Nprojs
  N        237       948       237
  H       1318      1318         0
  C        816      3264       816
  S          6        54        36
  O        240       960       240
.......   ......    ......    ......
Totals:   2617      6544      1329
--------------------------------------------------------------------------------

=============================== PSINC grid sizes ===============================
                      Simulation cell:  275 x 280 x 320
                              FFT-box:   99 x  99 x  99
                                  PPD:    5 x   5 x   1
Grid space d1=  0.506370909091a0 (KE cutoff=  29.62556Eh = 806.15239eV)
Grid space d2=  0.508660714286a0 (KE cutoff=  29.35943Eh = 798.91072eV)
Grid space d3=  0.508875000000a0 (KE cutoff=  29.33471Eh = 798.23802eV)
================================================================================

********************* Fourier parallelisation information **********************
       Coarse grid (whole simulation cell) dimensions:    275   280   320
          Real-space ('12') slabs/node (min max mean):      5     6     5
         Recip-space ('23') slabs/node (min max mean):      2     3     2
********************************************************************************

********************* Fourier parallelisation information **********************
       Double grid (whole simulation cell) dimensions:    550   560   640
          Real-space ('12') slabs/node (min max mean):     10    11    10
         Recip-space ('23') slabs/node (min max mean):      4     5     4
********************************************************************************
ONETEP fine grid is 550 x 560 x 640 gridpoints, 139.2520 x 142.4250 x 162.8400 bohr.
FD multigrid is     545 x 553 x 633 gridpoints, 137.9861 x 140.6447 x 161.0589 bohr.


Calculating local pseudopotential in open BC on a radial grid ...
Discrepancy between calculated realspace psloc and -Z/x on [5a0,257.280a0]:
max |rel. diff| # avg |rel. diff| #  avg rel. diff #  f # pseudopotential file
 0.000256370913    0.000003612608   0.000000072509   55  'N_00.recpot'
 0.000395389207    0.000016224277  -0.000000076597   55  'H_04.recpot'
 0.000377360759    0.000017565724   0.000000149252   55  'C_01.recpot'
 0.000469715301    0.000020587835   0.000000455518   55  'S_00.recpot'
 0.000665442002    0.000026079317   0.000000158685   55  'O_02.recpot'
... done

Atom SCF Calculation for N  : Z (AE atom) =   7 : Z (PS atom) =   5
Config String:
Orbitals (num,occ):  2     2.00 3.00
Orbitals   (num,l):  2        0    1
Real-space Grid (nr,dr,rmax): 1203    0.0066555740    8.0000000000
Spherical Bessel Basis (nsws,lmax,cutoff):   47    1  176.3951722778
Confining potential (l,width,scale):  0    3.0000000000  100.0000000000
Confining potential (l,width,scale):  1    3.0000000000  100.0000000000
  1         -4.7312375307   -3.4155304497    7.0523828109   -1.9351020946
  2         -9.7309464766   -2.0532547791    8.2966052865   -2.2494486027
  3         -9.6627394379   -2.1124926340    8.2327997121   -2.2369778124
  4         -9.6814993499   -2.1215521045    8.2229805960   -2.2365178421
  5         -9.6843326483   -2.1250939529    8.2191374534   -2.2362718126
  6         -9.6859628709   -2.1267894855    8.2172963573   -2.2362066344
  7         -9.6867347035   -2.1276425665    8.2163697352   -2.2361903369
  8         -9.6870802100   -2.1280764625    8.2158983890   -2.2361891460
  9         -9.6872290423   -2.1282977424    8.2156580222   -2.2361920435
 10         -9.6872901988   -2.1284107021    8.2155353368   -2.2361953393
 11         -9.6873135296   -2.1284684031    8.2154726809   -2.2361979819
 12         -9.6873212476   -2.1284978948    8.2154406648   -2.2361998431
 13         -9.6873229586   -2.1285129774    8.2154242957   -2.2362010676
 14         -9.6873226456   -2.1285206957    8.2154159216   -2.2362018403
 15         -9.6873218534   -2.1285246479    8.2154116349   -2.2362023142
 16         -9.6873212599   -2.1285262679    8.2154098784   -2.2362025420
 17         -9.6873207834   -2.1285272564    8.2154088068   -2.2362026955
 18         -9.6873204210   -2.1285278596    8.2154081529   -2.2362027982
 19         -9.6873201550   -2.1285282280    8.2154077538   -2.2362028667
 20         -9.6873199645   -2.1285284529    8.2154075102   -2.2362029121
 21         -9.6873198305   -2.1285285903    8.2154073614   -2.2362029421
 22         -9.6873197377   -2.1285286742    8.2154072705   -2.2362029618
Atom SCF converged after  22 iterations to a total energy of     -9.68731974

Atom SCF Calculation for H  : Z (AE atom) =   1 : Z (PS atom) =   1
Config String:
Orbitals (num,occ):  1     1.00
Orbitals   (num,l):  1        0
Real-space Grid (nr,dr,rmax): 1203    0.0066555740    8.0000000000
Spherical Bessel Basis (nsws,lmax,cutoff):   47    0  176.3951722778
Confining potential (l,width,scale):  0    3.0000000000  100.0000000000
  1         -0.3194257691   -0.2393854593    0.2820953124   -0.2424203209
  2         -0.3951823392   -0.2377116493    0.2886404059   -0.2475147891
  3         -0.4317044583   -0.2352244387    0.2921333887   -0.2514046172
  4         -0.4470703708   -0.2341892222    0.2934391879   -0.2531009782
  5         -0.4532132900   -0.2338556667    0.2938388426   -0.2537313520
  6         -0.4556579251   -0.2337612552    0.2939448584   -0.2539550462
  7         -0.4566418315   -0.2337377355    0.2939680120   -0.2540342273
  8         -0.4570437922   -0.2337331116    0.2939708287   -0.2540627372
  9         -0.4572102946   -0.2337328328    0.2939698291   -0.2540732650
 10         -0.4572800424   -0.2337332404    0.2939687193   -0.2540772588
 11         -0.4573095100   -0.2337335791    0.2939680317   -0.2540788122
 12         -0.4573220379   -0.2337337762    0.2939676699   -0.2540794294
 13         -0.4573273880   -0.2337338775    0.2939674931   -0.2540796787
 14         -0.4573296803   -0.2337339266    0.2939674099   -0.2540797808
 15         -0.4573306647   -0.2337339495    0.2939673718   -0.2540798230
 16         -0.4573310882   -0.2337339601    0.2939673545   -0.2540798406
 17         -0.4573312706   -0.2337339649    0.2939673467   -0.2540798479
 18         -0.4573313493   -0.2337339670    0.2939673433   -0.2540798510
Atom SCF converged after  18 iterations to a total energy of     -0.45733135

Atom SCF Calculation for C  : Z (AE atom) =   6 : Z (PS atom) =   4
Config String:
Orbitals (num,occ):  2     2.00 2.00
Orbitals   (num,l):  2        0    1
Real-space Grid (nr,dr,rmax): 1203    0.0066555740    8.0000000000
Spherical Bessel Basis (nsws,lmax,cutoff):   47    1  176.3951722778
Confining potential (l,width,scale):  0    3.0000000000  100.0000000000
Confining potential (l,width,scale):  1    3.0000000000  100.0000000000
  1         -5.2976922011   -1.3069684169    4.5135249990   -1.4493313817
  2         -5.3721716256   -1.3429755895    4.4750154450   -1.4361613026
  3         -5.3809959565   -1.3617365618    4.4541655428   -1.4305930207
  4         -5.3918938866   -1.3667928461    4.4484735100   -1.4294652294
  5         -5.3956096428   -1.3688539142    4.4461376126   -1.4290734646
  6         -5.3968271862   -1.3696852393    4.4451910874   -1.4289366866
  7         -5.3972028401   -1.3700178062    4.4448112275   -1.4288900460
  8         -5.3973067903   -1.3701500158    4.4446598370   -1.4288749220
  9         -5.3973286940   -1.3702023868    4.4445997329   -1.4288704293
 10         -5.3973289850   -1.3702230869    4.4445759233   -1.4288693188
 11         -5.3973254264   -1.3702312560    4.4445665049   -1.4288691775
 12         -5.3973224003   -1.3702344755    4.4445627836   -1.4288692549
 13         -5.3973208708   -1.3702354890    4.4445616088   -1.4288693270
 14         -5.3973198783   -1.3702360102    4.4445610034   -1.4288693814
 15         -5.3973192535   -1.3702362780    4.4445606917   -1.4288694190
 16         -5.3973188684   -1.3702364155    4.4445605313   -1.4288694437
 17         -5.3973186349   -1.3702364860    4.4445604489   -1.4288694595
 18         -5.3973184951   -1.3702365221    4.4445604065   -1.4288694693
 19         -5.3973184122   -1.3702365405    4.4445603848   -1.4288694753
Atom SCF converged after  19 iterations to a total energy of     -5.39731841

Atom SCF Calculation for S  : Z (AE atom) =  16 : Z (PS atom) =   6
Config String:
Orbitals (num,occ):  3     2.00 4.00 0.00
Orbitals   (num,l):  3        0    1    2
Real-space Grid (nr,dr,rmax): 1203    0.0066555740    8.0000000000
Spherical Bessel Basis (nsws,lmax,cutoff):   47    2  176.3951722778
Confining potential (l,width,scale):  0    3.0000000000  100.0000000000
Confining potential (l,width,scale):  1    3.0000000000  100.0000000000
Confining potential (l,width,scale):  2    3.0000000000  100.0000000000
  1        -12.4735062396   -1.0328741412   10.1554312477   -2.4512393157
  2         -9.9458301913   -2.4607392455    8.3041325857   -2.0306994528
  3        -10.1450417646   -2.2931184565    8.4831893826   -2.0812538287
  4        -10.1528335592   -2.2733105793    8.5050388867   -2.0896035179
  5        -10.1571940363   -2.2633716629    8.5160794258   -2.0939370707
  6        -10.1594380571   -2.2584938667    8.5215163935   -2.0961289008
  7        -10.1605856507   -2.2561081821    8.5241804044   -2.0972291378
  8        -10.1611799191   -2.2549395235    8.5254868240   -2.0977806248
  9        -10.1614918752   -2.2543658586    8.5261285885   -2.0980571586
 10        -10.1616572884   -2.2540839121    8.5264441898   -2.0981959233
 11        -10.1617455602   -2.2539453058    8.5265994231   -2.0982656006
 12        -10.1617928447   -2.2538772062    8.5266757320   -2.0983006047
 13        -10.1618182292   -2.2538437891    8.5267131983   -2.0983181961
 14        -10.1618318741   -2.2538274201    8.5267315620   -2.0983270391
 15        -10.1618392144   -2.2538194197    8.5267405433   -2.0983314852
 16        -10.1618431651   -2.2538155200    8.5267449245   -2.0983337210
 17        -10.1618452923   -2.2538136252    8.5267470551   -2.0983348455
 18        -10.1618464380   -2.2538127080    8.5267480875   -2.0983354110
 19        -10.1618470552   -2.2538122659    8.5267485856   -2.0983356955
 20        -10.1618473878   -2.2538120540    8.5267488248   -2.0983358386
 21        -10.1618475670   -2.2538119530    8.5267489389   -2.0983359106
 22        -10.1618476637   -2.2538119053    8.5267489929   -2.0983359468
Atom SCF converged after  22 iterations to a total energy of    -10.16184766

Atom SCF Calculation for O  : Z (AE atom) =   8 : Z (PS atom) =   6
Config String:
Orbitals (num,occ):  2     2.00 4.00
Orbitals   (num,l):  2        0    1
Real-space Grid (nr,dr,rmax): 1203    0.0066555740    8.0000000000
Spherical Bessel Basis (nsws,lmax,cutoff):   47    1  176.3951722778
Confining potential (l,width,scale):  0    3.0000000000  100.0000000000
Confining potential (l,width,scale):  1    3.0000000000  100.0000000000
  1         -1.8735052164   -7.5539365035   10.1554312477   -2.4512393157
  2        -16.0318313751   -3.1285771268   13.6395848164   -3.2358799643
  3        -15.9524020423   -3.0762819706   13.6967272503   -3.2536856837
  4        -15.8521515939   -3.0781493909   13.6951909330   -3.2561700440
  5        -15.8357139793   -3.0748501933   13.6988803334   -3.2580493133
  6        -15.8246052853   -3.0740779781   13.6997881576   -3.2588327446
  7        -15.8189019501   -3.0737449687   13.7001869911   -3.2592378801
  8        -15.8159785510   -3.0736026016   13.7003615168   -3.2594475790
  9        -15.8144776168   -3.0735437994   13.7004360379   -3.2595560735
 10        -15.8137058024   -3.0735207882   13.7004667348   -3.2596122456
 11        -15.8133083127   -3.0735125946   13.7004786868   -3.2596413656
 12        -15.8131032938   -3.0735102195   13.7004828997   -3.2596564858
 13        -15.8129973902   -3.0735099286   13.7004840891   -3.2596643505
 14        -15.8129426040   -3.0735102506   13.7004842061   -3.2596684489
 15        -15.8129142203   -3.0735106556   13.7004840157   -3.2596705887
 16        -15.8128994940   -3.0735109855   13.7004837906   -3.2596717080
 17        -15.8128918425   -3.0735112169   13.7004836103   -3.2596722946
 18        -15.8128878614   -3.0735113674   13.7004834848   -3.2596726026
 19        -15.8128857871   -3.0735114608   13.7004834035   -3.2596727646
 20        -15.8128847048   -3.0735115170   13.7004833533   -3.2596728500
 21        -15.8128841394   -3.0735115501   13.7004833231   -3.2596728951
 22        -15.8128838436   -3.0735115693   13.7004833054   -3.2596729190
 23        -15.8128836887   -3.0735115802   13.7004832951   -3.2596729316
 24        -15.8128836074   -3.0735115864   13.7004832893   -3.2596729383
Atom SCF converged after  24 iterations to a total energy of    -15.81288361

========================== Calculation in vacuum ==============================
= Adjusting the following parameters: 
= is_implicit_solvent: F
= is_include_apolar: F
= write_denskern: T
= write_tightbox_ngwfs: T
= restart read filename prefix: ""
= restart write filename prefix: "vacuum_"
===============================================================================

Determining parallel strategy ...
... using space-filling curve
... NGWF load balancing: max    110;  min    109;  average    109
... Projector load balancing: max     26;  min     21;  average     22
... done
Calculating direct Ion-Ion energy ...
Ion-Ion Energy        :    839771.30397489538882
======================= Empirical dispersion information =======================
Model : Elstner
Dispersion Correction Energy: -0.33929991E+01 Hartree
================================================================================
Basis initialisation ...... NGWF spheres initialised
... Projector spheres initialised
... NGWF tight boxes initialised
... Tight-boxes gathered
... NGWF basis size (local,global):    1386371  83215376
... Nonlocal pseudopotential projector initialisation
... done

========================== Sparse matrix information ===========================
                        Overlap matrix filling:   6.90%
                        Density kernel filling: 100.00%
              NGWF-Proj overlap matrix filling:   1.81%
                    Hamiltonian matrix filling:   7.84%
                  NGWF diagonal matrix filling:   0.05%
                             KS matrix filling: 100.00% 
                           KSKS matrix filling: 100.00% 
================================================================================

Sparse matrix initialisation ... done

Generating smeared ion density ... done
Smeared ion self correction:     -14538.952731
Smeared ion non-self correction: -839723.063134
NGWF initialisation ...... done
============ Calculation of NGWF S^-1 using Hotelling algorithm ================ 
         Iteration  |  Frobenius norm and Maximum abs value    (of I-S*S_n^-1)   
               1       0.78709752E+02     0.98254938E+00
               2       0.76850240E+02     0.96553580E+00
               3       0.73841524E+02     0.93274900E+00
               4       0.69567681E+02     0.87176727E+00
               5       0.64244578E+02     0.76768607E+00
               6       0.58261198E+02     0.70576739E+00
               7       0.52244517E+02     0.67371924E+00
               8       0.46682321E+02     0.64646150E+00
               9       0.40602322E+02     0.60648972E+00
              10       0.32325900E+02     0.53748922E+00
              11       0.21747241E+02     0.42629000E+00
              12       0.11137276E+02     0.28872834E+00
              13       0.36890724E+01     0.14347450E+00
              14       0.59079561E+00     0.39653899E-01
              15       0.29646257E-01     0.37484148E-02
              16       0.21608904E-03     0.45089936E-04
              17       0.30622668E-07     0.77319381E-08
              18       0.96471601E-13     0.48849813E-14
================================================================================
Calculating local pseudopotential in open BC on the fine real space grid ...
... done

MG BCs: +ve charge blocks (gridpoints):     19609 (   15348693).
MG BCs: -ve charge blocks (gridpoints):      8023 (    1062067).
MG BCs:     Elided blocks (gridpoints):    177511 (  174365945).
MG BCs: Computational effort saved:  99.9855%.
MG BCs: Charge after coarse-graining:           -9.0002165.
MG DL_MG: Calling solver with defect correction order = 8
MG DL_MG: Solver finished
MG Hartree energy from (\int phi*rho dr):              1471.468350
MG Hartree energy from (\int eps (grad phi)^2 dr):     1470.844576
MG Discrepancy due to finite box and discretization:     -0.623775 (  -0.04239%)
MG Correction to account for finite box:                  0.463287
MG Remaining discrepancy, due to discretization:         -0.160488 (  -0.01091%)
Up spin density kernel initialisation ... 
======= Optimisation of K by Palser-Manolopoulos canonical purification ======== 
         Iteration  |  Band structure energy |    c_n   
               1       -2598.32238701158576    0.5269974
               2       -2775.21918396930505    0.5171321
               3       -2956.53126416336954    0.5154104
               4       -3107.93857461658672    0.5288003
               5       -3201.08804863396836    0.5643363
               6       -3240.15371456729918    0.6098113
               7       -3253.42998170161900    0.6240713
               8       -3259.13224559876880    0.6249527
               9       -3261.89868547889773    0.6394987
              10       -3263.07368854642755    0.6606333
              11       -3263.55243986430696    0.6688579
              12       -3263.77250310228828    0.6591259
              13       -3263.88566454729698    0.6163164
              14       -3263.95012930631492    0.5164169
              15       -3263.98795762658528    0.3562470
              16       -3263.99223309177160    0.2785448
              17       -3263.99292528387696    0.2424250
              18       -3263.99311202643139    0.2475941
              19       -3263.99322865979775    0.2641805
              20       -3263.99335027130519    0.2859132
              21       -3263.99347740264739    0.3142894
              22       -3263.99360787751993    0.3509590
              23       -3263.99373685290266    0.3962253
              24       -3263.99385570701452    0.4452748
              25       -3263.99395337653914    0.4837139
              26       -3263.99402284728194    0.4985228
              27       -3263.99406216503121    0.4999879
              28       -3263.99407328044981    0.5000000
              29       -3263.99407396274728    0.5000007
              30       -3263.99407396508423    0.5000007
Termination criterion satisfied: band energy change below threshold.
Final occupancy bounds: [    0.00000000000000:    1.00000000000000]
Closest occupancy to 0.5:     1.00000000000000
================================================================================
... done

Writing density kernel to file "complex_23661.vacuum_dkn" ... done

>>> Optimising kernel for current NGWFs:
   Initial electron number for spin 1:    7234.00000000
     Final electron number for spin 1:    7234.00000000

=================== Penalty functional idempotency correction ==================
 RMS occupancy error at iteration   1:  0.000000 (step -0.5000 Ne1=   7234.0000)
            Final RMS occupancy error   :  0.000000 (Ne1=   7234.0000)
               Final occupancy bounds   : [ -0.0000,  1.0000]
================================================================================

................................................................................
<<<<<<<<<<<<<< LNV (Original version) density kernel optimisation >>>>>>>>>>>>>>
~~~~~~~~~~~~~~~~~~~~~~~~~~~~~~~~~~~~~~~~~~~~~~~~~~~~~~~~~~~~~~~~~~~~~~~~~~~~~~~~
   iter  |      energy (Eh)       | rms gradient |  commutator  |   dE (Eh)
MG BCs: +ve charge blocks (gridpoints):     30454 (   16601795).
MG BCs: -ve charge blocks (gridpoints):      8316 (    1094477).
MG BCs:     Elided blocks (gridpoints):    166647 (  173080433).
MG BCs: Computational effort saved:  99.9797%.
MG BCs: Charge after coarse-graining:           -9.0009438.
MG DL_MG: Calling solver with defect correction order = 8
MG DL_MG: Solver finished
MG Hartree energy from (\int phi*rho dr):              1425.981218
MG Hartree energy from (\int eps (grad phi)^2 dr):     1425.299553
MG Discrepancy due to finite box and discretization:     -0.681665 (  -0.04780%)
MG Correction to account for finite box:                  0.476283
MG Remaining discrepancy, due to discretization:         -0.205382 (  -0.01440%)
      ideal mu1:      -0.703615561378
             Q0:  -11569.750623328262
             G0:    -143.810359738607
   RMS gradient:       0.001832532964
MG BCs: +ve charge blocks (gridpoints):     30438 (   16683465).
MG BCs: -ve charge blocks (gridpoints):      8236 (    1074106).
MG BCs:     Elided blocks (gridpoints):    166661 (  173019134).
MG BCs: Computational effort saved:  99.9797%.
MG BCs: Charge after coarse-graining:           -9.0009653.
MG DL_MG: Calling solver with defect correction order = 8
MG DL_MG: Solver finished
MG Hartree energy from (\int phi*rho dr):              1452.138852
MG Hartree energy from (\int eps (grad phi)^2 dr):     1451.474922
MG Discrepancy due to finite box and discretization:     -0.663931 (  -0.04572%)
MG Correction to account for finite box:                  0.475065
MG Remaining discrepancy, due to discretization:         -0.188865 (  -0.01301%)
     Trial step:       0.500000000000
             Q1:  -11581.083521646913
 Quadratic coef:      60.572281550652
 Linear coef   :     -71.905179869303
           Qmin:  -11591.090230982438
Quadratic minimum step length (  0.296774275413) accepted
    Initial Ne1:    7234.00000000
      Final Ne1:    7234.00000000

=================== Penalty functional idempotency correction ==================
 RMS occupancy error at iteration   1:  0.003337 (step -0.4887 Ne1=   7234.0000)
 RMS occupancy error at iteration   2:  0.000026 (step -0.5001 Ne1=   7234.0000)
            Final RMS occupancy error   :  0.000000 (Ne1=   7234.0000)
               Final occupancy bounds   : [  0.0000,  1.0000]
================================================================================

    1        -1.156975062333E+04     1.8325E-03     1.6577E-03
MG BCs: +ve charge blocks (gridpoints):     30456 (   16651508).
MG BCs: -ve charge blocks (gridpoints):      8269 (    1082686).
MG BCs:     Elided blocks (gridpoints):    166642 (  173042511).
MG BCs: Computational effort saved:  99.9797%.
MG BCs: Charge after coarse-graining:           -9.0009569.
MG DL_MG: Calling solver with defect correction order = 8
MG DL_MG: Solver finished
MG Hartree energy from (\int phi*rho dr):              1433.605340
MG Hartree energy from (\int eps (grad phi)^2 dr):     1432.935226
MG Discrepancy due to finite box and discretization:     -0.670113 (  -0.04674%)
MG Correction to account for finite box:                  0.475417
MG Remaining discrepancy, due to discretization:         -0.194697 (  -0.01358%)
      ideal mu1:      -0.748382675312
             Q0:  -11591.473766824114
             G0:     -11.866843067714
   RMS gradient:       0.000522983225
MG BCs: +ve charge blocks (gridpoints):     30446 (   16668533).
MG BCs: -ve charge blocks (gridpoints):      8256 (    1077378).
MG BCs:     Elided blocks (gridpoints):    166652 (  173030794).
MG BCs: Computational effort saved:  99.9797%.
MG BCs: Charge after coarse-graining:           -9.0009606.
MG DL_MG: Calling solver with defect correction order = 8
MG DL_MG: Solver finished
MG Hartree energy from (\int phi*rho dr):              1438.906491
MG Hartree energy from (\int eps (grad phi)^2 dr):     1438.240661
MG Discrepancy due to finite box and discretization:     -0.665830 (  -0.04627%)
MG Correction to account for finite box:                  0.474430
MG Remaining discrepancy, due to discretization:         -0.191400 (  -0.01330%)
     Trial step:       0.385210510898
             Q1:  -11594.248685346334
 Quadratic coef:       1.796314158646
 Linear coef   :      -4.571232680866
           Qmin:  -11594.381967502994
Quadratic minimum step length (  0.490138895793) accepted
    Initial Ne1:    7233.99989650
      Final Ne1:    7234.00000000

=================== Penalty functional idempotency correction ==================
 RMS occupancy error at iteration   1:  0.001743 (step -0.4933 Ne1=   7234.0000)
 RMS occupancy error at iteration   2:  0.000011 (step -0.5001 Ne1=   7234.0000)
            Final RMS occupancy error   :  0.000000 (Ne1=   7234.0000)
               Final occupancy bounds   : [  0.0000,  1.0000]
================================================================================

    2        -1.159147376682E+04     5.2298E-04     4.7310E-04    -2.1723E+01
MG BCs: +ve charge blocks (gridpoints):     30451 (   16672817).
MG BCs: -ve charge blocks (gridpoints):      8253 (    1076075).
MG BCs:     Elided blocks (gridpoints):    166647 (  173027813).
MG BCs: Computational effort saved:  99.9797%.
MG BCs: Charge after coarse-graining:           -9.0009618.
MG DL_MG: Calling solver with defect correction order = 8
MG DL_MG: Solver finished
MG Hartree energy from (\int phi*rho dr):              1440.397719
MG Hartree energy from (\int eps (grad phi)^2 dr):     1439.732964
MG Discrepancy due to finite box and discretization:     -0.664755 (  -0.04615%)
MG Correction to account for finite box:                  0.474176
MG Remaining discrepancy, due to discretization:         -0.190579 (  -0.01323%)
      ideal mu1:      -0.772667295204
             Q0:  -11594.416861505597
             G0:      -1.915215981770
   RMS gradient:       0.000210167709
MG BCs: +ve charge blocks (gridpoints):     30453 (   16672811).
MG BCs: -ve charge blocks (gridpoints):      8260 (    1077012).
MG BCs:     Elided blocks (gridpoints):    166645 (  173026882).
MG BCs: Computational effort saved:  99.9797%.
MG BCs: Charge after coarse-graining:           -9.0009612.
MG DL_MG: Calling solver with defect correction order = 8
MG DL_MG: Solver finished
MG Hartree energy from (\int phi*rho dr):              1438.141135
MG Hartree energy from (\int eps (grad phi)^2 dr):     1437.476997
MG Discrepancy due to finite box and discretization:     -0.664139 (  -0.04618%)
MG Correction to account for finite box:                  0.473798
MG Remaining discrepancy, due to discretization:         -0.190341 (  -0.01324%)
     Trial step:       0.434518876989
             Q1:  -11594.909403563594
 Quadratic coef:       0.339655439593
 Linear coef   :      -0.832197497590
           Qmin:  -11594.926607997382
Quadratic minimum step length (  0.532312278759) accepted
    Initial Ne1:    7233.99993820
      Final Ne1:    7234.00000000

=================== Penalty functional idempotency correction ==================
 RMS occupancy error at iteration   1:  0.000643 (step -0.4966 Ne1=   7234.0000)
 RMS occupancy error at iteration   2:  0.000004 (step -0.5000 Ne1=   7234.0000)
            Final RMS occupancy error   :  0.000000 (Ne1=   7234.0000)
               Final occupancy bounds   : [  0.0000,  1.0000]
================================================================================

    3        -1.159441686151E+04     2.1017E-04     1.9012E-04    -2.9431E+00
MG BCs: +ve charge blocks (gridpoints):     30454 (   16672792).
MG BCs: -ve charge blocks (gridpoints):      8265 (    1077169).
MG BCs:     Elided blocks (gridpoints):    166644 (  173026744).
MG BCs: Computational effort saved:  99.9797%.
MG BCs: Charge after coarse-graining:           -9.0009611.
MG DL_MG: Calling solver with defect correction order = 8
MG DL_MG: Solver finished
MG Hartree energy from (\int phi*rho dr):              1437.642893
MG Hartree energy from (\int eps (grad phi)^2 dr):     1436.978882
MG Discrepancy due to finite box and discretization:     -0.664012 (  -0.04619%)
MG Correction to account for finite box:                  0.473714
MG Remaining discrepancy, due to discretization:         -0.190298 (  -0.01324%)
      ideal mu1:      -0.773693246806
             Q0:  -11594.931285150349
             G0:      -0.506341596133
   RMS gradient:       0.000108195072
MG BCs: +ve charge blocks (gridpoints):     30447 (   16673638).
MG BCs: -ve charge blocks (gridpoints):      8261 (    1076920).
MG BCs:     Elided blocks (gridpoints):    166651 (  173026147).
MG BCs: Computational effort saved:  99.9797%.
MG BCs: Charge after coarse-graining:           -9.0009613.
MG DL_MG: Calling solver with defect correction order = 8
MG DL_MG: Solver finished
MG Hartree energy from (\int phi*rho dr):              1438.954901
MG Hartree energy from (\int eps (grad phi)^2 dr):     1438.290969
MG Discrepancy due to finite box and discretization:     -0.663932 (  -0.04614%)
MG Correction to account for finite box:                  0.473526
MG Remaining discrepancy, due to discretization:         -0.190406 (  -0.01323%)
     Trial step:       0.480936309270
             Q1:  -11595.060888939304
 Quadratic coef:       0.113914269519
 Linear coef   :      -0.243518058474
           Qmin:  -11595.061429172369
Quadratic minimum step length (  0.514056214279) accepted
    Initial Ne1:    7233.99998443
      Final Ne1:    7234.00000000

=================== Penalty functional idempotency correction ==================
 RMS occupancy error at iteration   1:  0.000319 (step -0.4931 Ne1=   7234.0000)
 RMS occupancy error at iteration   2:  0.000005 (step -0.5000 Ne1=   7234.0000)
            Final RMS occupancy error   :  0.000000 (Ne1=   7234.0000)
               Final occupancy bounds   : [  0.0000,  1.0000]
================================================================================

    4        -1.159493128515E+04     1.0820E-04     9.7875E-05    -5.1442E-01
MG BCs: +ve charge blocks (gridpoints):     30447 (   16673709).
MG BCs: -ve charge blocks (gridpoints):      8261 (    1076899).
MG BCs:     Elided blocks (gridpoints):    166651 (  173026097).
MG BCs: Computational effort saved:  99.9797%.
MG BCs: Charge after coarse-graining:           -9.0009613.
MG DL_MG: Calling solver with defect correction order = 8
MG DL_MG: Solver finished
MG Hartree energy from (\int phi*rho dr):              1439.046019
MG Hartree energy from (\int eps (grad phi)^2 dr):     1438.382092
MG Discrepancy due to finite box and discretization:     -0.663927 (  -0.04614%)
MG Correction to account for finite box:                  0.473513
MG Remaining discrepancy, due to discretization:         -0.190414 (  -0.01323%)
      ideal mu1:      -0.773973032634
             Q0:  -11595.062032735907
             G0:      -0.207625914777
   RMS gradient:       0.000069478068
MG BCs: +ve charge blocks (gridpoints):     30448 (   16673775).
MG BCs: -ve charge blocks (gridpoints):      8256 (    1076713).
MG BCs:     Elided blocks (gridpoints):    166650 (  173026217).
MG BCs: Computational effort saved:  99.9797%.
MG BCs: Charge after coarse-graining:           -9.0009613.
MG DL_MG: Calling solver with defect correction order = 8
MG DL_MG: Solver finished
MG Hartree energy from (\int phi*rho dr):              1439.419332
MG Hartree energy from (\int eps (grad phi)^2 dr):     1438.755316
MG Discrepancy due to finite box and discretization:     -0.664016 (  -0.04613%)
MG Correction to account for finite box:                  0.473452
MG Remaining discrepancy, due to discretization:         -0.190564 (  -0.01324%)
     Trial step:       0.497220573240
             Q1:  -11595.130897712195
 Quadratic coef:       0.034370900075
 Linear coef   :      -0.103235876365
           Qmin:  -11595.139552135643
Quadratic minimum step length (  0.746721812820) accepted
    Initial Ne1:    7233.99999010
      Final Ne1:    7234.00000000

=================== Penalty functional idempotency correction ==================
 RMS occupancy error at iteration   1:  0.000678 (step -0.4594 Ne1=   7234.0000)
 RMS occupancy error at iteration   2:  0.000021 (step -0.4999 Ne1=   7234.0000)
            Final RMS occupancy error   :  0.000000 (Ne1=   7234.0000)
               Final occupancy bounds   : [ -0.0000,  1.0000]
================================================================================

    5        -1.159506203274E+04     6.9478E-05     6.2851E-05    -1.3075E-01
MG BCs: +ve charge blocks (gridpoints):     30450 (   16673821).
MG BCs: -ve charge blocks (gridpoints):      8255 (    1076611).
MG BCs:     Elided blocks (gridpoints):    166648 (  173026273).
MG BCs: Computational effort saved:  99.9797%.
MG BCs: Charge after coarse-graining:           -9.0009613.
MG DL_MG: Calling solver with defect correction order = 8
MG DL_MG: Solver finished
MG Hartree energy from (\int phi*rho dr):              1439.605667
MG Hartree energy from (\int eps (grad phi)^2 dr):     1438.941599
MG Discrepancy due to finite box and discretization:     -0.664068 (  -0.04613%)
MG Correction to account for finite box:                  0.473421
MG Remaining discrepancy, due to discretization:         -0.190647 (  -0.01324%)
      ideal mu1:      -0.774098556105
             Q0:  -11595.138228161726
             G0:      -0.214802556388
   RMS gradient:       0.000071563382
MG BCs: +ve charge blocks (gridpoints):     30448 (   16673123).
MG BCs: -ve charge blocks (gridpoints):      8259 (    1077030).
MG BCs:     Elided blocks (gridpoints):    166650 (  173026552).
MG BCs: Computational effort saved:  99.9797%.
MG BCs: Charge after coarse-graining:           -9.0009611.
MG DL_MG: Calling solver with defect correction order = 8
MG DL_MG: Solver finished
MG Hartree energy from (\int phi*rho dr):              1438.148664
MG Hartree energy from (\int eps (grad phi)^2 dr):     1437.484703
MG Discrepancy due to finite box and discretization:     -0.663961 (  -0.04617%)
MG Correction to account for finite box:                  0.473341
MG Remaining discrepancy, due to discretization:         -0.190621 (  -0.01325%)
     Trial step:       0.609331968488
             Q1:  -11595.229509117315
 Quadratic coef:       0.039605108932
 Linear coef   :      -0.130886064520
           Qmin:  -11595.246365485089
Quadratic minimum step length (  1.006853225408) accepted
    Initial Ne1:    7234.00005069
      Final Ne1:    7234.00000000

=================== Penalty functional idempotency correction ==================
 RMS occupancy error at iteration   1:  0.004131 (step -0.3166 Ne1=   7234.0000)
 RMS occupancy error at iteration   2:  0.000347 (step -0.4841 Ne1=   7234.0000)
 RMS occupancy error at iteration   3:  0.000008 (step -0.5003 Ne1=   7234.0000)
            Final RMS occupancy error   :  0.000000 (Ne1=   7234.0000)
               Final occupancy bounds   : [  0.0000,  1.0000]
================================================================================

    6        -1.159513822816E+04     7.1563E-05     6.4737E-05    -7.6195E-02
MG BCs: +ve charge blocks (gridpoints):     30449 (   16672518).
MG BCs: -ve charge blocks (gridpoints):      8261 (    1077458).
MG BCs:     Elided blocks (gridpoints):    166649 (  173026729).
MG BCs: Computational effort saved:  99.9797%.
MG BCs: Charge after coarse-graining:           -9.0009609.
MG DL_MG: Calling solver with defect correction order = 8
MG DL_MG: Solver finished
MG Hartree energy from (\int phi*rho dr):              1437.220185
MG Hartree energy from (\int eps (grad phi)^2 dr):     1436.556270
MG Discrepancy due to finite box and discretization:     -0.663915 (  -0.04619%)
MG Correction to account for finite box:                  0.473308
MG Remaining discrepancy, due to discretization:         -0.190607 (  -0.01326%)
      ideal mu1:      -0.774097706608
             Q0:  -11595.235765418154
             G0:      -0.307428153694
   RMS gradient:       0.000084728307
MG BCs: +ve charge blocks (gridpoints):     30446 (   16674446).
MG BCs: -ve charge blocks (gridpoints):      8258 (    1076499).
MG BCs:     Elided blocks (gridpoints):    166652 (  173025760).
MG BCs: Computational effort saved:  99.9797%.
MG BCs: Charge after coarse-graining:           -9.0009616.
MG DL_MG: Calling solver with defect correction order = 8
MG DL_MG: Solver finished
MG Hartree energy from (\int phi*rho dr):              1439.699116
MG Hartree energy from (\int eps (grad phi)^2 dr):     1439.035472
MG Discrepancy due to finite box and discretization:     -0.663644 (  -0.04610%)
MG Correction to account for finite box:                  0.473241
MG Remaining discrepancy, due to discretization:         -0.190403 (  -0.01323%)
     Trial step:       0.783267424202
             Q1:  -11595.334065587493
 Quadratic coef:       0.142498288733
 Linear coef   :      -0.240798458071
           Qmin:  -11595.337492775592
Quadratic minimum step length (  0.661795975525) accepted
    Initial Ne1:    7233.99994173
      Final Ne1:    7234.00000000

=================== Penalty functional idempotency correction ==================
 RMS occupancy error at iteration   1:  0.000191 (step -0.4884 Ne1=   7234.0000)
 RMS occupancy error at iteration   2:  0.000001 (step -0.5000 Ne1=   7234.0000)
            Final RMS occupancy error   :  0.000000 (Ne1=   7234.0000)
               Final occupancy bounds   : [  0.0000,  1.0000]
================================================================================

    7        -1.159523576542E+04     8.4728E-05     7.6647E-05    -9.7537E-02
MG BCs: +ve charge blocks (gridpoints):     30446 (   16674132).
MG BCs: -ve charge blocks (gridpoints):      8258 (    1076656).
MG BCs:     Elided blocks (gridpoints):    166652 (  173025917).
MG BCs: Computational effort saved:  99.9797%.
MG BCs: Charge after coarse-graining:           -9.0009615.
MG DL_MG: Calling solver with defect correction order = 8
MG DL_MG: Solver finished
MG Hartree energy from (\int phi*rho dr):              1439.313481
MG Hartree energy from (\int eps (grad phi)^2 dr):     1438.649808
MG Discrepancy due to finite box and discretization:     -0.663674 (  -0.04611%)
MG Correction to account for finite box:                  0.473251
MG Remaining discrepancy, due to discretization:         -0.190423 (  -0.01323%)
      ideal mu1:      -0.775105691205
             Q0:  -11595.337606945308
             G0:      -0.229917490302
   RMS gradient:       0.000073246131
MG BCs: +ve charge blocks (gridpoints):     30449 (   16674087).
MG BCs: -ve charge blocks (gridpoints):      8258 (    1076579).
MG BCs:     Elided blocks (gridpoints):    166649 (  173026039).
MG BCs: Computational effort saved:  99.9797%.
MG BCs: Charge after coarse-graining:           -9.0009615.
MG DL_MG: Calling solver with defect correction order = 8
MG DL_MG: Solver finished
MG Hartree energy from (\int phi*rho dr):              1439.104108
MG Hartree energy from (\int eps (grad phi)^2 dr):     1438.440473
MG Discrepancy due to finite box and discretization:     -0.663634 (  -0.04611%)
MG Correction to account for finite box:                  0.473348
MG Remaining discrepancy, due to discretization:         -0.190286 (  -0.01322%)
     Trial step:       0.719974464198
             Q1:  -11595.427493861993
 Quadratic coef:       0.075647805204
 Linear coef   :      -0.165534721890
           Qmin:  -11595.428163915458
Quadratic minimum step length (  0.787734504503) accepted
    Initial Ne1:    7233.99994795
      Final Ne1:    7234.00000000

=================== Penalty functional idempotency correction ==================
 RMS occupancy error at iteration   1:  0.001152 (step -0.4382 Ne1=   7234.0000)
 RMS occupancy error at iteration   2:  0.000027 (step -0.4996 Ne1=   7234.0000)
            Final RMS occupancy error   :  0.000000 (Ne1=   7234.0000)
               Final occupancy bounds   : [ -0.0000,  1.0000]
================================================================================

    8        -1.159533760695E+04     7.3246E-05     6.6260E-05    -1.0184E-01
MG BCs: +ve charge blocks (gridpoints):     30449 (   16674025).
MG BCs: -ve charge blocks (gridpoints):      8258 (    1076601).
MG BCs:     Elided blocks (gridpoints):    166649 (  173026079).
MG BCs: Computational effort saved:  99.9797%.
MG BCs: Charge after coarse-graining:           -9.0009616.
MG DL_MG: Calling solver with defect correction order = 8
MG DL_MG: Solver finished
MG Hartree energy from (\int phi*rho dr):              1439.087126
MG Hartree energy from (\int eps (grad phi)^2 dr):     1438.423498
MG Discrepancy due to finite box and discretization:     -0.663628 (  -0.04611%)
MG Correction to account for finite box:                  0.473355
MG Remaining discrepancy, due to discretization:         -0.190273 (  -0.01322%)
      ideal mu1:      -0.774742411116
             Q0:  -11595.428153845365
             G0:      -0.201594334749
   RMS gradient:       0.000068364610
MG BCs: +ve charge blocks (gridpoints):     30450 (   16673259).
MG BCs: -ve charge blocks (gridpoints):      8261 (    1076958).
MG BCs:     Elided blocks (gridpoints):    166648 (  173026488).
MG BCs: Computational effort saved:  99.9797%.
MG BCs: Charge after coarse-graining:           -9.0009613.
MG DL_MG: Calling solver with defect correction order = 8
MG DL_MG: Solver finished
MG Hartree energy from (\int phi*rho dr):              1437.942588
MG Hartree energy from (\int eps (grad phi)^2 dr):     1437.278874
MG Discrepancy due to finite box and discretization:     -0.663714 (  -0.04616%)
MG Correction to account for finite box:                  0.473496
MG Remaining discrepancy, due to discretization:         -0.190218 (  -0.01323%)
     Trial step:       0.753092775035
             Q1:  -11595.496217267006
 Quadratic coef:       0.083755815347
 Linear coef   :      -0.151819236987
           Qmin:  -11595.496952294237
Quadratic minimum step length (  0.682543474817) accepted
    Initial Ne1:    7234.00009199
      Final Ne1:    7234.00000000

=================== Penalty functional idempotency correction ==================
 RMS occupancy error at iteration   1:  0.002421 (step -0.3891 Ne1=   7234.0000)
 RMS occupancy error at iteration   2:  0.000058 (step -0.4991 Ne1=   7234.0000)
 RMS occupancy error at iteration   3:  0.000000 (step -0.5000 Ne1=   7234.0000)
            Final RMS occupancy error   :  0.000000 (Ne1=   7234.0000)
               Final occupancy bounds   : [  0.0000,  1.0000]
================================================================================

    9        -1.159542815385E+04     6.8365E-05     6.1844E-05    -9.0547E-02
MG BCs: +ve charge blocks (gridpoints):     30450 (   16673314).
MG BCs: -ve charge blocks (gridpoints):      8261 (    1076950).
MG BCs:     Elided blocks (gridpoints):    166648 (  173026441).
MG BCs: Computational effort saved:  99.9797%.
MG BCs: Charge after coarse-graining:           -9.0009613.
MG DL_MG: Calling solver with defect correction order = 8
MG DL_MG: Solver finished
MG Hartree energy from (\int phi*rho dr):              1438.051057
MG Hartree energy from (\int eps (grad phi)^2 dr):     1437.387355
MG Discrepancy due to finite box and discretization:     -0.663703 (  -0.04615%)
MG Correction to account for finite box:                  0.473483
MG Remaining discrepancy, due to discretization:         -0.190220 (  -0.01323%)
      ideal mu1:      -0.773876121283
   10        -1.159550060718E+04     5.5245E-05     4.9975E-05    -7.2453E-02
Finished density kernel iterations (  10)

Writing density kernel to file "complex_23661.vacuum_dkn" ... done


>>> Density kernel optimised for the current NGWF basis:
     ~~~~~~~~~~~~~~~~~~~~~~~~~~~~~~~~~~~~~~~~~~~~~~~~~~~~~~~~~~~
     Total energy                =  -1.15955006071803E+04  Eh
     Estimated bandgap           =  -4.3801E-01  Eh
     RMS occupancy error         =   5.3715E-12
     [H,K] commutator            =   4.9975E-05
     Occupancy bounds            = [  0.000:  1.000]
     ~~~~~~~~~~~~~~~~~~~~~~~~~~~~~~~~~~~~~~~~~~~~~~~~~~~~~~~~~~~




################################################################################
########################### NGWF CG iteration  001 #############################
################################################################################
****** Reciprocal space K.E. preconditioning with k_zero =  3.5000 a0^-1 *******

>>> Checking for convergence of NGWFs:   NOT CONVERGED
  ========================================================================
         NGWF RMS gradient =  1.6308E-03 >  2.0000E-06  | above tolerance
  ========================================================================

>>> Improving NGWFs using line search:
============ Calculation of NGWF S^-1 using Hotelling algorithm ================ 
         Iteration  |  Frobenius norm and Maximum abs value    (of I-S*S_n^-1)   
               1       0.20439893E+00     0.53731681E-02
               2       0.97661234E-03     0.42682351E-04
               3       0.38827588E-07     0.29362883E-08
               4       0.12922571E-12     0.59952043E-14
================================================================================
MG BCs: +ve charge blocks (gridpoints):     29995 (   16610168).
MG BCs: -ve charge blocks (gridpoints):      8244 (    1076762).
MG BCs:     Elided blocks (gridpoints):    167110 (  173089775).
MG BCs: Computational effort saved:  99.9800%.
MG BCs: Charge after coarse-graining:           -9.0009650.
MG DL_MG: Calling solver with defect correction order = 8
MG DL_MG: Solver finished
MG Hartree energy from (\int phi*rho dr):              1405.673889
MG Hartree energy from (\int eps (grad phi)^2 dr):     1405.011131
MG Discrepancy due to finite box and discretization:     -0.662758 (  -0.04715%)
MG Correction to account for finite box:                  0.473392
MG Remaining discrepancy, due to discretization:         -0.189366 (  -0.01347%)
============ Calculation of NGWF S^-1 using Hotelling algorithm ================ 
         Iteration  |  Frobenius norm and Maximum abs value    (of I-S*S_n^-1)   
               1       0.18353548E+01     0.42500539E-01
               2       0.70142276E-01     0.22811324E-02
               3       0.14180651E-03     0.86173437E-05
               4       0.11010419E-08     0.13028956E-09
               5       0.11182882E-12     0.51070259E-14
================================================================================
------------------------------- NGWF line search -------------------------------
RMS gradient                =       0.00163083862136
Trial step length           =               0.122474
Gradient along search dir.  =       -284.78412583412
Functional at step 0        =  -11595.50060718029272
Functional at step 1        =  -11627.63842712680344
Functional predicted        =  -11706.45859459517669
Selected quadratic step     =               0.779243
--------------------------- NGWF line search finished --------------------------
                                               
Writing NGWFs to file "complex_23661.vacuum_tightbox_ngwfs"....  done

>>> Optimising kernel for current NGWFs:
   Initial electron number for spin 1:    7268.75937207
     Final electron number for spin 1:    7234.00000000

=================== Penalty functional idempotency correction ==================
 RMS occupancy error at iteration   1:  0.004343 (step -0.4854 Ne1=   7234.0000)
 RMS occupancy error at iteration   2:  0.000074 (step -0.5003 Ne1=   7234.0000)
            Final RMS occupancy error   :  0.000000 (Ne1=   7234.0000)
               Final occupancy bounds   : [  0.0000,  1.0000]
================================================================================

................................................................................
<<<<<<<<<<<<<< LNV (Original version) density kernel optimisation >>>>>>>>>>>>>>
~~~~~~~~~~~~~~~~~~~~~~~~~~~~~~~~~~~~~~~~~~~~~~~~~~~~~~~~~~~~~~~~~~~~~~~~~~~~~~~~
   iter  |      energy (Eh)       | rms gradient |  commutator  |   dE (Eh)
MG BCs: +ve charge blocks (gridpoints):     24028 (   16236216).
MG BCs: -ve charge blocks (gridpoints):      8347 (    1060947).
MG BCs:     Elided blocks (gridpoints):    173092 (  173479542).
MG BCs: Computational effort saved:  99.9830%.
MG BCs: Charge after coarse-graining:           -9.0006808.
MG DL_MG: Calling solver with defect correction order = 8
MG DL_MG: Solver finished
MG Hartree energy from (\int phi*rho dr):              1253.691007
MG Hartree energy from (\int eps (grad phi)^2 dr):     1253.028297
MG Discrepancy due to finite box and discretization:     -0.662710 (  -0.05286%)
MG Correction to account for finite box:                  0.472990
MG Remaining discrepancy, due to discretization:         -0.189720 (  -0.01513%)
      ideal mu1:      -0.715015449831
             Q0:  -11705.690991087933
             G0:      -9.761154880886
   RMS gradient:       0.000477427368
MG BCs: +ve charge blocks (gridpoints):     24092 (   16249449).
MG BCs: -ve charge blocks (gridpoints):      8324 (    1057881).
MG BCs:     Elided blocks (gridpoints):    173028 (  173469375).
MG BCs: Computational effort saved:  99.9830%.
MG BCs: Charge after coarse-graining:           -9.0006765.
MG DL_MG: Calling solver with defect correction order = 8
MG DL_MG: Solver finished
MG Hartree energy from (\int phi*rho dr):              1268.618212
MG Hartree energy from (\int eps (grad phi)^2 dr):     1267.950247
MG Discrepancy due to finite box and discretization:     -0.667965 (  -0.05265%)
MG Correction to account for finite box:                  0.472124
MG Remaining discrepancy, due to discretization:         -0.195841 (  -0.01544%)
     Trial step:       0.716950876652
             Q1:  -11705.099247942213
 Quadratic coef:       7.590011694703
 Linear coef   :      -6.998268548984
           Qmin:  -11707.304156016186
Quadratic minimum step length (  0.330527473017) accepted
    Initial Ne1:    7233.99953893
      Final Ne1:    7234.00000000

=================== Penalty functional idempotency correction ==================
 RMS occupancy error at iteration   1:  0.000350 (step -0.4986 Ne1=   7234.0000)
 RMS occupancy error at iteration   2:  0.000000 (step -0.5000 Ne1=   7234.0000)
            Final RMS occupancy error   :  0.000000 (Ne1=   7234.0000)
               Final occupancy bounds   : [  0.0000,  1.0000]
================================================================================

    1        -1.170569099109E+04     4.7743E-04     4.3189E-04
MG BCs: +ve charge blocks (gridpoints):     24062 (   16242262).
MG BCs: -ve charge blocks (gridpoints):      8334 (    1059663).
MG BCs:     Elided blocks (gridpoints):    173058 (  173474780).
MG BCs: Computational effort saved:  99.9830%.
MG BCs: Charge after coarse-graining:           -9.0006788.
MG DL_MG: Calling solver with defect correction order = 8
MG DL_MG: Solver finished
MG Hartree energy from (\int phi*rho dr):              1259.649051
MG Hartree energy from (\int eps (grad phi)^2 dr):     1258.984028
MG Discrepancy due to finite box and discretization:     -0.665023 (  -0.05279%)
MG Correction to account for finite box:                  0.472560
MG Remaining discrepancy, due to discretization:         -0.192464 (  -0.01528%)
      ideal mu1:      -0.721253245987
             Q0:  -11707.279728654190
             G0:      -0.990710886210
   RMS gradient:       0.000152725496
MG BCs: +ve charge blocks (gridpoints):     24060 (   16241679).
MG BCs: -ve charge blocks (gridpoints):      8340 (    1060402).
MG BCs:     Elided blocks (gridpoints):    173060 (  173474624).
MG BCs: Computational effort saved:  99.9830%.
MG BCs: Charge after coarse-graining:           -9.0006787.
MG DL_MG: Calling solver with defect correction order = 8
MG DL_MG: Solver finished
MG Hartree energy from (\int phi*rho dr):              1260.615362
MG Hartree energy from (\int eps (grad phi)^2 dr):     1259.950023
MG Discrepancy due to finite box and discretization:     -0.665339 (  -0.05278%)
MG Correction to account for finite box:                  0.472466
MG Remaining discrepancy, due to discretization:         -0.192874 (  -0.01530%)
     Trial step:       0.486797659749
             Q1:  -11707.486411714577
 Quadratic coef:       0.275592680508
 Linear coef   :      -0.482275740895
           Qmin:  -11707.490719281579
Quadratic minimum step length (  0.425937839838) accepted
    Initial Ne1:    7233.99993919
      Final Ne1:    7234.00000000

=================== Penalty functional idempotency correction ==================
 RMS occupancy error at iteration   1:  0.000146 (step -0.4993 Ne1=   7234.0000)
 RMS occupancy error at iteration   2:  0.000000 (step -0.5000 Ne1=   7234.0000)
            Final RMS occupancy error   :  0.000000 (Ne1=   7234.0000)
               Final occupancy bounds   : [  0.0000,  1.0000]
================================================================================

    2        -1.170727972865E+04     1.5273E-04     1.3816E-04    -1.5887E+00
MG BCs: +ve charge blocks (gridpoints):     24058 (   16241723).
MG BCs: -ve charge blocks (gridpoints):      8339 (    1060314).
MG BCs:     Elided blocks (gridpoints):    173062 (  173474668).
MG BCs: Computational effort saved:  99.9830%.
MG BCs: Charge after coarse-graining:           -9.0006788.
MG DL_MG: Calling solver with defect correction order = 8
MG DL_MG: Solver finished
MG Hartree energy from (\int phi*rho dr):              1260.494316
MG Hartree energy from (\int eps (grad phi)^2 dr):     1259.829018
MG Discrepancy due to finite box and discretization:     -0.665298 (  -0.05278%)
MG Correction to account for finite box:                  0.472477
MG Remaining discrepancy, due to discretization:         -0.192821 (  -0.01530%)
      ideal mu1:      -0.722094386451
             Q0:  -11707.491160792648
             G0:      -0.161731994893
   RMS gradient:       0.000061390287
MG BCs: +ve charge blocks (gridpoints):     24058 (   16241156).
MG BCs: -ve charge blocks (gridpoints):      8340 (    1060727).
MG BCs:     Elided blocks (gridpoints):    173062 (  173474822).
MG BCs: Computational effort saved:  99.9830%.
MG BCs: Charge after coarse-graining:           -9.0006787.
MG DL_MG: Calling solver with defect correction order = 8
MG DL_MG: Solver finished
MG Hartree energy from (\int phi*rho dr):              1260.025629
MG Hartree energy from (\int eps (grad phi)^2 dr):     1259.360450
MG Discrepancy due to finite box and discretization:     -0.665179 (  -0.05279%)
MG Correction to account for finite box:                  0.472373
MG Remaining discrepancy, due to discretization:         -0.192806 (  -0.01530%)
     Trial step:       0.455352109506
             Q1:  -11707.541385309072
 Quadratic coef:       0.023420488626
 Linear coef   :      -0.073645005049
           Qmin:  -11707.549054405110
Quadratic minimum step length (  0.715920340942) accepted
    Initial Ne1:    7233.99998348
      Final Ne1:    7234.00000000

=================== Penalty functional idempotency correction ==================
 RMS occupancy error at iteration   1:  0.000137 (step -0.4937 Ne1=   7234.0000)
 RMS occupancy error at iteration   2:  0.000001 (step -0.5000 Ne1=   7234.0000)
            Final RMS occupancy error   :  0.000000 (Ne1=   7234.0000)
               Final occupancy bounds   : [  0.0000,  1.0000]
================================================================================

    3        -1.170749116079E+04     6.1390E-05     5.5535E-05    -2.1143E-01
MG BCs: +ve charge blocks (gridpoints):     24060 (   16240831).
MG BCs: -ve charge blocks (gridpoints):      8340 (    1060909).
MG BCs:     Elided blocks (gridpoints):    173060 (  173474965).
MG BCs: Computational effort saved:  99.9830%.
MG BCs: Charge after coarse-graining:           -9.0006787.
MG DL_MG: Calling solver with defect correction order = 8
MG DL_MG: Solver finished
MG Hartree energy from (\int phi*rho dr):              1259.757757
MG Hartree energy from (\int eps (grad phi)^2 dr):     1259.092645
MG Discrepancy due to finite box and discretization:     -0.665111 (  -0.05280%)
MG Correction to account for finite box:                  0.472314
MG Remaining discrepancy, due to discretization:         -0.192798 (  -0.01530%)
      ideal mu1:      -0.721274357646
             Q0:  -11707.549129561754
             G0:      -0.060723669340
   RMS gradient:       0.000037609531
MG BCs: +ve charge blocks (gridpoints):     24058 (   16240740).
MG BCs: -ve charge blocks (gridpoints):      8339 (    1060985).
MG BCs:     Elided blocks (gridpoints):    173062 (  173474980).
MG BCs: Computational effort saved:  99.9830%.
MG BCs: Charge after coarse-graining:           -9.0006787.
MG DL_MG: Calling solver with defect correction order = 8
MG DL_MG: Solver finished
MG Hartree energy from (\int phi*rho dr):              1259.757196
MG Hartree energy from (\int eps (grad phi)^2 dr):     1259.092274
MG Discrepancy due to finite box and discretization:     -0.664922 (  -0.05278%)
MG Correction to account for finite box:                  0.472251
MG Remaining discrepancy, due to discretization:         -0.192671 (  -0.01529%)
     Trial step:       0.570960451771
             Q1:  -11707.569817979704
 Quadratic coef:       0.013982395731
 Linear coef   :      -0.034670813680
           Qmin:  -11707.570622039588
Quadratic minimum step length (  0.707878099831) accepted
    Initial Ne1:    7233.99999369
      Final Ne1:    7234.00000000

=================== Penalty functional idempotency correction ==================
 RMS occupancy error at iteration   1:  0.000200 (step -0.4865 Ne1=   7234.0000)
 RMS occupancy error at iteration   2:  0.000002 (step -0.5000 Ne1=   7234.0000)
            Final RMS occupancy error   :  0.000000 (Ne1=   7234.0000)
               Final occupancy bounds   : [  0.0000,  1.0000]
================================================================================

    4        -1.170754912956E+04     3.7610E-05     3.4022E-05    -5.7969E-02
MG BCs: +ve charge blocks (gridpoints):     24058 (   16240737).
MG BCs: -ve charge blocks (gridpoints):      8339 (    1060965).
MG BCs:     Elided blocks (gridpoints):    173062 (  173475003).
MG BCs: Computational effort saved:  99.9830%.
MG BCs: Charge after coarse-graining:           -9.0006787.
MG DL_MG: Calling solver with defect correction order = 8
MG DL_MG: Solver finished
MG Hartree energy from (\int phi*rho dr):              1259.757898
MG Hartree energy from (\int eps (grad phi)^2 dr):     1259.093022
MG Discrepancy due to finite box and discretization:     -0.664876 (  -0.05278%)
MG Correction to account for finite box:                  0.472235
MG Remaining discrepancy, due to discretization:         -0.192641 (  -0.01529%)
      ideal mu1:      -0.721669320905
             Q0:  -11707.570616522222
             G0:      -0.051206803234
   RMS gradient:       0.000034548911
MG BCs: +ve charge blocks (gridpoints):     24058 (   16241771).
MG BCs: -ve charge blocks (gridpoints):      8337 (    1060590).
MG BCs:     Elided blocks (gridpoints):    173062 (  173474344).
MG BCs: Computational effort saved:  99.9830%.
MG BCs: Charge after coarse-graining:           -9.0006785.
MG DL_MG: Calling solver with defect correction order = 8
MG DL_MG: Solver finished
MG Hartree energy from (\int phi*rho dr):              1260.481806
MG Hartree energy from (\int eps (grad phi)^2 dr):     1259.817128
MG Discrepancy due to finite box and discretization:     -0.664678 (  -0.05273%)
MG Correction to account for finite box:                  0.472113
MG Remaining discrepancy, due to discretization:         -0.192565 (  -0.01528%)
     Trial step:       0.635743973371
             Q1:  -11707.591078382684
 Quadratic coef:       0.012092556090
 Linear coef   :      -0.032554416552
           Qmin:  -11707.592526489585
Quadratic minimum step length (  0.855744392506) accepted
    Initial Ne1:    7233.99999323
      Final Ne1:    7234.00000000

=================== Penalty functional idempotency correction ==================
 RMS occupancy error at iteration   1:  0.000669 (step -0.4562 Ne1=   7234.0000)
 RMS occupancy error at iteration   2:  0.000014 (step -0.4993 Ne1=   7234.0000)
            Final RMS occupancy error   :  0.000000 (Ne1=   7234.0000)
               Final occupancy bounds   : [ -0.0000,  1.0000]
================================================================================

    5        -1.170757061652E+04     3.4549E-05     3.1254E-05    -2.1487E-02
MG BCs: +ve charge blocks (gridpoints):     24059 (   16242175).
MG BCs: -ve charge blocks (gridpoints):      8337 (    1060446).
MG BCs:     Elided blocks (gridpoints):    173061 (  173474084).
MG BCs: Computational effort saved:  99.9830%.
MG BCs: Charge after coarse-graining:           -9.0006784.
MG DL_MG: Calling solver with defect correction order = 8
MG DL_MG: Solver finished
MG Hartree energy from (\int phi*rho dr):              1260.733885
MG Hartree energy from (\int eps (grad phi)^2 dr):     1260.069276
MG Discrepancy due to finite box and discretization:     -0.664609 (  -0.05272%)
MG Correction to account for finite box:                  0.472070
MG Remaining discrepancy, due to discretization:         -0.192539 (  -0.01527%)
      ideal mu1:      -0.722896161133
             Q0:  -11707.592489018687
             G0:      -0.049191873164
   RMS gradient:       0.000033644332
MG BCs: +ve charge blocks (gridpoints):     24057 (   16242280).
MG BCs: -ve charge blocks (gridpoints):      8338 (    1060461).
MG BCs:     Elided blocks (gridpoints):    173063 (  173473964).
MG BCs: Computational effort saved:  99.9830%.
MG BCs: Charge after coarse-graining:           -9.0006784.
MG DL_MG: Calling solver with defect correction order = 8
MG DL_MG: Solver finished
MG Hartree energy from (\int phi*rho dr):              1260.583141
MG Hartree energy from (\int eps (grad phi)^2 dr):     1259.918691
MG Discrepancy due to finite box and discretization:     -0.664450 (  -0.05271%)
MG Correction to account for finite box:                  0.471904
MG Remaining discrepancy, due to discretization:         -0.192546 (  -0.01527%)
     Trial step:       0.737586835757
             Q1:  -11707.616336322622
 Quadratic coef:       0.012435974137
 Linear coef   :      -0.036283278072
           Qmin:  -11707.618954100015
Quadratic minimum step length (  1.075994046372) accepted
    Initial Ne1:    7234.00023036
      Final Ne1:    7234.00000000

=================== Penalty functional idempotency correction ==================
 RMS occupancy error at iteration   1:  0.002076 (step -0.3878 Ne1=   7234.0000)
 RMS occupancy error at iteration   2:  0.000102 (step -0.4941 Ne1=   7234.0000)
 RMS occupancy error at iteration   3:  0.000001 (step -0.5000 Ne1=   7234.0000)
            Final RMS occupancy error   :  0.000000 (Ne1=   7234.0000)
               Final occupancy bounds   : [  0.0000,  1.0000]
================================================================================

    6        -1.170759248902E+04     3.3644E-05     3.0435E-05    -2.1872E-02
MG BCs: +ve charge blocks (gridpoints):     24058 (   16242348).
MG BCs: -ve charge blocks (gridpoints):      8336 (    1060476).
MG BCs:     Elided blocks (gridpoints):    173062 (  173473881).
MG BCs: Computational effort saved:  99.9830%.
MG BCs: Charge after coarse-graining:           -9.0006784.
MG DL_MG: Calling solver with defect correction order = 8
MG DL_MG: Solver finished
MG Hartree energy from (\int phi*rho dr):              1260.516379
MG Hartree energy from (\int eps (grad phi)^2 dr):     1259.851995
MG Discrepancy due to finite box and discretization:     -0.664384 (  -0.05271%)
MG Correction to account for finite box:                  0.471835
MG Remaining discrepancy, due to discretization:         -0.192549 (  -0.01528%)
      ideal mu1:      -0.723115686911
             Q0:  -11707.619224739145
             G0:      -0.057246535229
   RMS gradient:       0.000036562115
MG BCs: +ve charge blocks (gridpoints):     24058 (   16240444).
MG BCs: -ve charge blocks (gridpoints):      8340 (    1061008).
MG BCs:     Elided blocks (gridpoints):    173062 (  173475253).
MG BCs: Computational effort saved:  99.9830%.
MG BCs: Charge after coarse-graining:           -9.0006787.
MG DL_MG: Calling solver with defect correction order = 8
MG DL_MG: Solver finished
MG Hartree energy from (\int phi*rho dr):              1259.691719
MG Hartree energy from (\int eps (grad phi)^2 dr):     1259.027233
MG Discrepancy due to finite box and discretization:     -0.664486 (  -0.05275%)
MG Correction to account for finite box:                  0.471878
MG Remaining discrepancy, due to discretization:         -0.192608 (  -0.01529%)
     Trial step:       0.890864211851
             Q1:  -11707.628372682724
 Quadratic coef:       0.041850945909
 Linear coef   :      -0.050998889488
           Qmin:  -11707.634761345740
Quadratic minimum step length (  0.542796399249) accepted
    Initial Ne1:    7233.99999992
      Final Ne1:    7234.00000000

=================== Penalty functional idempotency correction ==================
 RMS occupancy error at iteration   1:  0.000024 (step -0.4986 Ne1=   7234.0000)
            Final RMS occupancy error   :  0.000000 (Ne1=   7234.0000)
               Final occupancy bounds   : [ -0.0000,  1.0000]
================================================================================

    7        -1.170761922474E+04     3.6562E-05     3.3075E-05    -2.6736E-02
MG BCs: +ve charge blocks (gridpoints):     24058 (   16241121).
MG BCs: -ve charge blocks (gridpoints):      8338 (    1060841).
MG BCs:     Elided blocks (gridpoints):    173062 (  173474743).
MG BCs: Computational effort saved:  99.9830%.
MG BCs: Charge after coarse-graining:           -9.0006786.
MG DL_MG: Calling solver with defect correction order = 8
MG DL_MG: Solver finished
MG Hartree energy from (\int phi*rho dr):              1260.010978
MG Hartree energy from (\int eps (grad phi)^2 dr):     1259.346530
MG Discrepancy due to finite box and discretization:     -0.664448 (  -0.05273%)
MG Correction to account for finite box:                  0.471863
MG Remaining discrepancy, due to discretization:         -0.192584 (  -0.01528%)
      ideal mu1:      -0.722567450033
             Q0:  -11707.634761710651
             G0:      -0.040826933036
   RMS gradient:       0.000030869971
MG BCs: +ve charge blocks (gridpoints):     24057 (   16240896).
MG BCs: -ve charge blocks (gridpoints):      8340 (    1060871).
MG BCs:     Elided blocks (gridpoints):    173063 (  173474938).
MG BCs: Computational effort saved:  99.9830%.
MG BCs: Charge after coarse-graining:           -9.0006787.
MG DL_MG: Calling solver with defect correction order = 8
MG DL_MG: Solver finished
MG Hartree energy from (\int phi*rho dr):              1259.777192
MG Hartree energy from (\int eps (grad phi)^2 dr):     1259.112755
[...]
MG Hartree energy from (\int phi*rho dr):              1217.151445
MG Hartree energy from (\int eps (grad phi)^2 dr):     1216.953669
MG Discrepancy due to finite box and discretization:     -0.197775 (  -0.01625%)
MG Correction to account for finite box:                  0.006357
MG Remaining discrepancy, due to discretization:         -0.191418 (  -0.01573%)
             Q2:  -11742.446362518938
  Cubic LS coeff:       0.800350637222
Predicted energy:  -11742.446362519026
Cubic minimum step length accepted
    Initial Ne1:    7234.00000000
      Final Ne1:    7234.00000000

=================== Penalty functional idempotency correction ==================
 RMS occupancy error at iteration   1:  0.000000 (step -0.5000 Ne1=   7234.0000)
            Final RMS occupancy error   :  0.000000 (Ne1=   7234.0000)
               Final occupancy bounds   : [ -0.0000,  1.0000]
================================================================================

    7        -1.174244636252E+04     9.2666E-09     8.3827E-09    -1.1642E-09

Reusing previously generated solute cavity.
MG BCs: +ve charge blocks (gridpoints):     28673 (   18411499).
MG BCs: -ve charge blocks (gridpoints):      8329 (    1029883).
MG BCs:     Elided blocks (gridpoints):    168447 (  171335323).
MG BCs: Computational effort saved:  99.9806%.
MG BCs: Charge after coarse-graining:           -9.0009476.
MG DL_MG: Calling solver with defect correction order = 8
MG DL_MG: Solver finished
MG Hartree energy from (\int phi*rho dr):              1217.151434
MG Hartree energy from (\int eps (grad phi)^2 dr):     1216.953659
MG Discrepancy due to finite box and discretization:     -0.197775 (  -0.01625%)
MG Correction to account for finite box:                  0.006357
MG Remaining discrepancy, due to discretization:         -0.191418 (  -0.01573%)
      ideal mu1:      -0.481239661571
             Q0:  -11742.446362519288
             G0:      -0.000000003275
   RMS gradient:       0.000000007182

Reusing previously generated solute cavity.
MG BCs: +ve charge blocks (gridpoints):     28673 (   18411500).
MG BCs: -ve charge blocks (gridpoints):      8329 (    1029883).
MG BCs:     Elided blocks (gridpoints):    168447 (  171335322).
MG BCs: Computational effort saved:  99.9806%.
MG BCs: Charge after coarse-graining:           -9.0009476.
MG DL_MG: Calling solver with defect correction order = 8
MG DL_MG: Solver finished
MG Hartree energy from (\int phi*rho dr):              1217.151420
MG Hartree energy from (\int eps (grad phi)^2 dr):     1216.953645
MG Discrepancy due to finite box and discretization:     -0.197775 (  -0.01625%)
MG Correction to account for finite box:                  0.006357
MG Remaining discrepancy, due to discretization:         -0.191418 (  -0.01573%)
     Trial step:       0.521488035447
             Q1:  -11742.446362520568
 Quadratic coef:       0.000000000427
 Linear coef   :      -0.000000001708
           Qmin:  -11742.446362520994
Quadratic minimum step length (  1.041647284338) accepted
    Initial Ne1:    7234.00000000
      Final Ne1:    7234.00000000

=================== Penalty functional idempotency correction ==================
 RMS occupancy error at iteration   1:  0.000000 (step -0.5000 Ne1=   7234.0000)
            Final RMS occupancy error   :  0.000000 (Ne1=   7234.0000)
               Final occupancy bounds   : [  0.0000,  1.0000]
================================================================================

    8        -1.174244636252E+04     7.1817E-09     6.4966E-09    -2.7940E-09

Reusing previously generated solute cavity.
MG BCs: +ve charge blocks (gridpoints):     28673 (   18411500).
MG BCs: -ve charge blocks (gridpoints):      8329 (    1029883).
MG BCs:     Elided blocks (gridpoints):    168447 (  171335322).
MG BCs: Computational effort saved:  99.9806%.
MG BCs: Charge after coarse-graining:           -9.0009476.
MG DL_MG: Calling solver with defect correction order = 8
MG DL_MG: Solver finished
MG Hartree energy from (\int phi*rho dr):              1217.151407
MG Hartree energy from (\int eps (grad phi)^2 dr):     1216.953632
MG Discrepancy due to finite box and discretization:     -0.197775 (  -0.01625%)
MG Correction to account for finite box:                  0.006357
MG Remaining discrepancy, due to discretization:         -0.191418 (  -0.01573%)
      ideal mu1:      -0.481239652240
             Q0:  -11742.446362521150
             G0:      -0.000000001977
   RMS gradient:       0.000000005837

Reusing previously generated solute cavity.
MG BCs: +ve charge blocks (gridpoints):     28673 (   18411500).
MG BCs: -ve charge blocks (gridpoints):      8329 (    1029883).
MG BCs:     Elided blocks (gridpoints):    168447 (  171335322).
MG BCs: Computational effort saved:  99.9806%.
MG BCs: Charge after coarse-graining:           -9.0009476.
MG DL_MG: Calling solver with defect correction order = 8
MG DL_MG: Solver finished
MG Hartree energy from (\int phi*rho dr):              1217.151427
MG Hartree energy from (\int eps (grad phi)^2 dr):     1216.953652
MG Discrepancy due to finite box and discretization:     -0.197775 (  -0.01625%)
MG Correction to account for finite box:                  0.006357
MG Remaining discrepancy, due to discretization:         -0.191418 (  -0.01573%)
     Trial step:       0.737025505622
             Q1:  -11742.446362520801
 Quadratic coef:       0.000000001806
 Linear coef   :      -0.000000001457
           Qmin:  -11742.446362521445
Quadratic minimum step length (  0.297252605756) accepted
    Initial Ne1:    7234.00000000
      Final Ne1:    7234.00000000

=================== Penalty functional idempotency correction ==================
 RMS occupancy error at iteration   1:  0.000000 (step -0.5000 Ne1=   7234.0000)
            Final RMS occupancy error   :  0.000000 (Ne1=   7234.0000)
               Final occupancy bounds   : [  0.0000,  1.0000]
================================================================================

    9        -1.174244636252E+04     5.8369E-09     5.2802E-09    -1.8626E-09

Reusing previously generated solute cavity.
MG BCs: +ve charge blocks (gridpoints):     28673 (   18411500).
MG BCs: -ve charge blocks (gridpoints):      8329 (    1029883).
MG BCs:     Elided blocks (gridpoints):    168447 (  171335322).
MG BCs: Computational effort saved:  99.9806%.
MG BCs: Charge after coarse-graining:           -9.0009476.
MG DL_MG: Calling solver with defect correction order = 8
MG DL_MG: Solver finished
MG Hartree energy from (\int phi*rho dr):              1217.151415
MG Hartree energy from (\int eps (grad phi)^2 dr):     1216.953640
MG Discrepancy due to finite box and discretization:     -0.197775 (  -0.01625%)
MG Correction to account for finite box:                  0.006357
MG Remaining discrepancy, due to discretization:         -0.191418 (  -0.01573%)
      ideal mu1:      -0.481239652812
   10        -1.174244636252E+04     3.6502E-09     3.3021E-09     1.1642E-10
Finished density kernel iterations (  10)

Writing density kernel to file "complex_23661.dkn" ... done


>>> Density kernel optimised for the current NGWF basis:
     ~~~~~~~~~~~~~~~~~~~~~~~~~~~~~~~~~~~~~~~~~~~~~~~~~~~~~~~~~~~
     Total energy                =  -1.17424463625210E+04  Eh
     Estimated bandgap           =   8.9131E-02  Eh
     RMS occupancy error         =   3.2033E-16
     [H,K] commutator            =   3.3021E-09
     Occupancy bounds            = [  0.000:  1.000]
     ~~~~~~~~~~~~~~~~~~~~~~~~~~~~~~~~~~~~~~~~~~~~~~~~~~~~~~~~~~~




################################################################################
########################### NGWF CG iteration  004 #############################
################################################################################
****** Reciprocal space K.E. preconditioning with k_zero =  3.5000 a0^-1 *******

>>> Checking for convergence of NGWFs: 
           ........................................................
           |         *** NGWF optimisation converged ***          |
           | RMS NGWF gradient =    0.00000191865577              |
           | Criteria satisfied:                                  |
           | -> RMS NGWF gradient lower than set threshold.       |
           ========================================================

Reusing previously generated solute cavity.
MG BCs: +ve charge blocks (gridpoints):     28673 (   18411500).
MG BCs: -ve charge blocks (gridpoints):      8329 (    1029883).
MG BCs:     Elided blocks (gridpoints):    168447 (  171335322).
MG BCs: Computational effort saved:  99.9806%.
MG BCs: Charge after coarse-graining:           -9.0009476.
MG DL_MG: Calling solver with defect correction order = 8
MG DL_MG: Solver finished
MG Hartree energy from (\int phi*rho dr):              1217.151415
MG Hartree energy from (\int eps (grad phi)^2 dr):     1216.953640
MG Discrepancy due to finite box and discretization:     -0.197775 (  -0.01625%)
MG Correction to account for finite box:                  0.006357
MG Remaining discrepancy, due to discretization:         -0.191418 (  -0.01573%)

================================================================================
           ---------------- ENERGY COMPONENTS (Eh) ----------------
           | Kinetic                    :     8572.19987874441722 |
           | Pseudo. (local,OBC,corr'd) :    -5073.49992325149924 |
           | Pseudopotential (non-local):     1411.64813384687841 |
           | Hartree (molecular)        :     1217.15141522062095 |
           | Exchange-correlation       :    -3376.46095193265273 |
           | Ion-ion (open BC)          :   839771.30397489538882 |
           | Dispersion Correction      :       -3.39299905345306 |
           | Smeared ion non-self corr. :  -839723.06313399097417 |
           | Smeared ion self corr.     :   -14538.95273137971526 |
           | Solvent cavitation energy  :        2.20572580192971 |
           | Solute-solvent dis-rep en. :       -1.58575142215232 |
           | Total                      :   -11742.44636252125019 |
           --------------------------------------------------------
           ------ LOCAL ENERGY COMPONENTS FROM MATRIX TRACES ------
           | Pseudopotential (local)    :    -5073.49992325150288 |
           | Hartree                    :    -2002.90555216245730 |
           --------------------------------------------------------
           Integrated density           :     7233.99999999895226
           Integrated density tr(KS)    :     7234.00000000000000
================================================================================


                        <<<<< CALCULATION SUMMARY >>>>>                         
|ITER|    RMS GRADIENT   |     TOTAL ENERGY    |   step   |     Epredicted              
   0     0.00003951803423 -11742.38758694240823   0.606826 -11742.43832319630928        
   1     0.00001010794330 -11742.44578520907089   0.088153 -11742.44626740819695        
   2     0.00000437263404 -11742.44634433346801   0.015500 -11742.44636020014877        
   3     0.00000191865577 -11742.44636252103373  <-- CG                                 

=================== Finished the calculation in solvent ========================
= Adjusting the following parameters: 
= read_denskern: F
= read_tightbox_ngwfs: F
= maxit_pen: 0 (restored to user-specified value)
= restart read filename prefix: ""
= restart write filename prefix: ""
================================================================================

================================================================================
IS: Calculation in solvent completed (NGWFs converged).      

Individual components of total energy in solvent:     hartree           kcal/mol
- Usual non-electrostatic DFT terms:    -12960.21775212143439    -8132659.248938
- Electrostatic fixed charge energy:      1217.15141522062095      763774.027850
- Apolar cavitation energy:                  2.20572580192971        1384.113808
- Apolar dispersion-repulsion energy:       -1.58575142215232        -995.074019
 -------------------------------------------------------------------------------
- Total energy in solvent:              -11742.44636252103373    -7368496.181299

Components of total energy in solvent:                hartree           kcal/mol
- Usual non-electrostatic DFT terms:    -12960.21775212143439    -8132659.248938
- Electrostatic energy:                   1217.15141522062095      763774.027850
- Apolar energy terms:                       0.61997437977739         389.039789
 -------------------------------------------------------------------------------
- Total energy in solvent:              -11742.44636252103373    -7368496.181299

Calculation of free energy of solvation:              hartree           kcal/mol
- Total energy in solvent:         (+)  -11742.44636252103373    -7368496.181299
- Total energy in vacuum:          (-)  -11738.69712515769061    -7366143.499384
 -------------------------------------------------------------------------------
- Total free energy of solvation:           -3.74923736334313       -2352.681915

Components of polar term in f.e. of solvation:        hartree           kcal/mol
- Electrostatic:                            -4.58856364074677       -2879.367094
- Change in nonelectrostatic DFT terms:      0.21935189762371         137.645391
 -------------------------------------------------------------------------------
- Polar term in f.e. of solvation:          -4.36921174312306       -2741.721704

Components of free energy of solvation:               hartree           kcal/mol
- Polar term in f.e. of solvation: (+)      -4.36921174312306       -2741.721704
- Apolar (cavitation, dis., rep.): (+)       0.61997437977739         389.039789
 -------------------------------------------------------------------------------
- Total free energy of solvation:           -3.74923736334567       -2352.681915
================================================================================


------------------------------ TIMING INFORMATION ------------------------------
AVERAGE TIME:   30012.847s on     60 node(s)                                    
TOTAL TIME:     30012.847s on     60 node(s)                                    
================= AVERAGE TIMINGS FROM ALL NODES (CUMULATIVE) ==================
|| TAG                                    #calls    cpu time   %total  Gflops ||
|| work_imbalance                       :     1        0.00s   0.000%  ------ ||
|| sparse_set_to_garbage                :   164        0.03s   0.000%  ------ ||
|| parallel_prepare_fd_halos_request    :  1827        0.03s   0.000%  ------ ||
|| ngwfs_initialise_from_radial         :     1        0.09s   0.000%  ------ ||
|| basis_extract_function_from_box      :  3381        0.15s   0.001%  ------ ||
|| parallel_prepare_fd_halos_satisfy    :  1827        0.62s   0.002%  ------ ||
|| parallel_prepare_fd_halos_alloc      :  1827        1.58s   0.005%  ------ ||
|| pseudopotentials_nonlocal_mat        :    28        2.25s   0.008%  ------ ||
|| density_init_guess_real              :     1        3.54s   0.012%  ------ ||
|| openbc_locps_radial                  :     1        4.29s   0.014%  ------ ||
|| restart_kernel_read                  :     1        4.34s   0.014%  ------ ||
|| parallel_prepare_fd_halos_comms_imbal:  1827        9.10s   0.030%  ------ ||
|| restart_ngwfs_tightbox_input         :     1       12.99s   0.043%  ------ ||
|| parallel_prepare_fd_halos_clear      :  1827       18.58s   0.062%  ------ ||
|| sparse_init                          :     2       22.99s   0.077%  ------ ||
|| projectors_func_ovlp_box             :    28       23.86s   0.079%  ------ ||
|| parallel_prepare_fd_halos_comms_wait :  1827       25.41s   0.085%  ------ ||
|| function_ops_brappd_ketppd           :    28       26.73s   0.089%  ------ ||
|| projectors_init_fftbox_recip         :   133       29.69s   0.099%  ------ ||
|| basis_copy_function_to_box           : 54860       38.82s   0.129%  ------ ||
|| palser_mano_kernel_optimise          :     1       40.04s   0.133%  ------ ||
|| ngwf_gradient_coeffs                 :    15       48.93s   0.163%  ------ ||
|| fourier_apply_box_pair               :  4812       49.76s   0.166% 559.824 ||
|| pseudo_make_structure_factor         :     2       51.99s   0.173%  ------ ||
|| parallel_prepare_fd_halos            :  1827       55.34s   0.184%  ------ ||
|| sparse_embed_hotelling_invert_embed  :    28       76.27s   0.254%  ------ ||
|| restart_kernel_write                 :    16      136.74s   0.456%  ------ ||
|| projectors_gradient_batch            :   105      141.38s   0.471%  ------ ||
|| finite_difference_derivative         :  1827      141.40s   0.471%  ------ ||
|| integrals_kinetic                    :    28      141.58s   0.472%  ------ ||
|| fourier_apply_cell_backward          :  1219      163.25s   0.544% 101.640 ||
|| sparse_trace                         :  5151      172.44s   0.575%  ------ ||
|| basis_dot_function_with_box          : 8.601M     189.62s   0.632%  ------ ||
|| fourier_apply_cell_forward           :  1217      213.10s   0.710%  77.737 ||
|| openbc_locps_on_grid                 :     2      264.34s   0.881%  ------ ||
|| kernel_purify                        :   464      290.79s   0.969%  ------ ||
|| basis_add_function_to_box            : 17.89M     412.31s   1.374%  ------ ||
|| xc_energy_potential                  :   304      436.35s   1.454%  ------ ||
|| lnv_gradient_norm                    :   150      438.68s   1.462%  ------ ||
|| hamiltonian_energy_components        :     4      482.81s   1.609%  ------ ||
|| kernel_fix                           :   150      547.17s   1.823%  ------ ||
|| ngwf_gradient_build_batch            :   105      719.87s   2.399%  ------ ||
|| integrals_locpot_mat_els_batch       :  1113      730.70s   2.435%  ------ ||
|| ngwf_gradient_batch                  :   105     1002.95s   3.342%  ------ ||
|| density_batch_row_sums               :  2121     1009.73s   3.364%  ------ ||
|| ngwf_gradient_lnv                    :    15     1151.99s   3.838%  ------ ||
|| cell_grid_deposit_box_real           : 35200     1307.95s   4.358%  ------ ||
|| cell_grid_extract_box_real           : 38596     1455.47s   4.849%  ------ ||
|| restart_ngwfs_tightbox_output        :    13     1607.22s   5.355%  ------ ||
|| sparse_product                       :  6376     1851.49s   6.169%  ------ ||
|| density_fftbox_deposit_to_cell       : 33330     1950.46s   6.499%  ------ ||
|| density_fftbox_interpolate_multiply  : 33330     3424.98s  11.412%  ------ ||
|| potential_apply_to_ngwf_batch        :  1113     3496.68s  11.651%  ------ ||
|| multigrid_prepare_bound_cond         :   304     4150.45s  13.829%  ------ ||
|| fourier_apply_box                    : 114.7k    4235.38s  14.112% 760.388 ||
|| integrals_locpot_dbl_grid            :   159     4242.38s  14.135%  ------ ||
|| density_batch_interp_deposit         :  2121     6254.93s  20.841%  ------ ||
|| dl_mg_solver_calls                   :   304     7019.62s  23.389%  ------ ||
|| density_on_dbl_grid                  :   303     7631.39s  25.427%  ------ ||
|| multigrid_calculate_hartree          :   304    11364.68s  37.866%  ------ ||
|| hamiltonian_lhxc_calculate           :   299    19353.01s  64.482%  ------ ||
|| lnv_denskernel_optimise_cg           :    15    24585.64s  81.917%  ------ ||
|| ngwf_cg_optimise                     :     2    29056.12s  96.812%  ------ ||
|| total_time                           :     1    30012.85s 100.000%  ------ ||
================================================================================
Overhead of generating timer report: 
- 0 ms averaging over threads,
- 15 ms ensuring consistency across MPI ranks,
- 0 ms printing in order.

Job completed: 26-05-2020 15:39 (+0100)

Application 40621535 resources: utime ~6171259s, stime ~205417s, Rss ~3666044, inblocks ~310354482, outblocks ~62003256
