 +---------------------------------------------------------------+
 |                                                               |
 |        ####### #     # ####### ####### ####### ######         |
 |        #     # ##    # #          #    #       #     #        |
 |        #     # # #   # #          #    #       #     #        |
 |        #     # #  #  # #####      #    #####   ######         |
 |        #     # #   # # #          #    #       #              |
 |        #     # #    ## #          #    #       #              |
 |        ####### #     # #######    #    ####### #              |
 |                                                               |
 |        Linear-Scaling Ab Initio Total Energy Program          |
 |                                                               |
 |          Release for academic collaborators of ODG            |
 |                                             Version 5.3.2.6.  |
 |                                                               |
 +---------------------------------------------------------------+
 |                                                               |
 |  Authors:                                                     |
 |  Jacek Dziedzic, Peter D. Haynes, Nicholas D. M. Hine,        |
 |  Arash. A. Mostofi, Mike C. Payne and Chris-Kriton Skylaris   |
 |                                                               |
 |  Contributors:                                                |
 |  J. Aarons, L. Andrinopoulos, P. W. Avraam, R. A. Bell,       |
 |  A. Bhandari, G. A. Bramley, R. J. Charlton, S. J. Clark,     |
 |  R. J. Clements, G. C. Constantinescu, F. Corsetti,           |
 |  N. Corsini, O. Dieguez, S. M. M. Dubois, K. K. B. Duff,      |
 |  J. M. Escartin, A. Greco, H. Helal, Q. O. Hill, L. P. Lee,   |
 |  J.-H. Li, E. B. Linscott, G. Moynihan, D. D. O`Regan,        |
 |  O. K. Okan, M. J. S. Phipps, C. J. Pickard,                  |
 |  J. C. A. Prentice, M. I. J. Probert, L. E. Ratcliff,         |
 |  M. Robinson, A. Ruiz Serrano, J. S. Spencer, E. W. Tait,     |
 |  G. Teobaldi, D. Turban, V. Vitale, K. A. Wilkinson,          |
 |  C. Weber, J. C. Womack, N. Yeung and T. J. Zuehlsdorff       |
 |                                                               |
 |                                   Copyright (c) 2004-2019     |
 |                                                               |
 |  Please cite:                                                 |
 |  "Introducing ONETEP: Linear-scaling density functional       |
 |   simulations on parallel computers".                         |
 |   C.-K. Skylaris, P. D. Haynes, A. A. Mostofi, M. C. Payne.   |
 |   J. Chem. Phys. 122 084119 (2005).                           |
 |                                                               |
 |          in all publications arising from your use of ONETEP. |
 |                                                               |
 +---------------------------------------------------------------+
 |                                                               |
 |   ONETEP is based on developments described in the following  |
 |   publications:                                               |
 |                                                               |
 |  "Nonorthogonal generalized Wannier function pseudopotential  |
 |   plane-wave method".                                         |
 |   C.-K. Skylaris, A. A. Mostofi, P. D. Haynes, O. Dieguez,    |
 |   M. C. Payne.                                                |
 |   Phys. Rev. B 66 035119 (2002).                              |
 |                                                               |
 |  "Preconditioned iterative minimization for linear-scaling    |
 |   electronic structure calculations".                         |
 |   A. A. Mostofi, P. D. Haynes, C.-K. Skylaris, M. C. Payne.   |
 |   J. Chem. Phys. 119(17), pp.8842-8848 (2003).                |
 |                                                               |
 |  "Total-energy calculations on a real space grid with         |
 |   localized functions and a plane-wave basis".                |
 |   A. A. Mostofi, C.-K. Skylaris, P. D. Haynes, M. C. Payne.   |
 |   Comput. Phys. Commun. 147, pp.788-802 (2002).               |
 |                                                               |
 |  "Accurate kinetic energy evaluation in electronic structure  |
 |   calculations with localized functions on real space grids"  |
 |   C.-K. Skylaris, A. A. Mostofi, P. D. Haynes, C. J. Pickard, |
 |   M. C. Payne.                                                |
 |   Comput. Phys. Commun. 140, pp.315-322 (2001).               |
 |                                                               |
 |  "Accurate ionic forces and geometry optimization in linear-  |
 |   scaling density-functional theory with local orbitals"      |
 |   N. D. M. Hine, M. Robinson, P. D. Haynes, C.-K. Skylaris,   |
 |   M. C. Payne, and A. A. Mostofi.                             |
 |   Phys. Rev. B 83 195102 (2011).                              |
 |                                                               |
 +---------------------------------------------------------------+

Job started: 25-05-2020 11:32 (+0100)
 
Reading parameters from file "complex_19101.dat" ...... done

If your calculation crashes here, before "Checking processes and threads..."
is displayed, then your stack size is insufficient.
If so, use "ulimit -s unlimited" at runtime.
You can disable this check with "check_stack_size F".

Checking processes and threads...
   Determining the default number of threads...
      No default threads set at compilation time: defaulting to 1.
      OpenMP library call suggests 4 threads.
      Hybrid MPI-OpenMP compilation detected.
      Number of MPI processes > 1.
      OMP_NUM_THREADS environment variable present and
      its value matches the one obtained from the OpenMP library call.
      Using this value as default.
      Default threads: 4
      Default applies to threads_max and threads_num_fftboxes.
      Settings in the input file override this default.
   ... done

   Running with 60 MPI processes.
   There are 6 MPI processes running on the same node as the root process.
   Each MPI process is using: 
               1 threads for simulation cell FFTs.
               1 threads for parallel FFT box operations.
               4 threads for loops over batched FFT box operations.
               4 threads in other parallel regions.
... done

Basic input checks...... done

Reading geometry and species blocks from file "complex_19101.dat" ...
  <species_atomic_set> block not found: NGWF initialisation set to SOLVE
IS: Dielectric excluded regions:
    - NONE.
    
  Number of PPD points along a3 set to 1.  This is 
  the default value, it may have been provided also in the input file.
... done
 Writing xyz coordinates to file "complex_19101.xyz" ... done


--------------------------------------------------------------------------------
---------------------------------- INPUT FILE ----------------------------------
--------------------------------------------------------------------------------

cutoff_energy       : 800 eV                                                    
xc_functional PBE                                                               
task SINGLEPOINT                                                                
write_xyz true                                                                  
output_detail VERBOSE                                                           
ngwf_threshold_orig : 0.000002                                                  
kernel_cutoff       : 1000                                                      
k_zero              : 3.5                                                       
elec_cg_max 0                                                                   
occ_mix 1.0                                                                     
dispersion 1                                                                    
maxit_ngwf_cg 40                                                                
minit_lnv 10                                                                    
maxit_lnv 10                                                                    
write_denskern T                                                                
write_tightbox_ngwfs T                                                          
charge 9                                                                        
is_implicit_solvent T                                                           
is_auto_solvation T                                                             
is_include_apolar T                                                             
is_smeared_ion_rep T                                                            
is_solvent_surf_tension 4.7624E-5 Ha/bohr**2                                    
is_apolar_scaling_factor 0.281075                                               
is_solvation_beta 1.3                                                           
is_density_threshold 0.00035                                                    
is_bulk_permittivity 78.54                                                      
is_dielectric_model fix_initial                                                 
is_smeared_ion_width 0.8                                                        
mg_defco_fd_order 8                                                             
is_bc_coarseness 10                                                             
is_bc_surface_coarseness 1                                                      
fine_grid_scale 2.0                                                             
%block species                                                                  
N   N   7 4 8.0                                                                 
H   H   1 1 8.0                                                                 
C   C   6 4 8.0                                                                 
S   S  16 9 8.0                                                                 
O   O   8 4 8.0                                                                 
%endblock species                                                               
%block species_pot                                                              
N   N_00.recpot                                                                 
H   H_04.recpot                                                                 
C   C_01.recpot                                                                 
S   S_00.recpot                                                                 
O   O_02.recpot                                                                 
%endblock species_pot                                                           
%block lattice_cart                                                             
139.252   0.000   0.000                                                         
0.000 142.425   0.000                                                           
0.000   0.000   162.84                                                          
%endblock lattice_cart                                                          
%block positions_abs                                                            
     Hash =   000006364221765685485112
%endblock positions_abs                                                         

--------------------------------------------------------------------------------
-------------------------------- END INPUT FILE --------------------------------
--------------------------------------------------------------------------------


 
 ESDF WARNING(1): "kernelcutoff" (esdf_physical) has no units. Assume "bohr".
 ESDF WARNING(2): "kzero" (esdf_physical) has no units. Assume "1/bohr".
 ESDF WARNING(3
 ): "issmearedionwidth" (esdf_physical) has no units. Assume "bohr".
<<<<<<<<<<<<<<<<<<<<<<<<<<<<<<<<< Full system >>>>>>>>>>>>>>>>>>>>>>>>>>>>>>>>>>
<<<<<<<<<<<<<<<<<<<<<<<<< Pseudopotential information >>>>>>>>>>>>>>>>>>>>>>>>>>
File: N_00.recpot [ 2001 points up to Gmax=  52.9 (1/bohr)]
  Atomic number:  7;  ionic charge:  5.000000
    Shell 1: l = 0; rc = 1.48 bohr
File: H_04.recpot [ 2001 points up to Gmax=  52.9 (1/bohr)]
  Atomic number:  1;  ionic charge:  1.000000
    Local potential
File: C_01.recpot [ 2001 points up to Gmax=  52.9 (1/bohr)]
  Atomic number:  6;  ionic charge:  4.000000
    Shell 1: l = 0; rc = 1.48 bohr
File: S_00.recpot [ 2001 points up to Gmax=  52.9 (1/bohr)]
  Atomic number: 16;  ionic charge:  6.000000
    Shell 1: l = 0; rc = 1.90 bohr
    Shell 2: l = 2; rc = 1.84 bohr
File: O_02.recpot [ 2001 points up to Gmax=  52.9 (1/bohr)]
  Atomic number:  8;  ionic charge:  6.000000
    Shell 1: l = 0; rc = 1.31 bohr
<<<<<<<<<<<<<<<<<<<<<<<<<<<<<<<<<<<<<<<<>>>>>>>>>>>>>>>>>>>>>>>>>>>>>>>>>>>>>>>>

-------------------------- Atom counting information ---------------------------
Symbol    Natoms    Nngwfs    Nprojs
  N        237       948       237
  H       1318      1318         0
  C        816      3264       816
  S          6        54        36
  O        240       960       240
.......   ......    ......    ......
Totals:   2617      6544      1329
--------------------------------------------------------------------------------

=============================== PSINC grid sizes ===============================
                      Simulation cell:  275 x 280 x 320
                              FFT-box:   99 x  99 x  99
                                  PPD:    5 x   5 x   1
Grid space d1=  0.506370909091a0 (KE cutoff=  29.62556Eh = 806.15239eV)
Grid space d2=  0.508660714286a0 (KE cutoff=  29.35943Eh = 798.91072eV)
Grid space d3=  0.508875000000a0 (KE cutoff=  29.33471Eh = 798.23802eV)
================================================================================

********************* Fourier parallelisation information **********************
       Coarse grid (whole simulation cell) dimensions:    275   280   320
          Real-space ('12') slabs/node (min max mean):      5     6     5
         Recip-space ('23') slabs/node (min max mean):      2     3     2
********************************************************************************

********************* Fourier parallelisation information **********************
       Double grid (whole simulation cell) dimensions:    550   560   640
          Real-space ('12') slabs/node (min max mean):     10    11    10
         Recip-space ('23') slabs/node (min max mean):      4     5     4
********************************************************************************
ONETEP fine grid is 550 x 560 x 640 gridpoints, 139.2520 x 142.4250 x 162.8400 bohr.
FD multigrid is     545 x 553 x 633 gridpoints, 137.9861 x 140.6447 x 161.0589 bohr.


Calculating local pseudopotential in open BC on a radial grid ...
Discrepancy between calculated realspace psloc and -Z/x on [5a0,257.280a0]:
max |rel. diff| # avg |rel. diff| #  avg rel. diff #  f # pseudopotential file
 0.000256370913    0.000003612608   0.000000072509   55  'N_00.recpot'
 0.000395389207    0.000016224277  -0.000000076597   55  'H_04.recpot'
 0.000377360759    0.000017565724   0.000000149252   55  'C_01.recpot'
 0.000469715301    0.000020587835   0.000000455518   55  'S_00.recpot'
 0.000665442002    0.000026079317   0.000000158685   55  'O_02.recpot'
... done

Atom SCF Calculation for N  : Z (AE atom) =   7 : Z (PS atom) =   5
Config String:
Orbitals (num,occ):  2     2.00 3.00
Orbitals   (num,l):  2        0    1
Real-space Grid (nr,dr,rmax): 1203    0.0066555740    8.0000000000
Spherical Bessel Basis (nsws,lmax,cutoff):   47    1  176.3951722778
Confining potential (l,width,scale):  0    3.0000000000  100.0000000000
Confining potential (l,width,scale):  1    3.0000000000  100.0000000000
  1         -4.7312375307   -3.4155304497    7.0523828109   -1.9351020946
  2         -9.7309464766   -2.0532547791    8.2966052865   -2.2494486027
  3         -9.6627394379   -2.1124926340    8.2327997121   -2.2369778124
  4         -9.6814993499   -2.1215521045    8.2229805960   -2.2365178421
  5         -9.6843326483   -2.1250939529    8.2191374534   -2.2362718126
  6         -9.6859628709   -2.1267894855    8.2172963573   -2.2362066344
  7         -9.6867347035   -2.1276425665    8.2163697352   -2.2361903369
  8         -9.6870802100   -2.1280764625    8.2158983890   -2.2361891460
  9         -9.6872290423   -2.1282977424    8.2156580222   -2.2361920435
 10         -9.6872901988   -2.1284107021    8.2155353368   -2.2361953393
 11         -9.6873135296   -2.1284684031    8.2154726809   -2.2361979819
 12         -9.6873212476   -2.1284978948    8.2154406648   -2.2361998431
 13         -9.6873229586   -2.1285129774    8.2154242957   -2.2362010676
 14         -9.6873226456   -2.1285206957    8.2154159216   -2.2362018403
 15         -9.6873218534   -2.1285246479    8.2154116349   -2.2362023142
 16         -9.6873212599   -2.1285262679    8.2154098784   -2.2362025420
 17         -9.6873207834   -2.1285272564    8.2154088068   -2.2362026955
 18         -9.6873204210   -2.1285278596    8.2154081529   -2.2362027982
 19         -9.6873201550   -2.1285282280    8.2154077538   -2.2362028667
 20         -9.6873199645   -2.1285284529    8.2154075102   -2.2362029121
 21         -9.6873198305   -2.1285285903    8.2154073614   -2.2362029421
 22         -9.6873197377   -2.1285286742    8.2154072705   -2.2362029618
Atom SCF converged after  22 iterations to a total energy of     -9.68731974

Atom SCF Calculation for H  : Z (AE atom) =   1 : Z (PS atom) =   1
Config String:
Orbitals (num,occ):  1     1.00
Orbitals   (num,l):  1        0
Real-space Grid (nr,dr,rmax): 1203    0.0066555740    8.0000000000
Spherical Bessel Basis (nsws,lmax,cutoff):   47    0  176.3951722778
Confining potential (l,width,scale):  0    3.0000000000  100.0000000000
  1         -0.3194257691   -0.2393854593    0.2820953124   -0.2424203209
  2         -0.3951823392   -0.2377116493    0.2886404059   -0.2475147891
  3         -0.4317044583   -0.2352244387    0.2921333887   -0.2514046172
  4         -0.4470703708   -0.2341892222    0.2934391879   -0.2531009782
  5         -0.4532132900   -0.2338556667    0.2938388426   -0.2537313520
  6         -0.4556579251   -0.2337612552    0.2939448584   -0.2539550462
  7         -0.4566418315   -0.2337377355    0.2939680120   -0.2540342273
  8         -0.4570437922   -0.2337331116    0.2939708287   -0.2540627372
  9         -0.4572102946   -0.2337328328    0.2939698291   -0.2540732650
 10         -0.4572800424   -0.2337332404    0.2939687193   -0.2540772588
 11         -0.4573095100   -0.2337335791    0.2939680317   -0.2540788122
 12         -0.4573220379   -0.2337337762    0.2939676699   -0.2540794294
 13         -0.4573273880   -0.2337338775    0.2939674931   -0.2540796787
 14         -0.4573296803   -0.2337339266    0.2939674099   -0.2540797808
 15         -0.4573306647   -0.2337339495    0.2939673718   -0.2540798230
 16         -0.4573310882   -0.2337339601    0.2939673545   -0.2540798406
 17         -0.4573312706   -0.2337339649    0.2939673467   -0.2540798479
 18         -0.4573313493   -0.2337339670    0.2939673433   -0.2540798510
Atom SCF converged after  18 iterations to a total energy of     -0.45733135

Atom SCF Calculation for C  : Z (AE atom) =   6 : Z (PS atom) =   4
Config String:
Orbitals (num,occ):  2     2.00 2.00
Orbitals   (num,l):  2        0    1
Real-space Grid (nr,dr,rmax): 1203    0.0066555740    8.0000000000
Spherical Bessel Basis (nsws,lmax,cutoff):   47    1  176.3951722778
Confining potential (l,width,scale):  0    3.0000000000  100.0000000000
Confining potential (l,width,scale):  1    3.0000000000  100.0000000000
  1         -5.2976922011   -1.3069684169    4.5135249990   -1.4493313817
  2         -5.3721716256   -1.3429755895    4.4750154450   -1.4361613026
  3         -5.3809959565   -1.3617365618    4.4541655428   -1.4305930207
  4         -5.3918938866   -1.3667928461    4.4484735100   -1.4294652294
  5         -5.3956096428   -1.3688539142    4.4461376126   -1.4290734646
  6         -5.3968271862   -1.3696852393    4.4451910874   -1.4289366866
  7         -5.3972028401   -1.3700178062    4.4448112275   -1.4288900460
  8         -5.3973067903   -1.3701500158    4.4446598370   -1.4288749220
  9         -5.3973286940   -1.3702023868    4.4445997329   -1.4288704293
 10         -5.3973289850   -1.3702230869    4.4445759233   -1.4288693188
 11         -5.3973254264   -1.3702312560    4.4445665049   -1.4288691775
 12         -5.3973224003   -1.3702344755    4.4445627836   -1.4288692549
 13         -5.3973208708   -1.3702354890    4.4445616088   -1.4288693270
 14         -5.3973198783   -1.3702360102    4.4445610034   -1.4288693814
 15         -5.3973192535   -1.3702362780    4.4445606917   -1.4288694190
 16         -5.3973188684   -1.3702364155    4.4445605313   -1.4288694437
 17         -5.3973186349   -1.3702364860    4.4445604489   -1.4288694595
 18         -5.3973184951   -1.3702365221    4.4445604065   -1.4288694693
 19         -5.3973184122   -1.3702365405    4.4445603848   -1.4288694753
Atom SCF converged after  19 iterations to a total energy of     -5.39731841

Atom SCF Calculation for S  : Z (AE atom) =  16 : Z (PS atom) =   6
Config String:
Orbitals (num,occ):  3     2.00 4.00 0.00
Orbitals   (num,l):  3        0    1    2
Real-space Grid (nr,dr,rmax): 1203    0.0066555740    8.0000000000
Spherical Bessel Basis (nsws,lmax,cutoff):   47    2  176.3951722778
Confining potential (l,width,scale):  0    3.0000000000  100.0000000000
Confining potential (l,width,scale):  1    3.0000000000  100.0000000000
Confining potential (l,width,scale):  2    3.0000000000  100.0000000000
  1        -12.4735062396   -1.0328741412   10.1554312477   -2.4512393157
  2         -9.9458301913   -2.4607392455    8.3041325857   -2.0306994528
  3        -10.1450417646   -2.2931184565    8.4831893826   -2.0812538287
  4        -10.1528335592   -2.2733105793    8.5050388867   -2.0896035179
  5        -10.1571940363   -2.2633716629    8.5160794258   -2.0939370707
  6        -10.1594380571   -2.2584938667    8.5215163935   -2.0961289008
  7        -10.1605856507   -2.2561081821    8.5241804044   -2.0972291378
  8        -10.1611799191   -2.2549395235    8.5254868240   -2.0977806248
  9        -10.1614918752   -2.2543658586    8.5261285885   -2.0980571586
 10        -10.1616572884   -2.2540839121    8.5264441898   -2.0981959233
 11        -10.1617455602   -2.2539453058    8.5265994231   -2.0982656006
 12        -10.1617928447   -2.2538772062    8.5266757320   -2.0983006047
 13        -10.1618182292   -2.2538437891    8.5267131983   -2.0983181961
 14        -10.1618318741   -2.2538274201    8.5267315620   -2.0983270391
 15        -10.1618392144   -2.2538194197    8.5267405433   -2.0983314852
 16        -10.1618431651   -2.2538155200    8.5267449245   -2.0983337210
 17        -10.1618452923   -2.2538136252    8.5267470551   -2.0983348455
 18        -10.1618464380   -2.2538127080    8.5267480875   -2.0983354110
 19        -10.1618470552   -2.2538122659    8.5267485856   -2.0983356955
 20        -10.1618473878   -2.2538120540    8.5267488248   -2.0983358386
 21        -10.1618475670   -2.2538119530    8.5267489389   -2.0983359106
 22        -10.1618476637   -2.2538119053    8.5267489929   -2.0983359468
Atom SCF converged after  22 iterations to a total energy of    -10.16184766

Atom SCF Calculation for O  : Z (AE atom) =   8 : Z (PS atom) =   6
Config String:
Orbitals (num,occ):  2     2.00 4.00
Orbitals   (num,l):  2        0    1
Real-space Grid (nr,dr,rmax): 1203    0.0066555740    8.0000000000
Spherical Bessel Basis (nsws,lmax,cutoff):   47    1  176.3951722778
Confining potential (l,width,scale):  0    3.0000000000  100.0000000000
Confining potential (l,width,scale):  1    3.0000000000  100.0000000000
  1         -1.8735052164   -7.5539365035   10.1554312477   -2.4512393157
  2        -16.0318313751   -3.1285771268   13.6395848164   -3.2358799643
  3        -15.9524020423   -3.0762819706   13.6967272503   -3.2536856837
  4        -15.8521515939   -3.0781493909   13.6951909330   -3.2561700440
  5        -15.8357139793   -3.0748501933   13.6988803334   -3.2580493133
  6        -15.8246052853   -3.0740779781   13.6997881576   -3.2588327446
  7        -15.8189019501   -3.0737449687   13.7001869911   -3.2592378801
  8        -15.8159785510   -3.0736026016   13.7003615168   -3.2594475790
  9        -15.8144776168   -3.0735437994   13.7004360379   -3.2595560735
 10        -15.8137058024   -3.0735207882   13.7004667348   -3.2596122456
 11        -15.8133083127   -3.0735125946   13.7004786868   -3.2596413656
 12        -15.8131032938   -3.0735102195   13.7004828997   -3.2596564858
 13        -15.8129973902   -3.0735099286   13.7004840891   -3.2596643505
 14        -15.8129426040   -3.0735102506   13.7004842061   -3.2596684489
 15        -15.8129142203   -3.0735106556   13.7004840157   -3.2596705887
 16        -15.8128994940   -3.0735109855   13.7004837906   -3.2596717080
 17        -15.8128918425   -3.0735112169   13.7004836103   -3.2596722946
 18        -15.8128878614   -3.0735113674   13.7004834848   -3.2596726026
 19        -15.8128857871   -3.0735114608   13.7004834035   -3.2596727646
 20        -15.8128847048   -3.0735115170   13.7004833533   -3.2596728500
 21        -15.8128841394   -3.0735115501   13.7004833231   -3.2596728951
 22        -15.8128838436   -3.0735115693   13.7004833054   -3.2596729190
 23        -15.8128836887   -3.0735115802   13.7004832951   -3.2596729316
 24        -15.8128836074   -3.0735115864   13.7004832893   -3.2596729383
Atom SCF converged after  24 iterations to a total energy of    -15.81288361

========================== Calculation in vacuum ==============================
= Adjusting the following parameters: 
= is_implicit_solvent: F
= is_include_apolar: F
= write_denskern: T
= write_tightbox_ngwfs: T
= restart read filename prefix: ""
= restart write filename prefix: "vacuum_"
===============================================================================

Determining parallel strategy ...
... using space-filling curve
... NGWF load balancing: max    110;  min    109;  average    109
... Projector load balancing: max     26;  min     21;  average     22
... done
Calculating direct Ion-Ion energy ...
Ion-Ion Energy        :    839338.28082803497091
======================= Empirical dispersion information =======================
Model : Elstner
Dispersion Correction Energy: -0.33205101E+01 Hartree
================================================================================
Basis initialisation ...... NGWF spheres initialised
... Projector spheres initialised
... NGWF tight boxes initialised
... Tight-boxes gathered
... NGWF basis size (local,global):    1384427  83242688
... Nonlocal pseudopotential projector initialisation
... done

========================== Sparse matrix information ===========================
                        Overlap matrix filling:   6.80%
                        Density kernel filling: 100.00%
              NGWF-Proj overlap matrix filling:   1.78%
                    Hamiltonian matrix filling:   7.69%
                  NGWF diagonal matrix filling:   0.05%
                             KS matrix filling: 100.00% 
                           KSKS matrix filling: 100.00% 
================================================================================

Sparse matrix initialisation ... done

Generating smeared ion density ... done
Smeared ion self correction:     -14538.952731
Smeared ion non-self correction: -839290.007772
NGWF initialisation ...... done
============ Calculation of NGWF S^-1 using Hotelling algorithm ================ 
         Iteration  |  Frobenius norm and Maximum abs value    (of I-S*S_n^-1)   
               1       0.78833176E+02     0.98354830E+00
               2       0.77061712E+02     0.96749176E+00
               3       0.74164495E+02     0.93649939E+00
               4       0.69995600E+02     0.87885711E+00
               5       0.64749324E+02     0.77982130E+00
               6       0.58803290E+02     0.71209754E+00
               7       0.52759516E+02     0.67800891E+00
               8       0.47171212E+02     0.64903073E+00
               9       0.41214053E+02     0.61232429E+00
              10       0.33167732E+02     0.54723576E+00
              11       0.22729922E+02     0.44026865E+00
              12       0.11977575E+02     0.29389672E+00
              13       0.41462516E+01     0.13878656E+00
              14       0.70831810E+00     0.35406701E-01
              15       0.37743193E-01     0.29835840E-02
              16       0.25892604E-03     0.30209424E-04
              17       0.26362347E-07     0.43359998E-08
              18       0.10477337E-12     0.59952043E-14
================================================================================
Calculating local pseudopotential in open BC on the fine real space grid ...
... done

MG BCs: +ve charge blocks (gridpoints):     19982 (   15624483).
MG BCs: -ve charge blocks (gridpoints):      7937 (    1061623).
MG BCs:     Elided blocks (gridpoints):    177138 (  174090599).
MG BCs: Computational effort saved:  99.9854%.
MG BCs: Charge after coarse-graining:           -9.0002215.
MG DL_MG: Calling solver with defect correction order = 8
MG DL_MG: Solver finished
MG Hartree energy from (\int phi*rho dr):              1471.349599
MG Hartree energy from (\int eps (grad phi)^2 dr):     1470.725827
MG Discrepancy due to finite box and discretization:     -0.623772 (  -0.04239%)
MG Correction to account for finite box:                  0.463235
MG Remaining discrepancy, due to discretization:         -0.160537 (  -0.01091%)
Up spin density kernel initialisation ... 
======= Optimisation of K by Palser-Manolopoulos canonical purification ======== 
         Iteration  |  Band structure energy |    c_n   
               1       -2600.72457366954268    0.5267157
               2       -2777.79235461942335    0.5169448
               3       -2958.90064679709894    0.5154554
               4       -3109.69210197404891    0.5291572
               5       -3202.10753460048318    0.5650926
               6       -3240.68029617040429    0.6096687
               7       -3253.83444204521993    0.6220903
               8       -3259.54216108244691    0.6215152
               9       -3262.30620991110936    0.6326391
              10       -3263.47560140685982    0.6490127
              11       -3263.94850439716993    0.6603292
              12       -3264.15150239026570    0.6538402
              13       -3264.24948669536116    0.6184540
              14       -3264.30241244791705    0.5533405
              15       -3264.32973813033141    0.4575851
              16       -3264.33781541805911    0.3596986
              17       -3264.33878263454017    0.3268907
              18       -3264.33917116616794    0.3517228
              19       -3264.33952093303742    0.3951165
              20       -3264.33988241242196    0.4433220
              21       -3264.34018723579220    0.4819926
              22       -3264.34035327555785    0.4980846
              23       -3264.34039070446033    0.4999786
              24       -3264.34039230765211    0.5000028
              25       -3264.34039231057159    0.5000028
Termination criterion satisfied: band energy change below threshold.
Final occupancy bounds: [    0.00000000000000:    1.00000000000000]
Closest occupancy to 0.5:     1.00000000000000
================================================================================
... done

Writing density kernel to file "complex_19101.vacuum_dkn" ... done

>>> Optimising kernel for current NGWFs:
   Initial electron number for spin 1:    7234.00000000
     Final electron number for spin 1:    7234.00000000

=================== Penalty functional idempotency correction ==================
 RMS occupancy error at iteration   1:  0.000000 (step -0.5000 Ne1=   7234.0000)
            Final RMS occupancy error   :  0.000000 (Ne1=   7234.0000)
               Final occupancy bounds   : [  0.0000,  1.0000]
================================================================================

................................................................................
<<<<<<<<<<<<<< LNV (Original version) density kernel optimisation >>>>>>>>>>>>>>
~~~~~~~~~~~~~~~~~~~~~~~~~~~~~~~~~~~~~~~~~~~~~~~~~~~~~~~~~~~~~~~~~~~~~~~~~~~~~~~~
   iter  |      energy (Eh)       | rms gradient |  commutator  |   dE (Eh)
MG BCs: +ve charge blocks (gridpoints):     30308 (   16821010).
MG BCs: -ve charge blocks (gridpoints):      8252 (    1094504).
MG BCs:     Elided blocks (gridpoints):    166803 (  172861191).
MG BCs: Computational effort saved:  99.9798%.
MG BCs: Charge after coarse-graining:           -9.0009360.
MG DL_MG: Calling solver with defect correction order = 8
MG DL_MG: Solver finished
MG Hartree energy from (\int phi*rho dr):              1426.222538
MG Hartree energy from (\int eps (grad phi)^2 dr):     1425.539414
MG Discrepancy due to finite box and discretization:     -0.683125 (  -0.04790%)
MG Correction to account for finite box:                  0.477596
MG Remaining discrepancy, due to discretization:         -0.205528 (  -0.01441%)
      ideal mu1:      -0.696162264376
             Q0:  -11568.637643483817
             G0:    -143.893321848351
   RMS gradient:       0.001833061469
MG BCs: +ve charge blocks (gridpoints):     30305 (   16902989).
MG BCs: -ve charge blocks (gridpoints):      8168 (    1075223).
MG BCs:     Elided blocks (gridpoints):    166806 (  172798493).
MG BCs: Computational effort saved:  99.9798%.
MG BCs: Charge after coarse-graining:           -9.0009562.
MG DL_MG: Calling solver with defect correction order = 8
MG DL_MG: Solver finished
MG Hartree energy from (\int phi*rho dr):              1451.061537
MG Hartree energy from (\int eps (grad phi)^2 dr):     1450.395604
MG Discrepancy due to finite box and discretization:     -0.665932 (  -0.04589%)
MG Correction to account for finite box:                  0.476885
MG Remaining discrepancy, due to discretization:         -0.189047 (  -0.01303%)
     Trial step:       0.500000000000
             Q1:  -11580.180506849196
 Quadratic coef:      60.403797558796
 Linear coef   :     -71.946660924175
           Qmin:  -11590.061470409184
Quadratic minimum step length (  0.297773748638) accepted
    Initial Ne1:    7234.00000000
      Final Ne1:    7234.00000000

=================== Penalty functional idempotency correction ==================
 RMS occupancy error at iteration   1:  0.003375 (step -0.4886 Ne1=   7234.0000)
 RMS occupancy error at iteration   2:  0.000027 (step -0.5001 Ne1=   7234.0000)
            Final RMS occupancy error   :  0.000000 (Ne1=   7234.0000)
               Final occupancy bounds   : [  0.0000,  1.0000]
================================================================================

    1        -1.156863764348E+04     1.8331E-03     1.6582E-03
MG BCs: +ve charge blocks (gridpoints):     30308 (   16871165).
MG BCs: -ve charge blocks (gridpoints):      8211 (    1083053).
MG BCs:     Elided blocks (gridpoints):    166804 (  172822487).
MG BCs: Computational effort saved:  99.9798%.
MG BCs: Charge after coarse-graining:           -9.0009485.
MG DL_MG: Calling solver with defect correction order = 8
MG DL_MG: Solver finished
MG Hartree energy from (\int phi*rho dr):              1433.166108
MG Hartree energy from (\int eps (grad phi)^2 dr):     1432.494231
MG Discrepancy due to finite box and discretization:     -0.671877 (  -0.04688%)
MG Correction to account for finite box:                  0.477044
MG Remaining discrepancy, due to discretization:         -0.194833 (  -0.01359%)
      ideal mu1:      -0.739793466711
             Q0:  -11590.455029852339
             G0:     -12.126430578231
   RMS gradient:       0.000528604236
MG BCs: +ve charge blocks (gridpoints):     30315 (   16887733).
MG BCs: -ve charge blocks (gridpoints):      8183 (    1078113).
MG BCs:     Elided blocks (gridpoints):    166796 (  172810859).
MG BCs: Computational effort saved:  99.9798%.
MG BCs: Charge after coarse-graining:           -9.0009522.
MG DL_MG: Calling solver with defect correction order = 8
MG DL_MG: Solver finished
MG Hartree energy from (\int phi*rho dr):              1438.312012
MG Hartree energy from (\int eps (grad phi)^2 dr):     1437.644365
MG Discrepancy due to finite box and discretization:     -0.667647 (  -0.04642%)
MG Correction to account for finite box:                  0.476141
MG Remaining discrepancy, due to discretization:         -0.191506 (  -0.01331%)
     Trial step:       0.385858619599
             Q1:  -11593.295748422388
 Quadratic coef:       1.838369193531
 Linear coef   :      -4.679087763580
           Qmin:  -11593.432378251173
Quadratic minimum step length (  0.491051077170) accepted
    Initial Ne1:    7233.99988777
      Final Ne1:    7234.00000000

=================== Penalty functional idempotency correction ==================
 RMS occupancy error at iteration   1:  0.001789 (step -0.4931 Ne1=   7234.0000)
 RMS occupancy error at iteration   2:  0.000011 (step -0.5002 Ne1=   7234.0000)
            Final RMS occupancy error   :  0.000000 (Ne1=   7234.0000)
               Final occupancy bounds   : [  0.0000,  1.0000]
================================================================================

    2        -1.159045502985E+04     5.2860E-04     4.7818E-04    -2.1817E+01
MG BCs: +ve charge blocks (gridpoints):     30314 (   16892343).
MG BCs: -ve charge blocks (gridpoints):      8169 (    1076721).
MG BCs:     Elided blocks (gridpoints):    166797 (  172807641).
MG BCs: Computational effort saved:  99.9798%.
MG BCs: Charge after coarse-graining:           -9.0009532.
MG DL_MG: Calling solver with defect correction order = 8
MG DL_MG: Solver finished
MG Hartree energy from (\int phi*rho dr):              1439.764881
MG Hartree energy from (\int eps (grad phi)^2 dr):     1439.098309
MG Discrepancy due to finite box and discretization:     -0.666572 (  -0.04630%)
MG Correction to account for finite box:                  0.475909
MG Remaining discrepancy, due to discretization:         -0.190663 (  -0.01324%)
      ideal mu1:      -0.764697803488
             Q0:  -11593.468919626088
             G0:      -1.941258664366
   RMS gradient:       0.000211571557
MG BCs: +ve charge blocks (gridpoints):     30313 (   16891989).
MG BCs: -ve charge blocks (gridpoints):      8183 (    1077650).
MG BCs:     Elided blocks (gridpoints):    166798 (  172807066).
MG BCs: Computational effort saved:  99.9798%.
MG BCs: Charge after coarse-graining:           -9.0009527.
MG DL_MG: Calling solver with defect correction order = 8
MG DL_MG: Solver finished
MG Hartree energy from (\int phi*rho dr):              1437.625868
MG Hartree energy from (\int eps (grad phi)^2 dr):     1436.959988
MG Discrepancy due to finite box and discretization:     -0.665880 (  -0.04632%)
MG Correction to account for finite box:                  0.475436
MG Remaining discrepancy, due to discretization:         -0.190444 (  -0.01325%)
     Trial step:       0.435288744157
             Q1:  -11593.968196432455
 Quadratic coef:       0.345731239728
 Linear coef   :      -0.845008046095
           Qmin:  -11593.985244531039
Quadratic minimum step length (  0.531948590293) accepted
    Initial Ne1:    7233.99993038
      Final Ne1:    7234.00000000

=================== Penalty functional idempotency correction ==================
 RMS occupancy error at iteration   1:  0.000644 (step -0.4970 Ne1=   7234.0000)
 RMS occupancy error at iteration   2:  0.000003 (step -0.5000 Ne1=   7234.0000)
            Final RMS occupancy error   :  0.000000 (Ne1=   7234.0000)
               Final occupancy bounds   : [  0.0000,  1.0000]
================================================================================

    3        -1.159346891963E+04     2.1157E-04     1.9139E-04    -3.0139E+00
MG BCs: +ve charge blocks (gridpoints):     30314 (   16891972).
MG BCs: -ve charge blocks (gridpoints):      8185 (    1077852).
MG BCs:     Elided blocks (gridpoints):    166797 (  172806881).
MG BCs: Computational effort saved:  99.9798%.
MG BCs: Charge after coarse-graining:           -9.0009526.
MG DL_MG: Calling solver with defect correction order = 8
MG DL_MG: Solver finished
MG Hartree energy from (\int phi*rho dr):              1437.160250
MG Hartree energy from (\int eps (grad phi)^2 dr):     1436.494513
MG Discrepancy due to finite box and discretization:     -0.665738 (  -0.04632%)
MG Correction to account for finite box:                  0.475332
MG Remaining discrepancy, due to discretization:         -0.190406 (  -0.01325%)
      ideal mu1:      -0.766129765174
             Q0:  -11593.990072487621
             G0:      -0.508785557547
   RMS gradient:       0.000108439430
MG BCs: +ve charge blocks (gridpoints):     30313 (   16892735).
MG BCs: -ve charge blocks (gridpoints):      8182 (    1077622).
MG BCs:     Elided blocks (gridpoints):    166798 (  172806348).
MG BCs: Computational effort saved:  99.9798%.
MG BCs: Charge after coarse-graining:           -9.0009529.
MG DL_MG: Calling solver with defect correction order = 8
MG DL_MG: Solver finished
MG Hartree energy from (\int phi*rho dr):              1438.412954
MG Hartree energy from (\int eps (grad phi)^2 dr):     1437.747302
MG Discrepancy due to finite box and discretization:     -0.665653 (  -0.04628%)
MG Correction to account for finite box:                  0.475153
MG Remaining discrepancy, due to discretization:         -0.190499 (  -0.01324%)
     Trial step:       0.481197707626
             Q1:  -11594.117972829263
 Quadratic coef:       0.116926102322
 Linear coef   :      -0.244826443965
           Qmin:  -11594.118230329355
Quadratic minimum step length (  0.503779401101) accepted
    Initial Ne1:    7233.99998280
      Final Ne1:    7234.00000000

=================== Penalty functional idempotency correction ==================
 RMS occupancy error at iteration   1:  0.000288 (step -0.4959 Ne1=   7234.0000)
 RMS occupancy error at iteration   2:  0.000003 (step -0.5000 Ne1=   7234.0000)
            Final RMS occupancy error   :  0.000000 (Ne1=   7234.0000)
               Final occupancy bounds   : [  0.0000,  1.0000]
================================================================================

    4        -1.159399007249E+04     1.0844E-04     9.8096E-05    -5.2115E-01
MG BCs: +ve charge blocks (gridpoints):     30313 (   16892780).
MG BCs: -ve charge blocks (gridpoints):      8182 (    1077610).
MG BCs:     Elided blocks (gridpoints):    166798 (  172806315).
MG BCs: Computational effort saved:  99.9798%.
MG BCs: Charge after coarse-graining:           -9.0009529.
MG DL_MG: Calling solver with defect correction order = 8
MG DL_MG: Solver finished
MG Hartree energy from (\int phi*rho dr):              1438.472349
MG Hartree energy from (\int eps (grad phi)^2 dr):     1437.806700
MG Discrepancy due to finite box and discretization:     -0.665649 (  -0.04627%)
MG Correction to account for finite box:                  0.475145
MG Remaining discrepancy, due to discretization:         -0.190504 (  -0.01324%)
      ideal mu1:      -0.766518513648
             Q0:  -11594.118860416114
             G0:      -0.192549511302
   RMS gradient:       0.000066897773
MG BCs: +ve charge blocks (gridpoints):     30313 (   16892984).
MG BCs: -ve charge blocks (gridpoints):      8182 (    1077423).
MG BCs:     Elided blocks (gridpoints):    166798 (  172806298).
MG BCs: Computational effort saved:  99.9798%.
MG BCs: Charge after coarse-graining:           -9.0009527.
MG DL_MG: Calling solver with defect correction order = 8
MG DL_MG: Solver finished
MG Hartree energy from (\int phi*rho dr):              1438.874290
MG Hartree energy from (\int eps (grad phi)^2 dr):     1438.208593
MG Discrepancy due to finite box and discretization:     -0.665697 (  -0.04627%)
MG Correction to account for finite box:                  0.475027
MG Remaining discrepancy, due to discretization:         -0.190670 (  -0.01325%)
     Trial step:       0.492359109755
             Q1:  -11594.180997752352
 Quadratic coef:       0.032666169731
 Linear coef   :      -0.094803505968
           Qmin:  -11594.187644917160
Quadratic minimum step length (  0.714460406361) accepted
    Initial Ne1:    7233.99999072
      Final Ne1:    7234.00000000

=================== Penalty functional idempotency correction ==================
 RMS occupancy error at iteration   1:  0.000475 (step -0.4750 Ne1=   7234.0000)
 RMS occupancy error at iteration   2:  0.000011 (step -0.5001 Ne1=   7234.0000)
            Final RMS occupancy error   :  0.000000 (Ne1=   7234.0000)
               Final occupancy bounds   : [  0.0000,  1.0000]
================================================================================

    5        -1.159411886042E+04     6.6898E-05     6.0517E-05    -1.2879E-01
MG BCs: +ve charge blocks (gridpoints):     30312 (   16893093).
MG BCs: -ve charge blocks (gridpoints):      8181 (    1077276).
MG BCs:     Elided blocks (gridpoints):    166799 (  172806336).
MG BCs: Computational effort saved:  99.9798%.
MG BCs: Charge after coarse-graining:           -9.0009527.
MG DL_MG: Calling solver with defect correction order = 8
MG DL_MG: Solver finished
MG Hartree energy from (\int phi*rho dr):              1439.053633
MG Hartree energy from (\int eps (grad phi)^2 dr):     1438.387916
MG Discrepancy due to finite box and discretization:     -0.665717 (  -0.04626%)
MG Correction to account for finite box:                  0.474973
MG Remaining discrepancy, due to discretization:         -0.190744 (  -0.01325%)
      ideal mu1:      -0.766505797316
             Q0:  -11594.187056841096
             G0:      -0.186596942089
   RMS gradient:       0.000066393506
MG BCs: +ve charge blocks (gridpoints):     30312 (   16892371).
MG BCs: -ve charge blocks (gridpoints):      8184 (    1077663).
MG BCs:     Elided blocks (gridpoints):    166799 (  172806671).
MG BCs: Computational effort saved:  99.9798%.
MG BCs: Charge after coarse-graining:           -9.0009525.
MG DL_MG: Calling solver with defect correction order = 8
MG DL_MG: Solver finished
MG Hartree energy from (\int phi*rho dr):              1437.708762
MG Hartree energy from (\int eps (grad phi)^2 dr):     1437.043194
MG Discrepancy due to finite box and discretization:     -0.665569 (  -0.04629%)
MG Correction to account for finite box:                  0.474843
MG Remaining discrepancy, due to discretization:         -0.190725 (  -0.01327%)
     Trial step:       0.593102933420
             Q1:  -11594.272553945309
 Quadratic coef:       0.025174089507
 Linear coef   :      -0.110671193720
           Qmin:  -11594.308690963313
Quadratic minimum step length (  1.303709705595) accepted
    Initial Ne1:    7233.99991172
      Final Ne1:    7234.00000000

=================== Penalty functional idempotency correction ==================
 RMS occupancy error at iteration   1:  0.004530 (step -0.3143 Ne1=   7234.0000)
 RMS occupancy error at iteration   2:  0.000392 (step -0.4862 Ne1=   7234.0000)
 RMS occupancy error at iteration   3:  0.000012 (step -0.5005 Ne1=   7234.0000)
            Final RMS occupancy error   :  0.000000 (Ne1=   7234.0000)
               Final occupancy bounds   : [  0.0000,  1.0000]
================================================================================

    6        -1.159418705684E+04     6.6394E-05     6.0061E-05    -6.8196E-02
MG BCs: +ve charge blocks (gridpoints):     30314 (   16891449).
MG BCs: -ve charge blocks (gridpoints):      8187 (    1078215).
MG BCs:     Elided blocks (gridpoints):    166797 (  172807041).
MG BCs: Computational effort saved:  99.9798%.
MG BCs: Charge after coarse-graining:           -9.0009523.
MG DL_MG: Calling solver with defect correction order = 8
MG DL_MG: Solver finished
MG Hartree energy from (\int phi*rho dr):              1436.114197
MG Hartree energy from (\int eps (grad phi)^2 dr):     1435.448786
MG Discrepancy due to finite box and discretization:     -0.665411 (  -0.04633%)
MG Correction to account for finite box:                  0.474708
MG Remaining discrepancy, due to discretization:         -0.190702 (  -0.01328%)
      ideal mu1:      -0.766236349765
             Q0:  -11594.278970961226
             G0:      -0.405496154581
   RMS gradient:       0.000097308343
MG BCs: +ve charge blocks (gridpoints):     30309 (   16894287).
MG BCs: -ve charge blocks (gridpoints):      8176 (    1076741).
MG BCs:     Elided blocks (gridpoints):    166802 (  172805677).
MG BCs: Computational effort saved:  99.9798%.
MG BCs: Charge after coarse-graining:           -9.0009533.
MG DL_MG: Calling solver with defect correction order = 8
MG DL_MG: Solver finished
MG Hartree energy from (\int phi*rho dr):              1440.228415
MG Hartree energy from (\int eps (grad phi)^2 dr):     1439.563349
MG Discrepancy due to finite box and discretization:     -0.665066 (  -0.04618%)
MG Correction to account for finite box:                  0.474572
MG Remaining discrepancy, due to discretization:         -0.190494 (  -0.01323%)
     Trial step:       0.879337279271
             Q1:  -11594.384022343438
 Quadratic coef:       0.251516503113
 Linear coef   :      -0.356567885324
           Qmin:  -11594.405345031388
Quadratic minimum step length (  0.623305887041) accepted
    Initial Ne1:    7233.99989466
      Final Ne1:    7234.00000000

=================== Penalty functional idempotency correction ==================
 RMS occupancy error at iteration   1:  0.000206 (step -0.4878 Ne1=   7234.0000)
 RMS occupancy error at iteration   2:  0.000001 (step -0.5000 Ne1=   7234.0000)
            Final RMS occupancy error   :  0.000000 (Ne1=   7234.0000)
               Final occupancy bounds   : [  0.0000,  1.0000]
================================================================================

    7        -1.159427897096E+04     9.7308E-05     8.8027E-05    -9.1914E-02
MG BCs: +ve charge blocks (gridpoints):     30313 (   16893576).
MG BCs: -ve charge blocks (gridpoints):      8179 (    1077121).
MG BCs:     Elided blocks (gridpoints):    166798 (  172806008).
MG BCs: Computational effort saved:  99.9798%.
MG BCs: Charge after coarse-graining:           -9.0009530.
MG DL_MG: Calling solver with defect correction order = 8
MG DL_MG: Solver finished
MG Hartree energy from (\int phi*rho dr):              1439.024715
MG Hartree energy from (\int eps (grad phi)^2 dr):     1438.359550
MG Discrepancy due to finite box and discretization:     -0.665165 (  -0.04622%)
MG Correction to account for finite box:                  0.474612
MG Remaining discrepancy, due to discretization:         -0.190553 (  -0.01324%)
      ideal mu1:      -0.767617427742
             Q0:  -11594.405690143118
             G0:      -0.279724210414
   RMS gradient:       0.000080718371
MG BCs: +ve charge blocks (gridpoints):     30314 (   16893481).
MG BCs: -ve charge blocks (gridpoints):      8180 (    1077229).
MG BCs:     Elided blocks (gridpoints):    166797 (  172805995).
MG BCs: Computational effort saved:  99.9798%.
MG BCs: Charge after coarse-graining:           -9.0009531.
MG DL_MG: Calling solver with defect correction order = 8
MG DL_MG: Solver finished
MG Hartree energy from (\int phi*rho dr):              1438.743071
MG Hartree energy from (\int eps (grad phi)^2 dr):     1438.078072
MG Discrepancy due to finite box and discretization:     -0.664999 (  -0.04622%)
MG Correction to account for finite box:                  0.474641
MG Remaining discrepancy, due to discretization:         -0.190359 (  -0.01323%)
     Trial step:       0.740335128752
             Q1:  -11594.522046443424
 Quadratic coef:       0.090733359026
 Linear coef   :      -0.207089659332
           Qmin:  -11594.523855411831
Quadratic minimum step length (  0.844869798997) accepted
    Initial Ne1:    7233.99990150
      Final Ne1:    7234.00000000

=================== Penalty functional idempotency correction ==================
 RMS occupancy error at iteration   1:  0.001508 (step -0.4224 Ne1=   7234.0000)
 RMS occupancy error at iteration   2:  0.000038 (step -0.4995 Ne1=   7234.0000)
            Final RMS occupancy error   :  0.000000 (Ne1=   7234.0000)
               Final occupancy bounds   : [ -0.0000,  1.0000]
================================================================================

    8        -1.159440569014E+04     8.0718E-05     7.3019E-05    -1.2672E-01
MG BCs: +ve charge blocks (gridpoints):     30313 (   16893534).
MG BCs: -ve charge blocks (gridpoints):      8179 (    1077208).
MG BCs:     Elided blocks (gridpoints):    166798 (  172805963).
MG BCs: Computational effort saved:  99.9798%.
MG BCs: Charge after coarse-graining:           -9.0009531.
MG DL_MG: Calling solver with defect correction order = 8
MG DL_MG: Solver finished
MG Hartree energy from (\int phi*rho dr):              1438.707708
MG Hartree energy from (\int eps (grad phi)^2 dr):     1438.042732
MG Discrepancy due to finite box and discretization:     -0.664976 (  -0.04622%)
MG Correction to account for finite box:                  0.474644
MG Remaining discrepancy, due to discretization:         -0.190332 (  -0.01323%)
      ideal mu1:      -0.767230030805
             Q0:  -11594.522981475224
             G0:      -0.267373168788
   RMS gradient:       0.000079099992
MG BCs: +ve charge blocks (gridpoints):     30312 (   16892367).
MG BCs: -ve charge blocks (gridpoints):      8183 (    1077866).
MG BCs:     Elided blocks (gridpoints):    166799 (  172806472).
MG BCs: Computational effort saved:  99.9798%.
MG BCs: Charge after coarse-graining:           -9.0009527.
MG DL_MG: Calling solver with defect correction order = 8
MG DL_MG: Solver finished
MG Hartree energy from (\int phi*rho dr):              1437.069555
MG Hartree energy from (\int eps (grad phi)^2 dr):     1436.404678
MG Discrepancy due to finite box and discretization:     -0.664877 (  -0.04627%)
MG Correction to account for finite box:                  0.474624
MG Remaining discrepancy, due to discretization:         -0.190253 (  -0.01324%)
     Trial step:       0.790877229044
             Q1:  -11594.600556310499
 Quadratic coef:       0.133884515577
 Linear coef   :      -0.211459350852
           Qmin:  -11594.606477047639
Quadratic minimum step length (  0.624562088963) accepted
    Initial Ne1:    7234.00017655
      Final Ne1:    7234.00000000

=================== Penalty functional idempotency correction ==================
 RMS occupancy error at iteration   1:  0.002901 (step -0.3724 Ne1=   7234.0000)
 RMS occupancy error at iteration   2:  0.000079 (step -0.4992 Ne1=   7234.0000)
 RMS occupancy error at iteration   3:  0.000000 (step -0.5000 Ne1=   7234.0000)
            Final RMS occupancy error   :  0.000000 (Ne1=   7234.0000)
               Final occupancy bounds   : [  0.0000,  1.0000]
================================================================================

    9        -1.159452298148E+04     7.9100E-05     7.1555E-05    -1.1729E-01
MG BCs: +ve charge blocks (gridpoints):     30313 (   16892630).
MG BCs: -ve charge blocks (gridpoints):      8184 (    1077667).
MG BCs:     Elided blocks (gridpoints):    166798 (  172806408).
MG BCs: Computational effort saved:  99.9798%.
MG BCs: Charge after coarse-graining:           -9.0009528.
MG DL_MG: Calling solver with defect correction order = 8
MG DL_MG: Solver finished
MG Hartree energy from (\int phi*rho dr):              1437.407988
MG Hartree energy from (\int eps (grad phi)^2 dr):     1436.743089
MG Discrepancy due to finite box and discretization:     -0.664899 (  -0.04626%)
MG Correction to account for finite box:                  0.474634
MG Remaining discrepancy, due to discretization:         -0.190265 (  -0.01324%)
      ideal mu1:      -0.766201766171
   10        -1.159461202197E+04     6.0833E-05     5.5030E-05    -8.9040E-02
Finished density kernel iterations (  10)

Writing density kernel to file "complex_19101.vacuum_dkn" ... done


>>> Density kernel optimised for the current NGWF basis:
     ~~~~~~~~~~~~~~~~~~~~~~~~~~~~~~~~~~~~~~~~~~~~~~~~~~~~~~~~~~~
     Total energy                =  -1.15946120219699E+04  Eh
     Estimated bandgap           =  -4.5296E-01  Eh
     RMS occupancy error         =   2.3913E-11
     [H,K] commutator            =   5.5030E-05
     Occupancy bounds            = [  0.000:  1.000]
     ~~~~~~~~~~~~~~~~~~~~~~~~~~~~~~~~~~~~~~~~~~~~~~~~~~~~~~~~~~~




################################################################################
########################### NGWF CG iteration  001 #############################
################################################################################
****** Reciprocal space K.E. preconditioning with k_zero =  3.5000 a0^-1 *******

>>> Checking for convergence of NGWFs:   NOT CONVERGED
  ========================================================================
         NGWF RMS gradient =  1.6328E-03 >  2.0000E-06  | above tolerance
  ========================================================================

>>> Improving NGWFs using line search:
============ Calculation of NGWF S^-1 using Hotelling algorithm ================ 
         Iteration  |  Frobenius norm and Maximum abs value    (of I-S*S_n^-1)   
               1       0.20495811E+00     0.57104238E-02
               2       0.98185408E-03     0.47088038E-04
               3       0.39055532E-07     0.31602475E-08
               4       0.12926936E-12     0.71054274E-14
================================================================================
MG BCs: +ve charge blocks (gridpoints):     29865 (   16833574).
MG BCs: -ve charge blocks (gridpoints):      8195 (    1077582).
MG BCs:     Elided blocks (gridpoints):    167247 (  172865549).
MG BCs: Computational effort saved:  99.9800%.
MG BCs: Charge after coarse-graining:           -9.0009586.
MG DL_MG: Calling solver with defect correction order = 8
MG DL_MG: Solver finished
MG Hartree energy from (\int phi*rho dr):              1404.993481
MG Hartree energy from (\int eps (grad phi)^2 dr):     1404.329535
MG Discrepancy due to finite box and discretization:     -0.663946 (  -0.04726%)
MG Correction to account for finite box:                  0.474537
MG Remaining discrepancy, due to discretization:         -0.189409 (  -0.01348%)
============ Calculation of NGWF S^-1 using Hotelling algorithm ================ 
         Iteration  |  Frobenius norm and Maximum abs value    (of I-S*S_n^-1)   
               1       0.18412752E+01     0.43317289E-01
               2       0.70542657E-01     0.24835936E-02
               3       0.14275885E-03     0.88604078E-05
               4       0.10928115E-08     0.11514845E-09
               5       0.11098395E-12     0.53290705E-14
================================================================================
------------------------------- NGWF line search -------------------------------
RMS gradient                =       0.00163276063714
Trial step length           =               0.122474
Gradient along search dir.  =       -285.45578288213
Functional at step 0        =  -11594.61202196986414
Functional at step 1        =  -11626.82743651594501
Functional predicted        =  -11705.90454504346781
Selected quadratic step     =               0.779753
--------------------------- NGWF line search finished --------------------------
                                               
Writing NGWFs to file "complex_19101.vacuum_tightbox_ngwfs"....  done

>>> Optimising kernel for current NGWFs:
   Initial electron number for spin 1:    7268.89843654
     Final electron number for spin 1:    7234.00000000

=================== Penalty functional idempotency correction ==================
 RMS occupancy error at iteration   1:  0.004354 (step -0.4853 Ne1=   7234.0000)
 RMS occupancy error at iteration   2:  0.000075 (step -0.5002 Ne1=   7234.0000)
            Final RMS occupancy error   :  0.000000 (Ne1=   7234.0000)
               Final occupancy bounds   : [  0.0000,  1.0000]
================================================================================

................................................................................
<<<<<<<<<<<<<< LNV (Original version) density kernel optimisation >>>>>>>>>>>>>>
~~~~~~~~~~~~~~~~~~~~~~~~~~~~~~~~~~~~~~~~~~~~~~~~~~~~~~~~~~~~~~~~~~~~~~~~~~~~~~~~
   iter  |      energy (Eh)       | rms gradient |  commutator  |   dE (Eh)
MG BCs: +ve charge blocks (gridpoints):     24275 (   16515493).
MG BCs: -ve charge blocks (gridpoints):      8340 (    1061372).
MG BCs:     Elided blocks (gridpoints):    172845 (  173199840).
MG BCs: Computational effort saved:  99.9829%.
MG BCs: Charge after coarse-graining:           -9.0006733.
MG DL_MG: Calling solver with defect correction order = 8
MG DL_MG: Solver finished
MG Hartree energy from (\int phi*rho dr):              1252.787281
MG Hartree energy from (\int eps (grad phi)^2 dr):     1252.123459
MG Discrepancy due to finite box and discretization:     -0.663822 (  -0.05299%)
MG Correction to account for finite box:                  0.474104
MG Remaining discrepancy, due to discretization:         -0.189718 (  -0.01514%)
      ideal mu1:      -0.707375695815
             Q0:  -11705.136346645071
             G0:      -9.832551915640
   RMS gradient:       0.000479170236
MG BCs: +ve charge blocks (gridpoints):     24318 (   16529206).
MG BCs: -ve charge blocks (gridpoints):      8323 (    1058204).
MG BCs:     Elided blocks (gridpoints):    172802 (  173189295).
MG BCs: Computational effort saved:  99.9829%.
MG BCs: Charge after coarse-graining:           -9.0006688.
MG DL_MG: Calling solver with defect correction order = 8
MG DL_MG: Solver finished
MG Hartree energy from (\int phi*rho dr):              1267.880691
MG Hartree energy from (\int eps (grad phi)^2 dr):     1267.212001
MG Discrepancy due to finite box and discretization:     -0.668690 (  -0.05274%)
MG Correction to account for finite box:                  0.472964
MG Remaining discrepancy, due to discretization:         -0.195726 (  -0.01544%)
     Trial step:       0.702817141428
             Q1:  -11704.723499711952
 Quadratic coef:       7.323332963408
 Linear coef   :      -6.910486030289
           Qmin:  -11706.766574896792
Quadratic minimum step length (  0.331598198658) accepted
    Initial Ne1:    7233.99954073
      Final Ne1:    7234.00000000

=================== Penalty functional idempotency correction ==================
 RMS occupancy error at iteration   1:  0.000356 (step -0.4986 Ne1=   7234.0000)
 RMS occupancy error at iteration   2:  0.000000 (step -0.5000 Ne1=   7234.0000)
            Final RMS occupancy error   :  0.000000 (Ne1=   7234.0000)
               Final occupancy bounds   : [  0.0000,  1.0000]
================================================================================

    1        -1.170513634665E+04     4.7917E-04     4.3347E-04
MG BCs: +ve charge blocks (gridpoints):     24295 (   16522178).
MG BCs: -ve charge blocks (gridpoints):      8328 (    1059849).
MG BCs:     Elided blocks (gridpoints):    172825 (  173194678).
MG BCs: Computational effort saved:  99.9829%.
MG BCs: Charge after coarse-graining:           -9.0006711.
MG DL_MG: Calling solver with defect correction order = 8
MG DL_MG: Solver finished
MG Hartree energy from (\int phi*rho dr):              1259.011396
MG Hartree energy from (\int eps (grad phi)^2 dr):     1258.345385
MG Discrepancy due to finite box and discretization:     -0.666010 (  -0.05290%)
MG Correction to account for finite box:                  0.473532
MG Remaining discrepancy, due to discretization:         -0.192478 (  -0.01529%)
      ideal mu1:      -0.713970717691
             Q0:  -11706.742770878132
             G0:      -1.030916187071
   RMS gradient:       0.000155744029
MG BCs: +ve charge blocks (gridpoints):     24297 (   16521540).
MG BCs: -ve charge blocks (gridpoints):      8332 (    1060711).
MG BCs:     Elided blocks (gridpoints):    172823 (  173194454).
MG BCs: Computational effort saved:  99.9829%.
MG BCs: Charge after coarse-graining:           -9.0006710.
MG DL_MG: Calling solver with defect correction order = 8
MG DL_MG: Solver finished
MG Hartree energy from (\int phi*rho dr):              1259.972160
MG Hartree energy from (\int eps (grad phi)^2 dr):     1259.305891
MG Discrepancy due to finite box and discretization:     -0.666268 (  -0.05288%)
MG Correction to account for finite box:                  0.473360
MG Remaining discrepancy, due to discretization:         -0.192908 (  -0.01531%)
     Trial step:       0.482755526207
             Q1:  -11706.962764014956
 Quadratic coef:       0.277687349542
 Linear coef   :      -0.497680486365
           Qmin:  -11706.965760750481
Quadratic minimum step length (  0.432605240163) accepted
    Initial Ne1:    7233.99993669
      Final Ne1:    7234.00000000

=================== Penalty functional idempotency correction ==================
 RMS occupancy error at iteration   1:  0.000157 (step -0.4992 Ne1=   7234.0000)
 RMS occupancy error at iteration   2:  0.000000 (step -0.5000 Ne1=   7234.0000)
            Final RMS occupancy error   :  0.000000 (Ne1=   7234.0000)
               Final occupancy bounds   : [  0.0000,  1.0000]
================================================================================

    2        -1.170674277088E+04     1.5574E-04     1.4089E-04    -1.6064E+00
MG BCs: +ve charge blocks (gridpoints):     24297 (   16521576).
MG BCs: -ve charge blocks (gridpoints):      8332 (    1060641).
MG BCs:     Elided blocks (gridpoints):    172823 (  173194488).
MG BCs: Computational effort saved:  99.9829%.
MG BCs: Charge after coarse-graining:           -9.0006710.
MG DL_MG: Calling solver with defect correction order = 8
MG DL_MG: Solver finished
MG Hartree energy from (\int phi*rho dr):              1259.872295
MG Hartree energy from (\int eps (grad phi)^2 dr):     1259.206055
MG Discrepancy due to finite box and discretization:     -0.666240 (  -0.05288%)
MG Correction to account for finite box:                  0.473378
MG Remaining discrepancy, due to discretization:         -0.192862 (  -0.01531%)
      ideal mu1:      -0.714753094006
             Q0:  -11706.966238648281
             G0:      -0.175171110897
   RMS gradient:       0.000063887421
MG BCs: +ve charge blocks (gridpoints):     24297 (   16520756).
MG BCs: -ve charge blocks (gridpoints):      8333 (    1061092).
MG BCs:     Elided blocks (gridpoints):    172823 (  173194857).
MG BCs: Computational effort saved:  99.9829%.
MG BCs: Charge after coarse-graining:           -9.0006710.
MG DL_MG: Calling solver with defect correction order = 8
MG DL_MG: Solver finished
MG Hartree energy from (\int phi*rho dr):              1259.314904
MG Hartree energy from (\int eps (grad phi)^2 dr):     1258.648805
MG Discrepancy due to finite box and discretization:     -0.666099 (  -0.05289%)
MG Correction to account for finite box:                  0.473252
MG Remaining discrepancy, due to discretization:         -0.192847 (  -0.01531%)
     Trial step:       0.456992965323
             Q1:  -11707.021654551383
 Quadratic coef:       0.024636062306
 Linear coef   :      -0.080051965408
           Qmin:  -11707.031268492399
Quadratic minimum step length (  0.742472246526) accepted
    Initial Ne1:    7233.99998171
      Final Ne1:    7234.00000000

=================== Penalty functional idempotency correction ==================
 RMS occupancy error at iteration   1:  0.000173 (step -0.4925 Ne1=   7234.0000)
 RMS occupancy error at iteration   2:  0.000001 (step -0.5000 Ne1=   7234.0000)
            Final RMS occupancy error   :  0.000000 (Ne1=   7234.0000)
               Final occupancy bounds   : [  0.0000,  1.0000]
================================================================================

    3        -1.170696623865E+04     6.3887E-05     5.7794E-05    -2.2347E-01
MG BCs: +ve charge blocks (gridpoints):     24294 (   16520218).
MG BCs: -ve charge blocks (gridpoints):      8335 (    1061399).
MG BCs:     Elided blocks (gridpoints):    172826 (  173195088).
MG BCs: Computational effort saved:  99.9829%.
MG BCs: Charge after coarse-graining:           -9.0006711.
MG DL_MG: Calling solver with defect correction order = 8
MG DL_MG: Solver finished
MG Hartree energy from (\int phi*rho dr):              1258.966659
MG Hartree energy from (\int eps (grad phi)^2 dr):     1258.300649
MG Discrepancy due to finite box and discretization:     -0.666010 (  -0.05290%)
MG Correction to account for finite box:                  0.473172
MG Remaining discrepancy, due to discretization:         -0.192838 (  -0.01532%)
      ideal mu1:      -0.713748481934
             Q0:  -11707.031338069472
             G0:      -0.073768659895
   RMS gradient:       0.000041453995
MG BCs: +ve charge blocks (gridpoints):     24296 (   16520197).
MG BCs: -ve charge blocks (gridpoints):      8335 (    1061394).
MG BCs:     Elided blocks (gridpoints):    172824 (  173195114).
MG BCs: Computational effort saved:  99.9829%.
MG BCs: Charge after coarse-graining:           -9.0006711.
MG DL_MG: Calling solver with defect correction order = 8
MG DL_MG: Solver finished
MG Hartree energy from (\int phi*rho dr):              1259.015370
MG Hartree energy from (\int eps (grad phi)^2 dr):     1258.349623
MG Discrepancy due to finite box and discretization:     -0.665747 (  -0.05288%)
MG Correction to account for finite box:                  0.473047
MG Remaining discrepancy, due to discretization:         -0.192700 (  -0.01531%)
     Trial step:       0.582498578205
             Q1:  -11707.058601870784
 Quadratic coef:       0.015706338192
 Linear coef   :      -0.042970139505
           Qmin:  -11707.060728002161
Quadratic minimum step length (  0.796813517598) accepted
    Initial Ne1:    7233.99999140
      Final Ne1:    7234.00000000

=================== Penalty functional idempotency correction ==================
 RMS occupancy error at iteration   1:  0.000334 (step -0.4808 Ne1=   7234.0000)
 RMS occupancy error at iteration   2:  0.000003 (step -0.5000 Ne1=   7234.0000)
            Final RMS occupancy error   :  0.000000 (Ne1=   7234.0000)
               Final occupancy bounds   : [  0.0000,  1.0000]
================================================================================

    4        -1.170703133807E+04     4.1454E-05     3.7500E-05    -6.5099E-02
MG BCs: +ve charge blocks (gridpoints):     24297 (   16520201).
MG BCs: -ve charge blocks (gridpoints):      8336 (    1061393).
MG BCs:     Elided blocks (gridpoints):    172823 (  173195111).
MG BCs: Computational effort saved:  99.9829%.
MG BCs: Charge after coarse-graining:           -9.0006711.
MG DL_MG: Calling solver with defect correction order = 8
MG DL_MG: Solver finished
MG Hartree energy from (\int phi*rho dr):              1259.034753
MG Hartree energy from (\int eps (grad phi)^2 dr):     1258.369105
MG Discrepancy due to finite box and discretization:     -0.665648 (  -0.05287%)
MG Correction to account for finite box:                  0.472998
MG Remaining discrepancy, due to discretization:         -0.192650 (  -0.01530%)
      ideal mu1:      -0.714270914943
             Q0:  -11707.060657343012
             G0:      -0.077769878064
   RMS gradient:       0.000042591827
MG BCs: +ve charge blocks (gridpoints):     24297 (   16521695).
MG BCs: -ve charge blocks (gridpoints):      8333 (    1060862).
MG BCs:     Elided blocks (gridpoints):    172823 (  173194148).
MG BCs: Computational effort saved:  99.9829%.
MG BCs: Charge after coarse-graining:           -9.0006708.
MG DL_MG: Calling solver with defect correction order = 8
MG DL_MG: Solver finished
MG Hartree energy from (\int phi*rho dr):              1259.983711
MG Hartree energy from (\int eps (grad phi)^2 dr):     1259.318421
MG Discrepancy due to finite box and discretization:     -0.665290 (  -0.05280%)
MG Correction to account for finite box:                  0.472736
MG Remaining discrepancy, due to discretization:         -0.192555 (  -0.01528%)
     Trial step:       0.681280222152
             Q1:  -11707.093304472393
 Quadratic coef:       0.020335950423
 Linear coef   :      -0.052983079804
           Qmin:  -11707.095167738238
Quadratic minimum step length (  0.887500304346) accepted
    Initial Ne1:    7233.99998863
      Final Ne1:    7234.00000000

=================== Penalty functional idempotency correction ==================
 RMS occupancy error at iteration   1:  0.001301 (step -0.4321 Ne1=   7234.0000)
 RMS occupancy error at iteration   2:  0.000023 (step -0.4998 Ne1=   7234.0000)
            Final RMS occupancy error   :  0.000000 (Ne1=   7234.0000)
               Final occupancy bounds   : [ -0.0000,  1.0000]
================================================================================

    5        -1.170706065734E+04     4.2592E-05     3.8529E-05    -2.9319E-02
MG BCs: +ve charge blocks (gridpoints):     24297 (   16522128).
MG BCs: -ve charge blocks (gridpoints):      8331 (    1060716).
MG BCs:     Elided blocks (gridpoints):    172823 (  173193861).
MG BCs: Computational effort saved:  99.9829%.
MG BCs: Charge after coarse-graining:           -9.0006707.
MG DL_MG: Calling solver with defect correction order = 8
MG DL_MG: Solver finished
MG Hartree energy from (\int phi*rho dr):              1260.273392
MG Hartree energy from (\int eps (grad phi)^2 dr):     1259.608205
MG Discrepancy due to finite box and discretization:     -0.665187 (  -0.05278%)
MG Correction to account for finite box:                  0.472661
MG Remaining discrepancy, due to discretization:         -0.192526 (  -0.01528%)
      ideal mu1:      -0.716020051432
             Q0:  -11707.095094745397
             G0:      -0.082399419714
   RMS gradient:       0.000043268297
MG BCs: +ve charge blocks (gridpoints):     24298 (   16522222).
MG BCs: -ve charge blocks (gridpoints):      8329 (    1060770).
MG BCs:     Elided blocks (gridpoints):    172822 (  173193713).
MG BCs: Computational effort saved:  99.9829%.
MG BCs: Charge after coarse-graining:           -9.0006707.
MG DL_MG: Calling solver with defect correction order = 8
MG DL_MG: Solver finished
MG Hartree energy from (\int phi*rho dr):              1259.999028
MG Hartree energy from (\int eps (grad phi)^2 dr):     1259.334276
MG Discrepancy due to finite box and discretization:     -0.664752 (  -0.05276%)
MG Correction to account for finite box:                  0.472212
MG Remaining discrepancy, due to discretization:         -0.192541 (  -0.01528%)
     Trial step:       0.777583696141
             Q1:  -11707.134052094771
 Quadratic coef:       0.025115095967
 Linear coef   :      -0.064072445341
           Qmin:  -11707.135959393669
Quadratic minimum step length (  0.991867379983) accepted
    Initial Ne1:    7234.00007283
      Final Ne1:    7234.00000000

=================== Penalty functional idempotency correction ==================
 RMS occupancy error at iteration   1:  0.003592 (step -0.3510 Ne1=   7234.0000)
 RMS occupancy error at iteration   2:  0.000107 (step -0.4986 Ne1=   7234.0000)
 RMS occupancy error at iteration   3:  0.000001 (step -0.5000 Ne1=   7234.0000)
            Final RMS occupancy error   :  0.000000 (Ne1=   7234.0000)
               Final occupancy bounds   : [  0.0000,  1.0000]
================================================================================

    6        -1.170709509475E+04     4.3268E-05     3.9141E-05    -3.4437E-02
MG BCs: +ve charge blocks (gridpoints):     24298 (   16522174).
MG BCs: -ve charge blocks (gridpoints):      8330 (    1060874).
MG BCs:     Elided blocks (gridpoints):    172822 (  173193657).
MG BCs: Computational effort saved:  99.9829%.
MG BCs: Charge after coarse-graining:           -9.0006706.
MG DL_MG: Calling solver with defect correction order = 8
MG DL_MG: Solver finished
MG Hartree energy from (\int phi*rho dr):              1259.926671
MG Hartree energy from (\int eps (grad phi)^2 dr):     1259.261998
MG Discrepancy due to finite box and discretization:     -0.664674 (  -0.05275%)
MG Correction to account for finite box:                  0.472129
MG Remaining discrepancy, due to discretization:         -0.192545 (  -0.01528%)
      ideal mu1:      -0.716289060237
             Q0:  -11707.138309351751
             G0:      -0.082173249129
   RMS gradient:       0.000043804824
MG BCs: +ve charge blocks (gridpoints):     24297 (   16520064).
MG BCs: -ve charge blocks (gridpoints):      8334 (    1061441).
MG BCs:     Elided blocks (gridpoints):    172823 (  173195200).
MG BCs: Computational effort saved:  99.9829%.
MG BCs: Charge after coarse-graining:           -9.0006711.
MG DL_MG: Calling solver with defect correction order = 8
MG DL_MG: Solver finished
MG Hartree energy from (\int phi*rho dr):              1258.903955
MG Hartree energy from (\int eps (grad phi)^2 dr):     1258.239243
MG Discrepancy due to finite box and discretization:     -0.664713 (  -0.05280%)
MG Correction to account for finite box:                  0.472100
MG Remaining discrepancy, due to discretization:         -0.192612 (  -0.01530%)
     Trial step:       0.878214041911
             Q1:  -11707.163653716794
 Quadratic coef:       0.046821336211
 Linear coef   :      -0.072165701255
           Qmin:  -11707.166116591243
Quadratic minimum step length (  0.676795423999) accepted
    Initial Ne1:    7233.99999983
      Final Ne1:    7234.00000000

=================== Penalty functional idempotency correction ==================
 RMS occupancy error at iteration   1:  0.000063 (step -0.4959 Ne1=   7234.0000)
            Final RMS occupancy error   :  0.000000 (Ne1=   7234.0000)
               Final occupancy bounds   : [ -0.0000,  1.0000]
================================================================================

    7        -1.170713830935E+04     4.3805E-05     3.9627E-05    -4.3215E-02
MG BCs: +ve charge blocks (gridpoints):     24298 (   16520549).
MG BCs: -ve charge blocks (gridpoints):      8334 (    1061310).
MG BCs:     Elided blocks (gridpoints):    172822 (  173194846).
MG BCs: Computational effort saved:  99.9829%.
MG BCs: Charge after coarse-graining:           -9.0006710.
MG DL_MG: Calling solver with defect correction order = 8
MG DL_MG: Solver finished
MG Hartree energy from (\int phi*rho dr):              1259.136494
MG Hartree energy from (\int eps (grad phi)^2 dr):     1258.471788
MG Discrepancy due to finite box and discretization:     -0.664706 (  -0.05279%)
MG Correction to account for finite box:                  0.472110
MG Remaining discrepancy, due to discretization:         -0.192597 (  -0.01530%)
      ideal mu1:      -0.715427099323
             Q0:  -11707.166138914996
             G0:      -0.075633071840
   RMS gradient:       0.000042014220
MG BCs: +ve charge blocks (gridpoints):     24298 (   16520342).
MG BCs: -ve charge blocks (gridpoints):      8334 (    1061329).
MG BCs:     Elided blocks (gridpoints):    172822 (  173195034).
MG BCs: Computational effort saved:  99.9829%.
MG BCs: Charge after coarse-graining:           -9.0006711.
MG DL_MG: Calling solver with defect correction order = 8
MG DL_MG: Solver finished
MG Hartree energy from (\int phi*rho dr):              1258.922569
MG Hartree energy from (\int eps (grad phi)^2 dr):     1258.258054
MG Discrepancy due to finite box and discretization:     -0.664515 (  -0.05278%)
MG Correction to account for finite box:                  0.471803
MG Remaining discrepancy, due to discretization:         -0.192712 (  -0.01531%)
     Trial step:       0.770954761874
             Q1:  -11707.203308254946
[...]
MG Discrepancy due to finite box and discretization:     -0.198138 (  -0.01629%)
MG Correction to account for finite box:                  0.006376
MG Remaining discrepancy, due to discretization:         -0.191762 (  -0.01577%)
     Trial step:       0.777687680462
             Q1:  -11742.296791929752
 Quadratic coef:       0.000000004662
 Linear coef   :      -0.000000009900
           Qmin:  -11742.296791929770
Quadratic minimum step length (  0.825753580032) accepted
    Initial Ne1:    7234.00000000
      Final Ne1:    7234.00000000

=================== Penalty functional idempotency correction ==================
 RMS occupancy error at iteration   1:  0.000000 (step -0.5000 Ne1=   7234.0000)
            Final RMS occupancy error   :  0.000000 (Ne1=   7234.0000)
               Final occupancy bounds   : [ -0.0000,  1.0000]
================================================================================

    7        -1.174229679192E+04     1.7242E-08     1.5597E-08    -7.7998E-09

Reusing previously generated solute cavity.
MG BCs: +ve charge blocks (gridpoints):     28759 (   18717680).
MG BCs: -ve charge blocks (gridpoints):      8326 (    1030280).
MG BCs:     Elided blocks (gridpoints):    168361 (  171028745).
MG BCs: Computational effort saved:  99.9806%.
MG BCs: Charge after coarse-graining:           -9.0009395.
MG DL_MG: Calling solver with defect correction order = 8
MG DL_MG: Solver finished
MG Hartree energy from (\int phi*rho dr):              1216.336135
MG Hartree energy from (\int eps (grad phi)^2 dr):     1216.137997
MG Discrepancy due to finite box and discretization:     -0.198138 (  -0.01629%)
MG Correction to account for finite box:                  0.006376
MG Remaining discrepancy, due to discretization:         -0.191762 (  -0.01577%)
      ideal mu1:      -0.481796034207
             Q0:  -11742.296791929635
             G0:      -0.000000006645
   RMS gradient:       0.000000020298

Reusing previously generated solute cavity.
MG BCs: +ve charge blocks (gridpoints):     28759 (   18717682).
MG BCs: -ve charge blocks (gridpoints):      8326 (    1030280).
MG BCs:     Elided blocks (gridpoints):    168361 (  171028743).
MG BCs: Computational effort saved:  99.9806%.
MG BCs: Charge after coarse-graining:           -9.0009395.
MG DL_MG: Calling solver with defect correction order = 8
MG DL_MG: Solver finished
MG Hartree energy from (\int phi*rho dr):              1216.336208
MG Hartree energy from (\int eps (grad phi)^2 dr):     1216.138070
MG Discrepancy due to finite box and discretization:     -0.198138 (  -0.01629%)
MG Correction to account for finite box:                  0.006376
MG Remaining discrepancy, due to discretization:         -0.191762 (  -0.01577%)
     Trial step:       0.801360334861
             Q1:  -11742.296791930450
 Quadratic coef:       0.000000004509
 Linear coef   :      -0.000000005325
           Qmin:  -11742.296791931207
Quadratic minimum step length (  0.473158315106) accepted
    Initial Ne1:    7234.00000000
      Final Ne1:    7234.00000000

=================== Penalty functional idempotency correction ==================
 RMS occupancy error at iteration   1:  0.000000 (step -0.5000 Ne1=   7234.0000)
            Final RMS occupancy error   :  0.000000 (Ne1=   7234.0000)
               Final occupancy bounds   : [  0.0000,  1.0000]
================================================================================

    8        -1.174229679193E+04     2.0298E-08     1.8362E-08    -5.1223E-09

Reusing previously generated solute cavity.
MG BCs: +ve charge blocks (gridpoints):     28759 (   18717682).
MG BCs: -ve charge blocks (gridpoints):      8326 (    1030280).
MG BCs:     Elided blocks (gridpoints):    168361 (  171028743).
MG BCs: Computational effort saved:  99.9806%.
MG BCs: Charge after coarse-graining:           -9.0009395.
MG DL_MG: Calling solver with defect correction order = 8
MG DL_MG: Solver finished
MG Hartree energy from (\int phi*rho dr):              1216.336178
MG Hartree energy from (\int eps (grad phi)^2 dr):     1216.138040
MG Discrepancy due to finite box and discretization:     -0.198138 (  -0.01629%)
MG Correction to account for finite box:                  0.006376
MG Remaining discrepancy, due to discretization:         -0.191762 (  -0.01577%)
      ideal mu1:      -0.481796028165
             Q0:  -11742.296791931032
             G0:      -0.000000015934
   RMS gradient:       0.000000018772

Reusing previously generated solute cavity.
MG BCs: +ve charge blocks (gridpoints):     28759 (   18717681).
MG BCs: -ve charge blocks (gridpoints):      8326 (    1030280).
MG BCs:     Elided blocks (gridpoints):    168361 (  171028744).
MG BCs: Computational effort saved:  99.9806%.
MG BCs: Charge after coarse-graining:           -9.0009395.
MG DL_MG: Calling solver with defect correction order = 8
MG DL_MG: Solver finished
MG Hartree energy from (\int phi*rho dr):              1216.336045
MG Hartree energy from (\int eps (grad phi)^2 dr):     1216.137907
MG Discrepancy due to finite box and discretization:     -0.198138 (  -0.01629%)
MG Correction to account for finite box:                  0.006376
MG Remaining discrepancy, due to discretization:         -0.191762 (  -0.01577%)
     Trial step:       0.615768061721
             Q1:  -11742.296791930101
 Quadratic coef:       0.000000010743
 Linear coef   :      -0.000000009811
           Qmin:  -11742.296791933273
Quadratic minimum step length (  0.281189209426) accepted
    Initial Ne1:    7234.00000000
      Final Ne1:    7234.00000000

=================== Penalty functional idempotency correction ==================
 RMS occupancy error at iteration   1:  0.000000 (step -0.5000 Ne1=   7234.0000)
            Final RMS occupancy error   :  0.000000 (Ne1=   7234.0000)
               Final occupancy bounds   : [  0.0000,  1.0000]
================================================================================

    9        -1.174229679193E+04     1.8772E-08     1.6981E-08    -1.3970E-09

Reusing previously generated solute cavity.
MG BCs: +ve charge blocks (gridpoints):     28759 (   18717681).
MG BCs: -ve charge blocks (gridpoints):      8326 (    1030280).
MG BCs:     Elided blocks (gridpoints):    168361 (  171028744).
MG BCs: Computational effort saved:  99.9806%.
MG BCs: Charge after coarse-graining:           -9.0009395.
MG DL_MG: Calling solver with defect correction order = 8
MG DL_MG: Solver finished
MG Hartree energy from (\int phi*rho dr):              1216.336117
MG Hartree energy from (\int eps (grad phi)^2 dr):     1216.137979
MG Discrepancy due to finite box and discretization:     -0.198138 (  -0.01629%)
MG Correction to account for finite box:                  0.006376
MG Remaining discrepancy, due to discretization:         -0.191762 (  -0.01577%)
      ideal mu1:      -0.481795954273
   10        -1.174229679193E+04     1.0482E-08     9.4826E-09    -1.6298E-09
Finished density kernel iterations (  10)

Writing density kernel to file "complex_19101.dkn" ... done


>>> Density kernel optimised for the current NGWF basis:
     ~~~~~~~~~~~~~~~~~~~~~~~~~~~~~~~~~~~~~~~~~~~~~~~~~~~~~~~~~~~
     Total energy                =  -1.17422967919327E+04  Eh
     Estimated bandgap           =   8.0053E-02  Eh
     RMS occupancy error         =   3.5876E-16
     [H,K] commutator            =   9.4826E-09
     Occupancy bounds            = [  0.000:  1.000]
     ~~~~~~~~~~~~~~~~~~~~~~~~~~~~~~~~~~~~~~~~~~~~~~~~~~~~~~~~~~~




################################################################################
########################### NGWF CG iteration  004 #############################
################################################################################
****** Reciprocal space K.E. preconditioning with k_zero =  3.5000 a0^-1 *******

>>> Checking for convergence of NGWFs: 
           ........................................................
           |         *** NGWF optimisation converged ***          |
           | RMS NGWF gradient =    0.00000197710689              |
           | Criteria satisfied:                                  |
           | -> RMS NGWF gradient lower than set threshold.       |
           ========================================================

Reusing previously generated solute cavity.
MG BCs: +ve charge blocks (gridpoints):     28759 (   18717681).
MG BCs: -ve charge blocks (gridpoints):      8326 (    1030280).
MG BCs:     Elided blocks (gridpoints):    168361 (  171028744).
MG BCs: Computational effort saved:  99.9806%.
MG BCs: Charge after coarse-graining:           -9.0009395.
MG DL_MG: Calling solver with defect correction order = 8
MG DL_MG: Solver finished
MG Hartree energy from (\int phi*rho dr):              1216.336117
MG Hartree energy from (\int eps (grad phi)^2 dr):     1216.137979
MG Discrepancy due to finite box and discretization:     -0.198138 (  -0.01629%)
MG Correction to account for finite box:                  0.006376
MG Remaining discrepancy, due to discretization:         -0.191762 (  -0.01577%)

================================================================================
           ---------------- ENERGY COMPONENTS (Eh) ----------------
           | Kinetic                    :     8574.96112714746960 |
           | Pseudo. (local,OBC,corr'd) :    -5074.88531655432143 |
           | Pseudopotential (non-local):     1411.71777173063651 |
           | Hartree (molecular)        :     1216.33611729937957 |
           | Exchange-correlation       :    -3377.06787093135608 |
           | Ion-ion (open BC)          :   839338.28082803497091 |
           | Dispersion Correction      :       -3.32051005288689 |
           | Smeared ion non-self corr. :  -839290.00777209294029 |
           | Smeared ion self corr.     :   -14538.95273137971526 |
           | Solvent cavitation energy  :        2.28253977134678 |
           | Solute-solvent dis-rep en. :       -1.64097490511548 |
           | Total                      :   -11742.29679193253833 |
           --------------------------------------------------------
           ------ LOCAL ENERGY COMPONENTS FROM MATRIX TRACES ------
           | Pseudopotential (local)    :    -5074.88531655432598 |
           | Hartree                    :    -2005.24755948115353 |
           --------------------------------------------------------
           Integrated density           :     7233.99999999901229
           Integrated density tr(KS)    :     7234.00000000000091
================================================================================


                        <<<<< CALCULATION SUMMARY >>>>>                         
|ITER|    RMS GRADIENT   |     TOTAL ENERGY    |   step   |     Epredicted              
   0     0.00004166783709 -11742.22993385838345   0.621270 -11742.28768303324614        
   1     0.00000974488430 -11742.29629898199346   0.079592 -11742.29670363656442        
   2     0.00000435807196 -11742.29677447280847   0.014984 -11742.29678970916393        
   3     0.00000197710689 -11742.29679193266202  <-- CG                                 

=================== Finished the calculation in solvent ========================
= Adjusting the following parameters: 
= read_denskern: F
= read_tightbox_ngwfs: F
= maxit_pen: 0 (restored to user-specified value)
= restart read filename prefix: ""
= restart write filename prefix: ""
================================================================================

================================================================================
IS: Calculation in solvent completed (NGWFs converged).      

Individual components of total energy in solvent:     hartree           kcal/mol
- Usual non-electrostatic DFT terms:    -12959.27447409827073    -8132067.333055
- Electrostatic fixed charge energy:      1216.33611729937957      763262.420691
- Apolar cavitation energy:                  2.28253977134678        1432.315300
- Apolar dispersion-repulsion energy:       -1.64097490511548       -1029.727277
 -------------------------------------------------------------------------------
- Total energy in solvent:              -11742.29679193266202    -7368402.324340

Components of total energy in solvent:                hartree           kcal/mol
- Usual non-electrostatic DFT terms:    -12959.27447409827073    -8132067.333055
- Electrostatic energy:                   1216.33611729937957      763262.420691
- Apolar energy terms:                       0.64156486623129         402.588023
 -------------------------------------------------------------------------------
- Total energy in solvent:              -11742.29679193266202    -7368402.324340

Calculation of free energy of solvation:              hartree           kcal/mol
- Total energy in solvent:         (+)  -11742.29679193266202    -7368402.324340
- Total energy in vacuum:          (-)  -11738.40133657271508    -7365957.889249
 -------------------------------------------------------------------------------
- Total free energy of solvation:           -3.89545535994694       -2444.435091

Components of polar term in f.e. of solvation:        hartree           kcal/mol
- Electrostatic:                            -4.64813214334345       -2916.746893
- Change in nonelectrostatic DFT terms:      0.11111191716736          69.723779
 -------------------------------------------------------------------------------
- Polar term in f.e. of solvation:          -4.53702022617608       -2847.023114

Components of free energy of solvation:               hartree           kcal/mol
- Polar term in f.e. of solvation: (+)      -4.53702022617608       -2847.023114
- Apolar (cavitation, dis., rep.): (+)       0.64156486623129         402.588023
 -------------------------------------------------------------------------------
- Total free energy of solvation:           -3.89545535994479       -2444.435091
================================================================================


------------------------------ TIMING INFORMATION ------------------------------
AVERAGE TIME:   28952.244s on     60 node(s)                                    
TOTAL TIME:     28952.244s on     60 node(s)                                    
================= AVERAGE TIMINGS FROM ALL NODES (CUMULATIVE) ==================
|| TAG                                    #calls    cpu time   %total  Gflops ||
|| work_imbalance                       :     1        0.00s   0.000%  ------ ||
|| sparse_set_to_garbage                :   164        0.03s   0.000%  ------ ||
|| parallel_prepare_fd_halos_request    :  1821        0.03s   0.000%  ------ ||
|| ngwfs_initialise_from_radial         :     1        0.09s   0.000%  ------ ||
|| basis_extract_function_from_box      :  3381        0.16s   0.001%  ------ ||
|| parallel_prepare_fd_halos_satisfy    :  1821        0.61s   0.002%  ------ ||
|| parallel_prepare_fd_halos_alloc      :  1821        1.65s   0.006%  ------ ||
|| pseudopotentials_nonlocal_mat        :    28        2.04s   0.007%  ------ ||
|| density_init_guess_real              :     1        3.92s   0.014%  ------ ||
|| restart_kernel_read                  :     1        4.18s   0.014%  ------ ||
|| openbc_locps_radial                  :     1        4.78s   0.017%  ------ ||
|| restart_ngwfs_tightbox_input         :     1        7.37s   0.025%  ------ ||
|| parallel_prepare_fd_halos_comms_imbal:  1821        8.71s   0.030%  ------ ||
|| parallel_prepare_fd_halos_clear      :  1821       18.85s   0.065%  ------ ||
|| sparse_init                          :     2       22.69s   0.078%  ------ ||
|| projectors_func_ovlp_box             :    28       24.44s   0.084%  ------ ||
|| function_ops_brappd_ketppd           :    28       25.91s   0.089%  ------ ||
|| parallel_prepare_fd_halos_comms_wait :  1821       25.97s   0.090%  ------ ||
|| projectors_init_fftbox_recip         :   133       30.06s   0.104%  ------ ||
|| palser_mano_kernel_optimise          :     1       33.94s   0.117%  ------ ||
|| basis_copy_function_to_box           : 54751       39.77s   0.137%  ------ ||
|| ngwf_gradient_coeffs                 :    15       48.13s   0.166%  ------ ||
|| fourier_apply_box_pair               :  4812       50.55s   0.175% 551.065 ||
|| parallel_prepare_fd_halos            :  1821       55.83s   0.193%  ------ ||
|| pseudo_make_structure_factor         :     2       55.94s   0.193%  ------ ||
|| sparse_embed_hotelling_invert_embed  :    28       76.33s   0.264%  ------ ||
|| restart_kernel_write                 :    16       93.23s   0.322%  ------ ||
|| finite_difference_derivative         :  1821      131.53s   0.454%  ------ ||
|| integrals_kinetic                    :    28      138.58s   0.479%  ------ ||
|| projectors_gradient_batch            :   105      142.67s   0.493%  ------ ||
|| fourier_apply_cell_backward          :  1215      165.89s   0.573%  99.698 ||
|| basis_dot_function_with_box          : 8.466M     187.30s   0.647%  ------ ||
|| sparse_trace                         :  5164      188.70s   0.652%  ------ ||
|| fourier_apply_cell_forward           :  1213      215.61s   0.745%  76.580 ||
|| openbc_locps_on_grid                 :     2      265.13s   0.916%  ------ ||
|| kernel_purify                        :   463      285.88s   0.987%  ------ ||
|| basis_add_function_to_box            : 17.56M     410.07s   1.416%  ------ ||
|| lnv_gradient_norm                    :   150      426.69s   1.474%  ------ ||
|| xc_energy_potential                  :   303      441.90s   1.526%  ------ ||
|| hamiltonian_energy_components        :     4      489.38s   1.690%  ------ ||
|| kernel_fix                           :   150      549.93s   1.899%  ------ ||
|| integrals_locpot_mat_els_batch       :  1113      704.03s   2.432%  ------ ||
|| ngwf_gradient_build_batch            :   105      730.16s   2.522%  ------ ||
|| restart_ngwfs_tightbox_output        :    13      972.07s   3.357%  ------ ||
|| density_batch_row_sums               :  2114      976.55s   3.373%  ------ ||
|| ngwf_gradient_batch                  :   105     1026.68s   3.546%  ------ ||
|| ngwf_gradient_lnv                    :    15     1178.04s   4.069%  ------ ||
|| cell_grid_deposit_box_real           : 35084     1289.20s   4.453%  ------ ||
|| cell_grid_extract_box_real           : 38532     1461.12s   5.047%  ------ ||
|| sparse_product                       :  6372     1823.11s   6.297%  ------ ||
|| density_fftbox_deposit_to_cell       : 33220     1972.59s   6.813%  ------ ||
|| density_fftbox_interpolate_multiply  : 33220     3467.81s  11.978%  ------ ||
|| potential_apply_to_ngwf_batch        :  1113     3563.61s  12.309%  ------ ||
|| multigrid_prepare_bound_cond         :   303     4102.73s  14.171%  ------ ||
|| integrals_locpot_dbl_grid            :   159     4285.10s  14.801%  ------ ||
|| fourier_apply_box                    : 114.5k    4293.65s  14.830% 748.568 ||
|| density_batch_interp_deposit         :  2114     6342.59s  21.907%  ------ ||
|| dl_mg_solver_calls                   :   303     6584.81s  22.744%  ------ ||
|| density_on_dbl_grid                  :   302     7665.60s  26.477%  ------ ||
|| multigrid_calculate_hartree          :   303    10871.72s  37.551%  ------ ||
|| hamiltonian_lhxc_calculate           :   298    18902.10s  65.287%  ------ ||
|| lnv_denskernel_optimise_cg           :    15    24138.22s  83.373%  ------ ||
|| ngwf_cg_optimise                     :     2    27986.35s  96.664%  ------ ||
|| total_time                           :     1    28952.24s 100.000%  ------ ||
================================================================================
Overhead of generating timer report: 
- 0 ms averaging over threads,
- 15 ms ensuring consistency across MPI ranks,
- 0 ms printing in order.

Job completed: 25-05-2020 19:35 (+0100)

Application 40612776 resources: utime ~6076570s, stime ~200116s, Rss ~3614212, inblocks ~309190239, outblocks ~62007529
