 +---------------------------------------------------------------+
 |                                                               |
 |        ####### #     # ####### ####### ####### ######         |
 |        #     # ##    # #          #    #       #     #        |
 |        #     # # #   # #          #    #       #     #        |
 |        #     # #  #  # #####      #    #####   ######         |
 |        #     # #   # # #          #    #       #              |
 |        #     # #    ## #          #    #       #              |
 |        ####### #     # #######    #    ####### #              |
 |                                                               |
 |        Linear-Scaling Ab Initio Total Energy Program          |
 |                                                               |
 |          Release for academic collaborators of ODG            |
 |                                             Version 5.3.2.6.  |
 |                                                               |
 +---------------------------------------------------------------+
 |                                                               |
 |  Authors:                                                     |
 |  Jacek Dziedzic, Peter D. Haynes, Nicholas D. M. Hine,        |
 |  Arash. A. Mostofi, Mike C. Payne and Chris-Kriton Skylaris   |
 |                                                               |
 |  Contributors:                                                |
 |  J. Aarons, L. Andrinopoulos, P. W. Avraam, R. A. Bell,       |
 |  A. Bhandari, G. A. Bramley, R. J. Charlton, S. J. Clark,     |
 |  R. J. Clements, G. C. Constantinescu, F. Corsetti,           |
 |  N. Corsini, O. Dieguez, S. M. M. Dubois, K. K. B. Duff,      |
 |  J. M. Escartin, A. Greco, H. Helal, Q. O. Hill, L. P. Lee,   |
 |  J.-H. Li, E. B. Linscott, G. Moynihan, D. D. O`Regan,        |
 |  O. K. Okan, M. J. S. Phipps, C. J. Pickard,                  |
 |  J. C. A. Prentice, M. I. J. Probert, L. E. Ratcliff,         |
 |  M. Robinson, A. Ruiz Serrano, J. S. Spencer, E. W. Tait,     |
 |  G. Teobaldi, D. Turban, V. Vitale, K. A. Wilkinson,          |
 |  C. Weber, J. C. Womack, N. Yeung and T. J. Zuehlsdorff       |
 |                                                               |
 |                                   Copyright (c) 2004-2019     |
 |                                                               |
 |  Please cite:                                                 |
 |  "Introducing ONETEP: Linear-scaling density functional       |
 |   simulations on parallel computers".                         |
 |   C.-K. Skylaris, P. D. Haynes, A. A. Mostofi, M. C. Payne.   |
 |   J. Chem. Phys. 122 084119 (2005).                           |
 |                                                               |
 |          in all publications arising from your use of ONETEP. |
 |                                                               |
 +---------------------------------------------------------------+
 |                                                               |
 |   ONETEP is based on developments described in the following  |
 |   publications:                                               |
 |                                                               |
 |  "Nonorthogonal generalized Wannier function pseudopotential  |
 |   plane-wave method".                                         |
 |   C.-K. Skylaris, A. A. Mostofi, P. D. Haynes, O. Dieguez,    |
 |   M. C. Payne.                                                |
 |   Phys. Rev. B 66 035119 (2002).                              |
 |                                                               |
 |  "Preconditioned iterative minimization for linear-scaling    |
 |   electronic structure calculations".                         |
 |   A. A. Mostofi, P. D. Haynes, C.-K. Skylaris, M. C. Payne.   |
 |   J. Chem. Phys. 119(17), pp.8842-8848 (2003).                |
 |                                                               |
 |  "Total-energy calculations on a real space grid with         |
 |   localized functions and a plane-wave basis".                |
 |   A. A. Mostofi, C.-K. Skylaris, P. D. Haynes, M. C. Payne.   |
 |   Comput. Phys. Commun. 147, pp.788-802 (2002).               |
 |                                                               |
 |  "Accurate kinetic energy evaluation in electronic structure  |
 |   calculations with localized functions on real space grids"  |
 |   C.-K. Skylaris, A. A. Mostofi, P. D. Haynes, C. J. Pickard, |
 |   M. C. Payne.                                                |
 |   Comput. Phys. Commun. 140, pp.315-322 (2001).               |
 |                                                               |
 |  "Accurate ionic forces and geometry optimization in linear-  |
 |   scaling density-functional theory with local orbitals"      |
 |   N. D. M. Hine, M. Robinson, P. D. Haynes, C.-K. Skylaris,   |
 |   M. C. Payne, and A. A. Mostofi.                             |
 |   Phys. Rev. B 83 195102 (2011).                              |
 |                                                               |
 +---------------------------------------------------------------+

Job started: 20-05-2020 22:43 (+0100)
 
Reading parameters from file "complex_6941.dat" ...... done

If your calculation crashes here, before "Checking processes and threads..."
is displayed, then your stack size is insufficient.
If so, use "ulimit -s unlimited" at runtime.
You can disable this check with "check_stack_size F".

Checking processes and threads...
   Determining the default number of threads...
      No default threads set at compilation time: defaulting to 1.
      OpenMP library call suggests 4 threads.
      Hybrid MPI-OpenMP compilation detected.
      Number of MPI processes > 1.
      OMP_NUM_THREADS environment variable present and
      its value matches the one obtained from the OpenMP library call.
      Using this value as default.
      Default threads: 4
      Default applies to threads_max and threads_num_fftboxes.
      Settings in the input file override this default.
   ... done

   Running with 40 MPI processes.
   There are 10 MPI processes running on the same node as the root process.
   Each MPI process is using: 
               1 threads for simulation cell FFTs.
               1 threads for parallel FFT box operations.
               4 threads for loops over batched FFT box operations.
               4 threads in other parallel regions.
... done

Basic input checks...... done

Reading geometry and species blocks from file "complex_6941.dat" ...
  <species_atomic_set> block not found: NGWF initialisation set to SOLVE
IS: Dielectric excluded regions:
    - NONE.
    
  Number of PPD points along a3 set to 1.  This is 
  the default value, it may have been provided also in the input file.
... done
 Writing xyz coordinates to file "complex_6941.xyz" ... done


--------------------------------------------------------------------------------
---------------------------------- INPUT FILE ----------------------------------
--------------------------------------------------------------------------------

cutoff_energy       : 800 eV                                                    
xc_functional PBE                                                               
task SINGLEPOINT                                                                
write_xyz true                                                                  
output_detail VERBOSE                                                           
ngwf_threshold_orig : 0.000002                                                  
kernel_cutoff       : 1000                                                      
k_zero              : 3.5                                                       
elec_cg_max 0                                                                   
occ_mix 1.0                                                                     
dispersion 1                                                                    
maxit_ngwf_cg 40                                                                
minit_lnv 10                                                                    
maxit_lnv 10                                                                    
write_denskern T                                                                
write_tightbox_ngwfs T                                                          
charge 9                                                                        
is_implicit_solvent T                                                           
is_auto_solvation T                                                             
is_include_apolar T                                                             
is_smeared_ion_rep T                                                            
is_solvent_surf_tension 4.7624E-5 Ha/bohr**2                                    
is_apolar_scaling_factor 0.281075                                               
is_solvation_beta 1.3                                                           
is_density_threshold 0.00035                                                    
is_bulk_permittivity 78.54                                                      
is_dielectric_model fix_initial                                                 
is_smeared_ion_width 0.8                                                        
mg_defco_fd_order 8                                                             
is_bc_coarseness 10                                                             
is_bc_surface_coarseness 1                                                      
fine_grid_scale 2.0                                                             
%block species                                                                  
N   N   7 4 8.0                                                                 
H   H   1 1 8.0                                                                 
C   C   6 4 8.0                                                                 
S   S  16 9 8.0                                                                 
O   O   8 4 8.0                                                                 
%endblock species                                                               
%block species_pot                                                              
N   N_00.recpot                                                                 
H   H_04.recpot                                                                 
C   C_01.recpot                                                                 
S   S_00.recpot                                                                 
O   O_02.recpot                                                                 
%endblock species_pot                                                           
%block lattice_cart                                                             
139.252   0.000   0.000                                                         
0.000 142.425   0.000                                                           
0.000   0.000   162.84                                                          
%endblock lattice_cart                                                          
%block positions_abs                                                            
     Hash =  -000008321619254548640057
%endblock positions_abs                                                         

--------------------------------------------------------------------------------
-------------------------------- END INPUT FILE --------------------------------
--------------------------------------------------------------------------------


 
 ESDF WARNING(1): "kernelcutoff" (esdf_physical) has no units. Assume "bohr".
 ESDF WARNING(2): "kzero" (esdf_physical) has no units. Assume "1/bohr".
 ESDF WARNING(3
 ): "issmearedionwidth" (esdf_physical) has no units. Assume "bohr".
<<<<<<<<<<<<<<<<<<<<<<<<<<<<<<<<< Full system >>>>>>>>>>>>>>>>>>>>>>>>>>>>>>>>>>
<<<<<<<<<<<<<<<<<<<<<<<<< Pseudopotential information >>>>>>>>>>>>>>>>>>>>>>>>>>
File: N_00.recpot [ 2001 points up to Gmax=  52.9 (1/bohr)]
  Atomic number:  7;  ionic charge:  5.000000
    Shell 1: l = 0; rc = 1.48 bohr
File: H_04.recpot [ 2001 points up to Gmax=  52.9 (1/bohr)]
  Atomic number:  1;  ionic charge:  1.000000
    Local potential
File: C_01.recpot [ 2001 points up to Gmax=  52.9 (1/bohr)]
  Atomic number:  6;  ionic charge:  4.000000
    Shell 1: l = 0; rc = 1.48 bohr
File: S_00.recpot [ 2001 points up to Gmax=  52.9 (1/bohr)]
  Atomic number: 16;  ionic charge:  6.000000
    Shell 1: l = 0; rc = 1.90 bohr
    Shell 2: l = 2; rc = 1.84 bohr
File: O_02.recpot [ 2001 points up to Gmax=  52.9 (1/bohr)]
  Atomic number:  8;  ionic charge:  6.000000
    Shell 1: l = 0; rc = 1.31 bohr
<<<<<<<<<<<<<<<<<<<<<<<<<<<<<<<<<<<<<<<<>>>>>>>>>>>>>>>>>>>>>>>>>>>>>>>>>>>>>>>>

-------------------------- Atom counting information ---------------------------
Symbol    Natoms    Nngwfs    Nprojs
  N        237       948       237
  H       1318      1318         0
  C        816      3264       816
  S          6        54        36
  O        240       960       240
.......   ......    ......    ......
Totals:   2617      6544      1329
--------------------------------------------------------------------------------

=============================== PSINC grid sizes ===============================
                      Simulation cell:  275 x 280 x 320
                              FFT-box:   99 x  99 x  99
                                  PPD:    5 x   5 x   1
Grid space d1=  0.506370909091a0 (KE cutoff=  29.62556Eh = 806.15239eV)
Grid space d2=  0.508660714286a0 (KE cutoff=  29.35943Eh = 798.91072eV)
Grid space d3=  0.508875000000a0 (KE cutoff=  29.33471Eh = 798.23802eV)
================================================================================

********************* Fourier parallelisation information **********************
       Coarse grid (whole simulation cell) dimensions:    275   280   320
          Real-space ('12') slabs/node (min max mean):      8     8     8
         Recip-space ('23') slabs/node (min max mean):      3     4     3
********************************************************************************

********************* Fourier parallelisation information **********************
       Double grid (whole simulation cell) dimensions:    550   560   640
          Real-space ('12') slabs/node (min max mean):     16    16    16
         Recip-space ('23') slabs/node (min max mean):      6     7     6
********************************************************************************
ONETEP fine grid is 550 x 560 x 640 gridpoints, 139.2520 x 142.4250 x 162.8400 bohr.
FD multigrid is     545 x 553 x 633 gridpoints, 137.9861 x 140.6447 x 161.0589 bohr.


Calculating local pseudopotential in open BC on a radial grid ...
Discrepancy between calculated realspace psloc and -Z/x on [5a0,257.280a0]:
max |rel. diff| # avg |rel. diff| #  avg rel. diff #  f # pseudopotential file
 0.000256370913    0.000003612608   0.000000072509   55  'N_00.recpot'
 0.000395389207    0.000016224277  -0.000000076597   55  'H_04.recpot'
 0.000377360759    0.000017565724   0.000000149252   55  'C_01.recpot'
 0.000469715301    0.000020587835   0.000000455518   55  'S_00.recpot'
 0.000665442002    0.000026079317   0.000000158685   55  'O_02.recpot'
... done

Atom SCF Calculation for N  : Z (AE atom) =   7 : Z (PS atom) =   5
Config String:
Orbitals (num,occ):  2     2.00 3.00
Orbitals   (num,l):  2        0    1
Real-space Grid (nr,dr,rmax): 1203    0.0066555740    8.0000000000
Spherical Bessel Basis (nsws,lmax,cutoff):   47    1  176.3951722778
Confining potential (l,width,scale):  0    3.0000000000  100.0000000000
Confining potential (l,width,scale):  1    3.0000000000  100.0000000000
  1         -4.7312375307   -3.4155304497    7.0523828109   -1.9351020946
  2         -9.7309464766   -2.0532547791    8.2966052865   -2.2494486027
  3         -9.6627394379   -2.1124926340    8.2327997121   -2.2369778124
  4         -9.6814993499   -2.1215521045    8.2229805960   -2.2365178421
  5         -9.6843326483   -2.1250939529    8.2191374534   -2.2362718126
  6         -9.6859628709   -2.1267894855    8.2172963573   -2.2362066344
  7         -9.6867347035   -2.1276425665    8.2163697352   -2.2361903369
  8         -9.6870802100   -2.1280764625    8.2158983890   -2.2361891460
  9         -9.6872290423   -2.1282977424    8.2156580222   -2.2361920435
 10         -9.6872901988   -2.1284107021    8.2155353368   -2.2361953393
 11         -9.6873135296   -2.1284684031    8.2154726809   -2.2361979819
 12         -9.6873212476   -2.1284978948    8.2154406648   -2.2361998431
 13         -9.6873229586   -2.1285129774    8.2154242957   -2.2362010676
 14         -9.6873226456   -2.1285206957    8.2154159216   -2.2362018403
 15         -9.6873218534   -2.1285246479    8.2154116349   -2.2362023142
 16         -9.6873212599   -2.1285262679    8.2154098784   -2.2362025420
 17         -9.6873207834   -2.1285272564    8.2154088068   -2.2362026955
 18         -9.6873204210   -2.1285278597    8.2154081529   -2.2362027982
 19         -9.6873201550   -2.1285282280    8.2154077538   -2.2362028667
 20         -9.6873199645   -2.1285284529    8.2154075102   -2.2362029121
 21         -9.6873198305   -2.1285285903    8.2154073614   -2.2362029421
 22         -9.6873197377   -2.1285286742    8.2154072705   -2.2362029618
Atom SCF converged after  22 iterations to a total energy of     -9.68731974

Atom SCF Calculation for H  : Z (AE atom) =   1 : Z (PS atom) =   1
Config String:
Orbitals (num,occ):  1     1.00
Orbitals   (num,l):  1        0
Real-space Grid (nr,dr,rmax): 1203    0.0066555740    8.0000000000
Spherical Bessel Basis (nsws,lmax,cutoff):   47    0  176.3951722778
Confining potential (l,width,scale):  0    3.0000000000  100.0000000000
  1         -0.3194257691   -0.2393854593    0.2820953124   -0.2424203209
  2         -0.3951823392   -0.2377116493    0.2886404059   -0.2475147891
  3         -0.4317044583   -0.2352244387    0.2921333887   -0.2514046172
  4         -0.4470703708   -0.2341892222    0.2934391879   -0.2531009782
  5         -0.4532132900   -0.2338556667    0.2938388426   -0.2537313520
  6         -0.4556579251   -0.2337612552    0.2939448584   -0.2539550462
  7         -0.4566418315   -0.2337377355    0.2939680120   -0.2540342273
  8         -0.4570437922   -0.2337331116    0.2939708287   -0.2540627372
  9         -0.4572102946   -0.2337328328    0.2939698291   -0.2540732650
 10         -0.4572800424   -0.2337332404    0.2939687193   -0.2540772588
 11         -0.4573095100   -0.2337335791    0.2939680317   -0.2540788122
 12         -0.4573220379   -0.2337337762    0.2939676699   -0.2540794294
 13         -0.4573273880   -0.2337338775    0.2939674931   -0.2540796787
 14         -0.4573296803   -0.2337339266    0.2939674099   -0.2540797808
 15         -0.4573306647   -0.2337339495    0.2939673718   -0.2540798230
 16         -0.4573310882   -0.2337339601    0.2939673545   -0.2540798406
 17         -0.4573312706   -0.2337339649    0.2939673467   -0.2540798479
 18         -0.4573313493   -0.2337339670    0.2939673433   -0.2540798510
Atom SCF converged after  18 iterations to a total energy of     -0.45733135

Atom SCF Calculation for C  : Z (AE atom) =   6 : Z (PS atom) =   4
Config String:
Orbitals (num,occ):  2     2.00 2.00
Orbitals   (num,l):  2        0    1
Real-space Grid (nr,dr,rmax): 1203    0.0066555740    8.0000000000
Spherical Bessel Basis (nsws,lmax,cutoff):   47    1  176.3951722778
Confining potential (l,width,scale):  0    3.0000000000  100.0000000000
Confining potential (l,width,scale):  1    3.0000000000  100.0000000000
  1         -5.2976922011   -1.3069684169    4.5135249990   -1.4493313817
  2         -5.3721716256   -1.3429755895    4.4750154450   -1.4361613026
  3         -5.3809959565   -1.3617365618    4.4541655428   -1.4305930207
  4         -5.3918938866   -1.3667928461    4.4484735100   -1.4294652294
  5         -5.3956096428   -1.3688539142    4.4461376126   -1.4290734646
  6         -5.3968271862   -1.3696852393    4.4451910874   -1.4289366866
  7         -5.3972028401   -1.3700178062    4.4448112275   -1.4288900460
  8         -5.3973067903   -1.3701500158    4.4446598370   -1.4288749220
  9         -5.3973286940   -1.3702023868    4.4445997329   -1.4288704293
 10         -5.3973289850   -1.3702230869    4.4445759233   -1.4288693188
 11         -5.3973254264   -1.3702312560    4.4445665049   -1.4288691775
 12         -5.3973224003   -1.3702344755    4.4445627836   -1.4288692549
 13         -5.3973208708   -1.3702354890    4.4445616088   -1.4288693270
 14         -5.3973198783   -1.3702360102    4.4445610034   -1.4288693814
 15         -5.3973192535   -1.3702362780    4.4445606917   -1.4288694190
 16         -5.3973188684   -1.3702364155    4.4445605313   -1.4288694437
 17         -5.3973186349   -1.3702364860    4.4445604489   -1.4288694595
 18         -5.3973184951   -1.3702365221    4.4445604065   -1.4288694693
 19         -5.3973184122   -1.3702365405    4.4445603848   -1.4288694753
Atom SCF converged after  19 iterations to a total energy of     -5.39731841

Atom SCF Calculation for S  : Z (AE atom) =  16 : Z (PS atom) =   6
Config String:
Orbitals (num,occ):  3     2.00 4.00 0.00
Orbitals   (num,l):  3        0    1    2
Real-space Grid (nr,dr,rmax): 1203    0.0066555740    8.0000000000
Spherical Bessel Basis (nsws,lmax,cutoff):   47    2  176.3951722778
Confining potential (l,width,scale):  0    3.0000000000  100.0000000000
Confining potential (l,width,scale):  1    3.0000000000  100.0000000000
Confining potential (l,width,scale):  2    3.0000000000  100.0000000000
  1        -12.4735062396   -1.0328741412   10.1554312477   -2.4512393157
  2         -9.9458301913   -2.4607392455    8.3041325857   -2.0306994528
  3        -10.1450417646   -2.2931184565    8.4831893826   -2.0812538287
  4        -10.1528335592   -2.2733105793    8.5050388867   -2.0896035179
  5        -10.1571940363   -2.2633716629    8.5160794258   -2.0939370707
  6        -10.1594380571   -2.2584938667    8.5215163935   -2.0961289008
  7        -10.1605856507   -2.2561081821    8.5241804044   -2.0972291378
  8        -10.1611799191   -2.2549395235    8.5254868240   -2.0977806248
  9        -10.1614918752   -2.2543658586    8.5261285885   -2.0980571586
 10        -10.1616572884   -2.2540839121    8.5264441898   -2.0981959233
 11        -10.1617455602   -2.2539453058    8.5265994231   -2.0982656006
 12        -10.1617928447   -2.2538772062    8.5266757320   -2.0983006047
 13        -10.1618182292   -2.2538437891    8.5267131983   -2.0983181961
 14        -10.1618318741   -2.2538274201    8.5267315620   -2.0983270391
 15        -10.1618392144   -2.2538194197    8.5267405433   -2.0983314852
 16        -10.1618431651   -2.2538155200    8.5267449245   -2.0983337210
 17        -10.1618452923   -2.2538136252    8.5267470551   -2.0983348455
 18        -10.1618464380   -2.2538127080    8.5267480875   -2.0983354110
 19        -10.1618470552   -2.2538122659    8.5267485856   -2.0983356955
 20        -10.1618473878   -2.2538120540    8.5267488248   -2.0983358386
 21        -10.1618475670   -2.2538119530    8.5267489389   -2.0983359106
 22        -10.1618476637   -2.2538119053    8.5267489929   -2.0983359468
Atom SCF converged after  22 iterations to a total energy of    -10.16184766

Atom SCF Calculation for O  : Z (AE atom) =   8 : Z (PS atom) =   6
Config String:
Orbitals (num,occ):  2     2.00 4.00
Orbitals   (num,l):  2        0    1
Real-space Grid (nr,dr,rmax): 1203    0.0066555740    8.0000000000
Spherical Bessel Basis (nsws,lmax,cutoff):   47    1  176.3951722778
Confining potential (l,width,scale):  0    3.0000000000  100.0000000000
Confining potential (l,width,scale):  1    3.0000000000  100.0000000000
  1         -1.8735052164   -7.5539365035   10.1554312477   -2.4512393157
  2        -16.0318313751   -3.1285771268   13.6395848164   -3.2358799643
  3        -15.9524020423   -3.0762819706   13.6967272503   -3.2536856837
  4        -15.8521515939   -3.0781493909   13.6951909330   -3.2561700440
  5        -15.8357139793   -3.0748501933   13.6988803334   -3.2580493133
  6        -15.8246052853   -3.0740779781   13.6997881576   -3.2588327446
  7        -15.8189019501   -3.0737449687   13.7001869911   -3.2592378801
  8        -15.8159785510   -3.0736026016   13.7003615168   -3.2594475790
  9        -15.8144776168   -3.0735437994   13.7004360379   -3.2595560735
 10        -15.8137058024   -3.0735207882   13.7004667348   -3.2596122456
 11        -15.8133083127   -3.0735125946   13.7004786868   -3.2596413656
 12        -15.8131032938   -3.0735102195   13.7004828997   -3.2596564858
 13        -15.8129973902   -3.0735099286   13.7004840891   -3.2596643505
 14        -15.8129426040   -3.0735102506   13.7004842061   -3.2596684489
 15        -15.8129142203   -3.0735106556   13.7004840157   -3.2596705887
 16        -15.8128994940   -3.0735109855   13.7004837906   -3.2596717080
 17        -15.8128918425   -3.0735112169   13.7004836103   -3.2596722946
 18        -15.8128878614   -3.0735113674   13.7004834848   -3.2596726026
 19        -15.8128857871   -3.0735114608   13.7004834035   -3.2596727646
 20        -15.8128847048   -3.0735115170   13.7004833533   -3.2596728500
 21        -15.8128841394   -3.0735115501   13.7004833231   -3.2596728951
 22        -15.8128838436   -3.0735115693   13.7004833054   -3.2596729190
 23        -15.8128836887   -3.0735115802   13.7004832951   -3.2596729316
 24        -15.8128836074   -3.0735115864   13.7004832893   -3.2596729383
Atom SCF converged after  24 iterations to a total energy of    -15.81288361

========================== Calculation in vacuum ==============================
= Adjusting the following parameters: 
= is_implicit_solvent: F
= is_include_apolar: F
= write_denskern: T
= write_tightbox_ngwfs: T
= restart read filename prefix: ""
= restart write filename prefix: "vacuum_"
===============================================================================

Determining parallel strategy ...
... using space-filling curve
... NGWF load balancing: max    164;  min    163;  average    164
... Projector load balancing: max     36;  min     32;  average     33
... done
Calculating direct Ion-Ion energy ...
Ion-Ion Energy        :    834452.40987776964903
======================= Empirical dispersion information =======================
Model : Elstner
Dispersion Correction Energy: -0.32915177E+01 Hartree
================================================================================
Basis initialisation ...... NGWF spheres initialised
... Projector spheres initialised
... NGWF tight boxes initialised
... Tight-boxes gathered
... NGWF basis size (local,global):    1795416  71805576
... Nonlocal pseudopotential projector initialisation
... done

========================== Sparse matrix information ===========================
                        Overlap matrix filling:   6.76%
                        Density kernel filling: 100.00%
              NGWF-Proj overlap matrix filling:   1.77%
                    Hamiltonian matrix filling:   7.64%
                  NGWF diagonal matrix filling:   0.05%
                             KS matrix filling: 100.00% 
                           KSKS matrix filling: 100.00% 
================================================================================

Sparse matrix initialisation ... done

Generating smeared ion density ... done
Smeared ion self correction:     -14538.952731
Smeared ion non-self correction: -834403.963191
NGWF initialisation ...... done
============ Calculation of NGWF S^-1 using Hotelling algorithm ================ 
         Iteration  |  Frobenius norm and Maximum abs value    (of I-S*S_n^-1)   
               1       0.78783307E+02     0.98320437E+00
               2       0.76975089E+02     0.96682624E+00
               3       0.74029180E+02     0.93524728E+00
               4       0.69811020E+02     0.87635454E+00
               5       0.64526398E+02     0.77443425E+00
               6       0.58561678E+02     0.70468442E+00
               7       0.52530385E+02     0.67223792E+00
               8       0.46955872E+02     0.64696353E+00
               9       0.40946382E+02     0.60828639E+00
              10       0.32797674E+02     0.53960513E+00
              11       0.22293609E+02     0.44031638E+00
              12       0.11595113E+02     0.30439828E+00
              13       0.39253689E+01     0.14741003E+00
              14       0.64528292E+00     0.34953321E-01
              15       0.32497477E-01     0.34263084E-02
              16       0.19863121E-03     0.36316489E-04
              17       0.15274802E-07     0.41539114E-08
              18       0.97588556E-13     0.48849813E-14
================================================================================
Calculating local pseudopotential in open BC on the fine real space grid ...
... done

MG BCs: +ve charge blocks (gridpoints):     20019 (   15682916).
MG BCs: -ve charge blocks (gridpoints):      7933 (    1062758).
MG BCs:     Elided blocks (gridpoints):    177101 (  174031031).
MG BCs: Computational effort saved:  99.9853%.
MG BCs: Charge after coarse-graining:           -9.0002226.
MG DL_MG: Calling solver with defect correction order = 8
MG DL_MG: Solver finished
MG Hartree energy from (\int phi*rho dr):              1471.813826
MG Hartree energy from (\int eps (grad phi)^2 dr):     1471.189519
MG Discrepancy due to finite box and discretization:     -0.624306 (  -0.04242%)
MG Correction to account for finite box:                  0.463754
MG Remaining discrepancy, due to discretization:         -0.160552 (  -0.01091%)
Up spin density kernel initialisation ... 
======= Optimisation of K by Palser-Manolopoulos canonical purification ======== 
         Iteration  |  Band structure energy |    c_n   
               1       -2591.25516445805715    0.5271090
               2       -2768.08243214125241    0.5172704
               3       -2949.39942350559795    0.5155389
               4       -3101.02508318713353    0.5288204
               5       -3194.60427337830606    0.5639567
               6       -3233.99576195608824    0.6082415
               7       -3247.44476131116062    0.6211818
               8       -3253.22231553901656    0.6212110
               9       -3255.99234469216572    0.6342313
              10       -3257.14780238853973    0.6533895
              11       -3257.61199169823158    0.6718371
              12       -3257.80903865019900    0.6836540
              13       -3257.89964057125235    0.6638101
              14       -3257.94966088510046    0.5889789
              15       -3257.98319669225702    0.4850532
              16       -3257.99864616014293    0.4095793
              17       -3257.99973563166577    0.3792134
              18       -3258.00051579937735    0.3473479
              19       -3258.00101448824853    0.3091557
              20       -3258.00131337336416    0.2687114
              21       -3258.00143062495772    0.2701362
              22       -3258.00150204325382    0.2945863
              23       -3258.00157871559259    0.3282909
              24       -3258.00166116538185    0.3717283
              25       -3258.00174470314505    0.4223895
              26       -3258.00182007172498    0.4691255
              27       -3258.00187484956905    0.4948401
              28       -3258.00190128162330    0.4998559
              29       -3258.00190674772330    0.4999999
              30       -3258.00190695202082    0.4999999
Termination criterion satisfied: band energy change below threshold.
Final occupancy bounds: [    0.00000000019071:    0.99999999999978]
Closest occupancy to 0.5:     0.99999999998746
================================================================================
... done

Writing density kernel to file "complex_6941.vacuum_dkn" ... done

>>> Optimising kernel for current NGWFs:
   Initial electron number for spin 1:    7234.00000000
     Final electron number for spin 1:    7234.00000000

=================== Penalty functional idempotency correction ==================
 RMS occupancy error at iteration   1:  0.000000 (step -0.5000 Ne1=   7234.0000)
            Final RMS occupancy error   :  0.000000 (Ne1=   7234.0000)
               Final occupancy bounds   : [  0.0000,  1.0000]
================================================================================

................................................................................
<<<<<<<<<<<<<< LNV (Original version) density kernel optimisation >>>>>>>>>>>>>>
~~~~~~~~~~~~~~~~~~~~~~~~~~~~~~~~~~~~~~~~~~~~~~~~~~~~~~~~~~~~~~~~~~~~~~~~~~~~~~~~
   iter  |      energy (Eh)       | rms gradient |  commutator  |   dE (Eh)
MG BCs: +ve charge blocks (gridpoints):     30458 (   16878892).
MG BCs: -ve charge blocks (gridpoints):      8261 (    1094659).
MG BCs:     Elided blocks (gridpoints):    166652 (  172803154).
MG BCs: Computational effort saved:  99.9797%.
MG BCs: Charge after coarse-graining:           -9.0009440.
MG DL_MG: Calling solver with defect correction order = 8
MG DL_MG: Solver finished
MG Hartree energy from (\int phi*rho dr):              1426.570602
MG Hartree energy from (\int eps (grad phi)^2 dr):     1425.896176
MG Discrepancy due to finite box and discretization:     -0.674426 (  -0.04728%)
MG Correction to account for finite box:                  0.468483
MG Remaining discrepancy, due to discretization:         -0.205942 (  -0.01444%)
      ideal mu1:      -0.695726321248
             Q0:  -11569.057672023890
             G0:    -143.439866916002
   RMS gradient:       0.001830170902
MG BCs: +ve charge blocks (gridpoints):     30444 (   16960993).
MG BCs: -ve charge blocks (gridpoints):      8153 (    1074993).
MG BCs:     Elided blocks (gridpoints):    166665 (  172740719).
MG BCs: Computational effort saved:  99.9798%.
MG BCs: Charge after coarse-graining:           -9.0009663.
MG DL_MG: Calling solver with defect correction order = 8
MG DL_MG: Solver finished
MG Hartree energy from (\int phi*rho dr):              1452.370779
MG Hartree energy from (\int eps (grad phi)^2 dr):     1451.714928
MG Discrepancy due to finite box and discretization:     -0.655852 (  -0.04516%)
MG Correction to account for finite box:                  0.466579
MG Remaining discrepancy, due to discretization:         -0.189273 (  -0.01303%)
     Trial step:       0.500000000000
             Q1:  -11580.436106857727
 Quadratic coef:      60.341498624164
 Linear coef   :     -71.719933458001
           Qmin:  -11590.368664344687
Quadratic minimum step length (  0.297141830636) accepted
    Initial Ne1:    7234.00000000
      Final Ne1:    7234.00000000

=================== Penalty functional idempotency correction ==================
 RMS occupancy error at iteration   1:  0.003363 (step -0.4884 Ne1=   7234.0000)
 RMS occupancy error at iteration   2:  0.000030 (step -0.5003 Ne1=   7234.0000)
            Final RMS occupancy error   :  0.000000 (Ne1=   7234.0000)
               Final occupancy bounds   : [  0.0000,  1.0000]
================================================================================

    1        -1.156905767202E+04     1.8302E-03     1.6556E-03
MG BCs: +ve charge blocks (gridpoints):     30438 (   16929450).
MG BCs: -ve charge blocks (gridpoints):      8213 (    1083253).
MG BCs:     Elided blocks (gridpoints):    166671 (  172764002).
MG BCs: Computational effort saved:  99.9797%.
MG BCs: Charge after coarse-graining:           -9.0009570.
MG DL_MG: Calling solver with defect correction order = 8
MG DL_MG: Solver finished
MG Hartree energy from (\int phi*rho dr):              1434.043493
MG Hartree energy from (\int eps (grad phi)^2 dr):     1433.381137
MG Discrepancy due to finite box and discretization:     -0.662356 (  -0.04619%)
MG Correction to account for finite box:                  0.467207
MG Remaining discrepancy, due to discretization:         -0.195149 (  -0.01361%)
      ideal mu1:      -0.741786667400
             Q0:  -11590.760503065190
             G0:     -12.050524411202
   RMS gradient:       0.000526942751
MG BCs: +ve charge blocks (gridpoints):     30435 (   16946575).
MG BCs: -ve charge blocks (gridpoints):      8174 (    1078374).
MG BCs:     Elided blocks (gridpoints):    166674 (  172751756).
MG BCs: Computational effort saved:  99.9798%.
MG BCs: Charge after coarse-graining:           -9.0009608.
MG DL_MG: Calling solver with defect correction order = 8
MG DL_MG: Solver finished
MG Hartree energy from (\int phi*rho dr):              1439.323741
MG Hartree energy from (\int eps (grad phi)^2 dr):     1438.665370
MG Discrepancy due to finite box and discretization:     -0.658370 (  -0.04574%)
MG Correction to account for finite box:                  0.466572
MG Remaining discrepancy, due to discretization:         -0.191799 (  -0.01333%)
     Trial step:       0.385448978878
             Q1:  -11593.573558934615
 Quadratic coef:       1.831806459815
 Linear coef   :      -4.644862329240
           Qmin:  -11593.704966158166
Quadratic minimum step length (  0.488686299866) accepted
    Initial Ne1:    7233.99974515
      Final Ne1:    7234.00000000

=================== Penalty functional idempotency correction ==================
 RMS occupancy error at iteration   1:  0.001791 (step -0.4925 Ne1=   7234.0000)
 RMS occupancy error at iteration   2:  0.000017 (step -0.5007 Ne1=   7234.0000)
            Final RMS occupancy error   :  0.000000 (Ne1=   7234.0000)
               Final occupancy bounds   : [  0.0000,  1.0000]
================================================================================

    2        -1.159076050307E+04     5.2694E-04     4.7668E-04    -2.1703E+01
MG BCs: +ve charge blocks (gridpoints):     30437 (   16951182).
MG BCs: -ve charge blocks (gridpoints):      8174 (    1077060).
MG BCs:     Elided blocks (gridpoints):    166671 (  172748463).
MG BCs: Computational effort saved:  99.9798%.
MG BCs: Charge after coarse-graining:           -9.0009619.
MG DL_MG: Calling solver with defect correction order = 8
MG DL_MG: Solver finished
MG Hartree energy from (\int phi*rho dr):              1440.788646
MG Hartree energy from (\int eps (grad phi)^2 dr):     1440.131266
MG Discrepancy due to finite box and discretization:     -0.657381 (  -0.04563%)
MG Correction to account for finite box:                  0.466416
MG Remaining discrepancy, due to discretization:         -0.190965 (  -0.01325%)
      ideal mu1:      -0.767541016676
             Q0:  -11593.741307410062
             G0:      -1.914004558448
   RMS gradient:       0.000210065975
MG BCs: +ve charge blocks (gridpoints):     30439 (   16950571).
MG BCs: -ve charge blocks (gridpoints):      8176 (    1078016).
MG BCs:     Elided blocks (gridpoints):    166669 (  172748118).
MG BCs: Computational effort saved:  99.9798%.
MG BCs: Charge after coarse-graining:           -9.0009616.
MG DL_MG: Calling solver with defect correction order = 8
MG DL_MG: Solver finished
MG Hartree energy from (\int phi*rho dr):              1438.565353
MG Hartree energy from (\int eps (grad phi)^2 dr):     1437.908262
MG Discrepancy due to finite box and discretization:     -0.657092 (  -0.04568%)
MG Correction to account for finite box:                  0.466344
MG Remaining discrepancy, due to discretization:         -0.190747 (  -0.01326%)
     Trial step:       0.434008796310
             Q1:  -11594.224365078029
 Quadratic coef:       0.347637146579
 Linear coef   :      -0.830694814545
           Qmin:  -11594.237553195146
Quadratic minimum step length (  0.518541905130) accepted
    Initial Ne1:    7233.99971217
      Final Ne1:    7234.00000000

=================== Penalty functional idempotency correction ==================
 RMS occupancy error at iteration   1:  0.000621 (step -0.4969 Ne1=   7234.0000)
 RMS occupancy error at iteration   2:  0.000003 (step -0.5000 Ne1=   7234.0000)
            Final RMS occupancy error   :  0.000000 (Ne1=   7234.0000)
               Final occupancy bounds   : [  0.0000,  1.0000]
================================================================================

    3        -1.159374130741E+04     2.1007E-04     1.9003E-04    -2.9808E+00
MG BCs: +ve charge blocks (gridpoints):     30439 (   16950374).
MG BCs: -ve charge blocks (gridpoints):      8181 (    1078243).
MG BCs:     Elided blocks (gridpoints):    166669 (  172748088).
MG BCs: Computational effort saved:  99.9798%.
MG BCs: Charge after coarse-graining:           -9.0009616.
MG DL_MG: Calling solver with defect correction order = 8
MG DL_MG: Solver finished
MG Hartree energy from (\int phi*rho dr):              1438.141748
MG Hartree energy from (\int eps (grad phi)^2 dr):     1437.484703
MG Discrepancy due to finite box and discretization:     -0.657045 (  -0.04569%)
MG Correction to account for finite box:                  0.466331
MG Remaining discrepancy, due to discretization:         -0.190714 (  -0.01326%)
      ideal mu1:      -0.768586551290
             Q0:  -11594.242137586116
             G0:      -0.484152711958
   RMS gradient:       0.000105789298
MG BCs: +ve charge blocks (gridpoints):     30442 (   16951188).
MG BCs: -ve charge blocks (gridpoints):      8173 (    1077932).
MG BCs:     Elided blocks (gridpoints):    166666 (  172747585).
MG BCs: Computational effort saved:  99.9798%.
MG BCs: Charge after coarse-graining:           -9.0009617.
MG DL_MG: Calling solver with defect correction order = 8
MG DL_MG: Solver finished
MG Hartree energy from (\int phi*rho dr):              1439.311868
MG Hartree energy from (\int eps (grad phi)^2 dr):     1438.654693
MG Discrepancy due to finite box and discretization:     -0.657174 (  -0.04566%)
MG Correction to account for finite box:                  0.466348
MG Remaining discrepancy, due to discretization:         -0.190827 (  -0.01326%)
     Trial step:       0.474396193157
             Q1:  -11594.357550597051
 Quadratic coef:       0.114267192524
 Linear coef   :      -0.229680203460
           Qmin:  -11594.357553469485
Quadratic minimum step length (  0.476774705660) accepted
    Initial Ne1:    7233.99993294
      Final Ne1:    7234.00000000

=================== Penalty functional idempotency correction ==================
 RMS occupancy error at iteration   1:  0.000242 (step -0.4975 Ne1=   7234.0000)
 RMS occupancy error at iteration   2:  0.000002 (step -0.5000 Ne1=   7234.0000)
            Final RMS occupancy error   :  0.000000 (Ne1=   7234.0000)
               Final occupancy bounds   : [  0.0000,  1.0000]
================================================================================

    4        -1.159424213759E+04     1.0579E-04     9.5699E-05    -5.0083E-01
MG BCs: +ve charge blocks (gridpoints):     30442 (   16951183).
MG BCs: -ve charge blocks (gridpoints):      8173 (    1077937).
MG BCs:     Elided blocks (gridpoints):    166666 (  172747585).
MG BCs: Computational effort saved:  99.9798%.
MG BCs: Charge after coarse-graining:           -9.0009617.
MG DL_MG: Calling solver with defect correction order = 8
MG DL_MG: Solver finished
MG Hartree energy from (\int phi*rho dr):              1439.318047
MG Hartree energy from (\int eps (grad phi)^2 dr):     1438.660872
MG Discrepancy due to finite box and discretization:     -0.657175 (  -0.04566%)
MG Correction to account for finite box:                  0.466348
MG Remaining discrepancy, due to discretization:         -0.190827 (  -0.01326%)
      ideal mu1:      -0.768919510760
             Q0:  -11594.358116545482
             G0:      -0.147067480847
   RMS gradient:       0.000058460139
MG BCs: +ve charge blocks (gridpoints):     30440 (   16951173).
MG BCs: -ve charge blocks (gridpoints):      8170 (    1077792).
MG BCs:     Elided blocks (gridpoints):    166668 (  172747740).
MG BCs: Computational effort saved:  99.9798%.
MG BCs: Charge after coarse-graining:           -9.0009618.
MG DL_MG: Calling solver with defect correction order = 8
MG DL_MG: Solver finished
MG Hartree energy from (\int phi*rho dr):              1439.731887
MG Hartree energy from (\int eps (grad phi)^2 dr):     1439.074529
MG Discrepancy due to finite box and discretization:     -0.657358 (  -0.04566%)
MG Correction to account for finite box:                  0.466383
MG Remaining discrepancy, due to discretization:         -0.190975 (  -0.01326%)
     Trial step:       0.475583962470
             Q1:  -11594.400538620539
 Quadratic coef:       0.027520860234
 Linear coef   :      -0.069942935292
           Qmin:  -11594.402555692328
Quadratic minimum step length (  0.604336819955) accepted
    Initial Ne1:    7233.99997407
      Final Ne1:    7234.00000000

=================== Penalty functional idempotency correction ==================
 RMS occupancy error at iteration   1:  0.000210 (step -0.4902 Ne1=   7234.0000)
 RMS occupancy error at iteration   2:  0.000003 (step -0.5000 Ne1=   7234.0000)
            Final RMS occupancy error   :  0.000000 (Ne1=   7234.0000)
               Final occupancy bounds   : [  0.0000,  1.0000]
================================================================================

    5        -1.159435811655E+04     5.8460E-05     5.2884E-05    -1.1598E-01
MG BCs: +ve charge blocks (gridpoints):     30443 (   16951188).
MG BCs: -ve charge blocks (gridpoints):      8171 (    1077753).
MG BCs:     Elided blocks (gridpoints):    166665 (  172747764).
MG BCs: Computational effort saved:  99.9798%.
MG BCs: Charge after coarse-graining:           -9.0009618.
MG DL_MG: Calling solver with defect correction order = 8
MG DL_MG: Solver finished
MG Hartree energy from (\int phi*rho dr):              1439.843669
MG Hartree energy from (\int eps (grad phi)^2 dr):     1439.186261
MG Discrepancy due to finite box and discretization:     -0.657408 (  -0.04566%)
MG Correction to account for finite box:                  0.466393
MG Remaining discrepancy, due to discretization:         -0.191015 (  -0.01327%)
      ideal mu1:      -0.769038963873
             Q0:  -11594.402594712446
             G0:      -0.091734536643
   RMS gradient:       0.000046263656
MG BCs: +ve charge blocks (gridpoints):     30440 (   16950715).
MG BCs: -ve charge blocks (gridpoints):      8173 (    1078003).
MG BCs:     Elided blocks (gridpoints):    166668 (  172747987).
MG BCs: Computational effort saved:  99.9798%.
MG BCs: Charge after coarse-graining:           -9.0009616.
MG DL_MG: Calling solver with defect correction order = 8
MG DL_MG: Solver finished
MG Hartree energy from (\int phi*rho dr):              1438.943438
MG Hartree energy from (\int eps (grad phi)^2 dr):     1438.286025
MG Discrepancy due to finite box and discretization:     -0.657412 (  -0.04569%)
MG Correction to account for finite box:                  0.466408
MG Remaining discrepancy, due to discretization:         -0.191005 (  -0.01327%)
     Trial step:       0.536109036951
             Q1:  -11594.441716941539
 Quadratic coef:       0.010057485002
 Linear coef   :      -0.049179714095
           Qmin:  -11594.462715216678
Quadratic minimum step length (  1.310749613622) accepted
    Initial Ne1:    7233.99996382
      Final Ne1:    7234.00000000

=================== Penalty functional idempotency correction ==================
 RMS occupancy error at iteration   1:  0.001504 (step -0.4062 Ne1=   7234.0000)
 RMS occupancy error at iteration   2:  0.000063 (step -0.4984 Ne1=   7234.0000)
 RMS occupancy error at iteration   3:  0.000000 (step -0.5000 Ne1=   7234.0000)
            Final RMS occupancy error   :  0.000000 (Ne1=   7234.0000)
               Final occupancy bounds   : [  0.0000,  1.0000]
================================================================================

    6        -1.159440259471E+04     4.6264E-05     4.1851E-05    -4.4478E-02
MG BCs: +ve charge blocks (gridpoints):     30440 (   16950039).
MG BCs: -ve charge blocks (gridpoints):      8177 (    1078407).
MG BCs:     Elided blocks (gridpoints):    166668 (  172748259).
MG BCs: Computational effort saved:  99.9798%.
MG BCs: Charge after coarse-graining:           -9.0009613.
MG DL_MG: Calling solver with defect correction order = 8
MG DL_MG: Solver finished
MG Hartree energy from (\int phi*rho dr):              1437.631025
MG Hartree energy from (\int eps (grad phi)^2 dr):     1436.973608
MG Discrepancy due to finite box and discretization:     -0.657417 (  -0.04573%)
MG Correction to account for finite box:                  0.466429
MG Remaining discrepancy, due to discretization:         -0.190988 (  -0.01328%)
      ideal mu1:      -0.769113669157
             Q0:  -11594.454268810572
             G0:      -0.214376528566
   RMS gradient:       0.000070753076
MG BCs: +ve charge blocks (gridpoints):     30441 (   16952347).
MG BCs: -ve charge blocks (gridpoints):      8171 (    1077168).
MG BCs:     Elided blocks (gridpoints):    166667 (  172747190).
MG BCs: Computational effort saved:  99.9798%.
MG BCs: Charge after coarse-graining:           -9.0009620.
MG DL_MG: Calling solver with defect correction order = 8
MG DL_MG: Solver finished
MG Hartree energy from (\int phi*rho dr):              1440.800777
MG Hartree energy from (\int eps (grad phi)^2 dr):     1440.143493
MG Discrepancy due to finite box and discretization:     -0.657284 (  -0.04562%)
MG Correction to account for finite box:                  0.466361
MG Remaining discrepancy, due to discretization:         -0.190923 (  -0.01325%)
     Trial step:       0.838274843379
             Q1:  -11594.505714748171
 Quadratic coef:       0.128260513309
 Linear coef   :      -0.179706450908
           Qmin:  -11594.517215713840
Quadratic minimum step length (  0.587255551621) accepted
    Initial Ne1:    7233.99999999
      Final Ne1:    7234.00000000

=================== Penalty functional idempotency correction ==================
 RMS occupancy error at iteration   1:  0.000152 (step -0.4879 Ne1=   7234.0000)
 RMS occupancy error at iteration   2:  0.000001 (step -0.5000 Ne1=   7234.0000)
            Final RMS occupancy error   :  0.000000 (Ne1=   7234.0000)
               Final occupancy bounds   : [  0.0000,  1.0000]
================================================================================

    7        -1.159445426881E+04     7.0753E-05     6.4004E-05    -5.1674E-02
MG BCs: +ve charge blocks (gridpoints):     30442 (   16951737).
MG BCs: -ve charge blocks (gridpoints):      8173 (    1077528).
MG BCs:     Elided blocks (gridpoints):    166666 (  172747440).
MG BCs: Computational effort saved:  99.9798%.
MG BCs: Charge after coarse-graining:           -9.0009617.
MG DL_MG: Calling solver with defect correction order = 8
MG DL_MG: Solver finished
MG Hartree energy from (\int phi*rho dr):              1439.846755
MG Hartree energy from (\int eps (grad phi)^2 dr):     1439.189431
MG Discrepancy due to finite box and discretization:     -0.657324 (  -0.04565%)
MG Correction to account for finite box:                  0.466383
MG Remaining discrepancy, due to discretization:         -0.190941 (  -0.01326%)
      ideal mu1:      -0.770340688317
             Q0:  -11594.517438011593
             G0:      -0.175138948189
   RMS gradient:       0.000063895688
MG BCs: +ve charge blocks (gridpoints):     30441 (   16951830).
MG BCs: -ve charge blocks (gridpoints):      8171 (    1077460).
MG BCs:     Elided blocks (gridpoints):    166667 (  172747415).
MG BCs: Computational effort saved:  99.9798%.
MG BCs: Charge after coarse-graining:           -9.0009619.
MG DL_MG: Calling solver with defect correction order = 8
MG DL_MG: Solver finished
MG Hartree energy from (\int phi*rho dr):              1440.101495
MG Hartree energy from (\int eps (grad phi)^2 dr):     1439.444381
MG Discrepancy due to finite box and discretization:     -0.657113 (  -0.04563%)
MG Correction to account for finite box:                  0.466305
MG Remaining discrepancy, due to discretization:         -0.190808 (  -0.01325%)
     Trial step:       0.701627789899
             Q1:  -11594.603837263538
 Quadratic coef:       0.036483101199
 Linear coef   :      -0.122882353143
           Qmin:  -11594.620911073214
Quadratic minimum step length (  1.181611088685) accepted
    Initial Ne1:    7233.99999990
      Final Ne1:    7234.00000000

=================== Penalty functional idempotency correction ==================
 RMS occupancy error at iteration   1:  0.002777 (step -0.3463 Ne1=   7234.0000)
 RMS occupancy error at iteration   2:  0.000110 (step -0.4922 Ne1=   7234.0000)
 RMS occupancy error at iteration   3:  0.000001 (step -0.5000 Ne1=   7234.0000)
            Final RMS occupancy error   :  0.000000 (Ne1=   7234.0000)
               Final occupancy bounds   : [  0.0000,  1.0000]
================================================================================

    8        -1.159451743801E+04     6.3896E-05     5.7801E-05    -6.3169E-02
MG BCs: +ve charge blocks (gridpoints):     30441 (   16951912).
MG BCs: -ve charge blocks (gridpoints):      8168 (    1077367).
MG BCs:     Elided blocks (gridpoints):    166667 (  172747426).
MG BCs: Computational effort saved:  99.9798%.
MG BCs: Charge after coarse-graining:           -9.0009622.
MG DL_MG: Calling solver with defect correction order = 8
MG DL_MG: Solver finished
MG Hartree energy from (\int phi*rho dr):              1440.287017
MG Hartree energy from (\int eps (grad phi)^2 dr):     1439.630053
MG Discrepancy due to finite box and discretization:     -0.656964 (  -0.04561%)
MG Correction to account for finite box:                  0.466245
MG Remaining discrepancy, due to discretization:         -0.190719 (  -0.01324%)
      ideal mu1:      -0.770685726748
             Q0:  -11594.607084766147
             G0:      -0.309856935286
   RMS gradient:       0.000091097149
========================= Kernel Line Step Protection ==========================
|  Iter |  Trial Step |   RMS Occupancy Error |   Occupancy Bounds | Accepted? |
    0        0.000000                0.000000    [ 1.0000:  0.0000]
    1        0.910522                0.014358    [ 1.5256: -0.5296]        No
    2        0.455261                0.005150    [ 1.2336: -0.2350]       Yes
================================================================================
MG BCs: +ve charge blocks (gridpoints):     30442 (   16951319).
MG BCs: -ve charge blocks (gridpoints):      8169 (    1077785).
MG BCs:     Elided blocks (gridpoints):    166666 (  172747601).
MG BCs: Computational effort saved:  99.9798%.
MG BCs: Charge after coarse-graining:           -9.0009620.
MG DL_MG: Calling solver with defect correction order = 8
MG DL_MG: Solver finished
MG Hartree energy from (\int phi*rho dr):              1439.195557
MG Hartree energy from (\int eps (grad phi)^2 dr):     1438.539013
MG Discrepancy due to finite box and discretization:     -0.656544 (  -0.04562%)
MG Correction to account for finite box:                  0.465943
MG Remaining discrepancy, due to discretization:         -0.190601 (  -0.01324%)
     Trial step:       0.455261237279
             Q1:  -11594.675527017098
 Quadratic coef:       0.072623600787
 Linear coef   :      -0.141065851738
           Qmin:  -11594.675587203064
Quadratic minimum step length (  0.442155260165) accepted
    Initial Ne1:    7233.99999991
      Final Ne1:    7234.00000000

=================== Penalty functional idempotency correction ==================
 RMS occupancy error at iteration   1:  0.004945 (step -0.2840 Ne1=   7234.0000)
 RMS occupancy error at iteration   2:  0.000319 (step -0.4769 Ne1=   7234.0000)
 RMS occupancy error at iteration   3:  0.000004 (step -0.5000 Ne1=   7234.0000)
            Final RMS occupancy error   :  0.000000 (Ne1=   7234.0000)
               Final occupancy bounds   : [  0.0000,  1.0000]
================================================================================

    9        -1.159460708477E+04     9.1097E-05     8.2408E-05    -8.9647E-02
MG BCs: +ve charge blocks (gridpoints):     30442 (   16951372).
MG BCs: -ve charge blocks (gridpoints):      8169 (    1077743).
MG BCs:     Elided blocks (gridpoints):    166666 (  172747590).
MG BCs: Computational effort saved:  99.9798%.
MG BCs: Charge after coarse-graining:           -9.0009620.
MG DL_MG: Calling solver with defect correction order = 8
MG DL_MG: Solver finished
MG Hartree energy from (\int phi*rho dr):              1439.238427
MG Hartree energy from (\int eps (grad phi)^2 dr):     1438.581815
MG Discrepancy due to finite box and discretization:     -0.656612 (  -0.04562%)
MG Correction to account for finite box:                  0.466009
MG Remaining discrepancy, due to discretization:         -0.190603 (  -0.01324%)
      ideal mu1:      -0.770552131432
   10        -1.159468456104E+04     8.0812E-05     7.3104E-05    -7.7476E-02
Finished density kernel iterations (  10)

Writing density kernel to file "complex_6941.vacuum_dkn" ... done


>>> Density kernel optimised for the current NGWF basis:
     ~~~~~~~~~~~~~~~~~~~~~~~~~~~~~~~~~~~~~~~~~~~~~~~~~~~~~~~~~~~
     Total energy                =  -1.15946845610350E+04  Eh
     Estimated bandgap           =  -3.0209E-01  Eh
     RMS occupancy error         =   1.3351E-09
     [H,K] commutator            =   7.3104E-05
     Occupancy bounds            = [  0.000:  1.000]
     ~~~~~~~~~~~~~~~~~~~~~~~~~~~~~~~~~~~~~~~~~~~~~~~~~~~~~~~~~~~




################################################################################
########################### NGWF CG iteration  001 #############################
################################################################################
****** Reciprocal space K.E. preconditioning with k_zero =  3.5000 a0^-1 *******

>>> Checking for convergence of NGWFs:   NOT CONVERGED
  ========================================================================
         NGWF RMS gradient =  1.6351E-03 >  2.0000E-06  | above tolerance
  ========================================================================

>>> Improving NGWFs using line search:
============ Calculation of NGWF S^-1 using Hotelling algorithm ================ 
         Iteration  |  Frobenius norm and Maximum abs value    (of I-S*S_n^-1)   
               1       0.20584161E+00     0.55498649E-02
               2       0.99821765E-03     0.46687537E-04
               3       0.40837575E-07     0.33265279E-08
               4       0.13039011E-12     0.56621374E-14
================================================================================
MG BCs: +ve charge blocks (gridpoints):     29993 (   16895408).
MG BCs: -ve charge blocks (gridpoints):      8180 (    1077470).
MG BCs:     Elided blocks (gridpoints):    167118 (  172803827).
MG BCs: Computational effort saved:  99.9800%.
MG BCs: Charge after coarse-graining:           -9.0009644.
MG DL_MG: Calling solver with defect correction order = 8
MG DL_MG: Solver finished
MG Hartree energy from (\int phi*rho dr):              1406.651114
MG Hartree energy from (\int eps (grad phi)^2 dr):     1405.995466
MG Discrepancy due to finite box and discretization:     -0.655647 (  -0.04661%)
MG Correction to account for finite box:                  0.465972
MG Remaining discrepancy, due to discretization:         -0.189675 (  -0.01348%)
============ Calculation of NGWF S^-1 using Hotelling algorithm ================ 
         Iteration  |  Frobenius norm and Maximum abs value    (of I-S*S_n^-1)   
               1       0.18452617E+01     0.42756468E-01
               2       0.71176198E-01     0.25204162E-02
               3       0.14797176E-03     0.97676721E-05
               4       0.12175390E-08     0.15172330E-09
               5       0.11003516E-12     0.46629367E-14
================================================================================
------------------------------- NGWF line search -------------------------------
RMS gradient                =       0.00163511908531
Trial step length           =               0.122474
Gradient along search dir.  =       -286.28103415621
Functional at step 0        =  -11594.68456103501376
Functional at step 1        =  -11626.99233570857905
Functional predicted        =  -11706.26744610307833
Selected quadratic step     =               0.779534
--------------------------- NGWF line search finished --------------------------
                                               
Writing NGWFs to file "complex_6941.vacuum_tightbox_ngwfs"....  done

>>> Optimising kernel for current NGWFs:
   Initial electron number for spin 1:    7269.07897129
     Final electron number for spin 1:    7234.00000000

=================== Penalty functional idempotency correction ==================
 RMS occupancy error at iteration   1:  0.004375 (step -0.4853 Ne1=   7234.0000)
 RMS occupancy error at iteration   2:  0.000075 (step -0.5003 Ne1=   7234.0000)
            Final RMS occupancy error   :  0.000000 (Ne1=   7234.0000)
               Final occupancy bounds   : [  0.0000,  1.0000]
================================================================================

................................................................................
<<<<<<<<<<<<<< LNV (Original version) density kernel optimisation >>>>>>>>>>>>>>
~~~~~~~~~~~~~~~~~~~~~~~~~~~~~~~~~~~~~~~~~~~~~~~~~~~~~~~~~~~~~~~~~~~~~~~~~~~~~~~~
   iter  |      energy (Eh)       | rms gradient |  commutator  |   dE (Eh)
MG BCs: +ve charge blocks (gridpoints):     24362 (   16579953).
MG BCs: -ve charge blocks (gridpoints):      8332 (    1061142).
MG BCs:     Elided blocks (gridpoints):    172758 (  173135610).
MG BCs: Computational effort saved:  99.9829%.
MG BCs: Charge after coarse-graining:           -9.0006788.
MG DL_MG: Calling solver with defect correction order = 8
MG DL_MG: Solver finished
MG Hartree energy from (\int phi*rho dr):              1253.670503
MG Hartree energy from (\int eps (grad phi)^2 dr):     1253.015026
MG Discrepancy due to finite box and discretization:     -0.655477 (  -0.05228%)
MG Correction to account for finite box:                  0.465807
MG Remaining discrepancy, due to discretization:         -0.189669 (  -0.01513%)
      ideal mu1:      -0.712035039825
             Q0:  -11705.496569316136
             G0:      -9.598940116554
   RMS gradient:       0.000473443709
MG BCs: +ve charge blocks (gridpoints):     24395 (   16588340).
MG BCs: -ve charge blocks (gridpoints):      8320 (    1059291).
MG BCs:     Elided blocks (gridpoints):    172725 (  173129074).
MG BCs: Computational effort saved:  99.9829%.
MG BCs: Charge after coarse-graining:           -9.0006760.
MG DL_MG: Calling solver with defect correction order = 8
MG DL_MG: Solver finished
MG Hartree energy from (\int phi*rho dr):              1261.840271
MG Hartree energy from (\int eps (grad phi)^2 dr):     1261.181199
MG Discrepancy due to finite box and discretization:     -0.659072 (  -0.05223%)
MG Correction to account for finite box:                  0.465667
MG Remaining discrepancy, due to discretization:         -0.193404 (  -0.01533%)
     Trial step:       0.448660395859
             Q1:  -11706.842629044200
 Quadratic coef:       2.960604544454
 Linear coef   :      -4.306664272518
           Qmin:  -11707.062749202514
Quadratic minimum step length (  0.326323503921) accepted
    Initial Ne1:    7233.99953579
      Final Ne1:    7234.00000000

=================== Penalty functional idempotency correction ==================
 RMS occupancy error at iteration   1:  0.000336 (step -0.4987 Ne1=   7234.0000)
 RMS occupancy error at iteration   2:  0.000000 (step -0.5000 Ne1=   7234.0000)
            Final RMS occupancy error   :  0.000000 (Ne1=   7234.0000)
               Final occupancy bounds   : [  0.0000,  1.0000]
================================================================================

    1        -1.170549656932E+04     4.7344E-04     4.2829E-04
MG BCs: +ve charge blocks (gridpoints):     24382 (   16586037).
MG BCs: -ve charge blocks (gridpoints):      8323 (    1059745).
MG BCs:     Elided blocks (gridpoints):    172738 (  173130923).
MG BCs: Computational effort saved:  99.9829%.
MG BCs: Charge after coarse-graining:           -9.0006769.
MG DL_MG: Calling solver with defect correction order = 8
MG DL_MG: Solver finished
MG Hartree energy from (\int phi*rho dr):              1259.310503
MG Hartree energy from (\int eps (grad phi)^2 dr):     1258.652442
MG Discrepancy due to finite box and discretization:     -0.658061 (  -0.05226%)
MG Correction to account for finite box:                  0.465700
MG Remaining discrepancy, due to discretization:         -0.192361 (  -0.01528%)
      ideal mu1:      -0.717831379153
             Q0:  -11707.057143101352
             G0:      -1.066597948418
   RMS gradient:       0.000157578999
MG BCs: +ve charge blocks (gridpoints):     24389 (   16585447).
MG BCs: -ve charge blocks (gridpoints):      8327 (    1060506).
MG BCs:     Elided blocks (gridpoints):    172731 (  173130752).
MG BCs: Computational effort saved:  99.9829%.
MG BCs: Charge after coarse-graining:           -9.0006768.
MG DL_MG: Calling solver with defect correction order = 8
MG DL_MG: Solver finished
MG Hartree energy from (\int phi*rho dr):              1260.013338
MG Hartree energy from (\int eps (grad phi)^2 dr):     1259.354965
MG Discrepancy due to finite box and discretization:     -0.658373 (  -0.05225%)
MG Correction to account for finite box:                  0.465613
MG Remaining discrepancy, due to discretization:         -0.192759 (  -0.01530%)
     Trial step:       0.382633548512
             Q1:  -11707.293386588106
 Quadratic coef:       0.171872671086
 Linear coef   :      -0.408116157839
           Qmin:  -11707.299413727096
Quadratic minimum step length (  0.454286689944) accepted
    Initial Ne1:    7233.99992840
      Final Ne1:    7234.00000000

=================== Penalty functional idempotency correction ==================
 RMS occupancy error at iteration   1:  0.000183 (step -0.4981 Ne1=   7234.0000)
 RMS occupancy error at iteration   2:  0.000001 (step -0.5000 Ne1=   7234.0000)
            Final RMS occupancy error   :  0.000000 (Ne1=   7234.0000)
               Final occupancy bounds   : [  0.0000,  1.0000]
================================================================================

    2        -1.170705714310E+04     1.5758E-04     1.4255E-04    -1.5606E+00
MG BCs: +ve charge blocks (gridpoints):     24391 (   16585351).
MG BCs: -ve charge blocks (gridpoints):      8329 (    1060654).
MG BCs:     Elided blocks (gridpoints):    172729 (  173130700).
MG BCs: Computational effort saved:  99.9828%.
MG BCs: Charge after coarse-graining:           -9.0006768.
MG DL_MG: Calling solver with defect correction order = 8
MG DL_MG: Solver finished
MG Hartree energy from (\int phi*rho dr):              1260.144702
MG Hartree energy from (\int eps (grad phi)^2 dr):     1259.486269
MG Discrepancy due to finite box and discretization:     -0.658433 (  -0.05225%)
MG Correction to account for finite box:                  0.465597
MG Remaining discrepancy, due to discretization:         -0.192836 (  -0.01530%)
      ideal mu1:      -0.718498300585
             Q0:  -11707.299812793382
             G0:      -0.194079662852
   RMS gradient:       0.000067259172
MG BCs: +ve charge blocks (gridpoints):     24392 (   16584452).
MG BCs: -ve charge blocks (gridpoints):      8332 (    1061086).
MG BCs:     Elided blocks (gridpoints):    172728 (  173131167).
MG BCs: Computational effort saved:  99.9828%.
MG BCs: Charge after coarse-graining:           -9.0006769.
MG DL_MG: Calling solver with defect correction order = 8
MG DL_MG: Solver finished
MG Hartree energy from (\int phi*rho dr):              1259.579856
MG Hartree energy from (\int eps (grad phi)^2 dr):     1258.921556
MG Discrepancy due to finite box and discretization:     -0.658301 (  -0.05226%)
MG Correction to account for finite box:                  0.465492
MG Remaining discrepancy, due to discretization:         -0.192809 (  -0.01531%)
     Trial step:       0.416923647944
             Q1:  -11707.358478658949
 Quadratic coef:       0.022250535461
 Linear coef   :      -0.080916401028
           Qmin:  -11707.373378033719
Quadratic minimum step length (  0.758093241255) accepted
    Initial Ne1:    7233.99997817
      Final Ne1:    7234.00000000

=================== Penalty functional idempotency correction ==================
 RMS occupancy error at iteration   1:  0.000279 (step -0.4848 Ne1=   7234.0000)
 RMS occupancy error at iteration   2:  0.000003 (step -0.5000 Ne1=   7234.0000)
            Final RMS occupancy error   :  0.000000 (Ne1=   7234.0000)
               Final occupancy bounds   : [  0.0000,  1.0000]
================================================================================

    3        -1.170729981279E+04     6.7259E-05     6.0844E-05    -2.4267E-01
MG BCs: +ve charge blocks (gridpoints):     24391 (   16583801).
MG BCs: -ve charge blocks (gridpoints):      8331 (    1061408).
MG BCs:     Elided blocks (gridpoints):    172729 (  173131496).
MG BCs: Computational effort saved:  99.9828%.
MG BCs: Charge after coarse-graining:           -9.0006769.
MG DL_MG: Calling solver with defect correction order = 8
MG DL_MG: Solver finished
MG Hartree energy from (\int phi*rho dr):              1259.118180
MG Hartree energy from (\int eps (grad phi)^2 dr):     1258.459984
MG Discrepancy due to finite box and discretization:     -0.658195 (  -0.05227%)
MG Correction to account for finite box:                  0.465408
MG Remaining discrepancy, due to discretization:         -0.192787 (  -0.01531%)
      ideal mu1:      -0.717269751050
             Q0:  -11707.373240808607
             G0:      -0.093483844965
   RMS gradient:       0.000046745494
MG BCs: +ve charge blocks (gridpoints):     24389 (   16583824).
MG BCs: -ve charge blocks (gridpoints):      8331 (    1061384).
MG BCs:     Elided blocks (gridpoints):    172731 (  173131497).
MG BCs: Computational effort saved:  99.9828%.
MG BCs: Charge after coarse-graining:           -9.0006769.
MG DL_MG: Calling solver with defect correction order = 8
MG DL_MG: Solver finished
MG Hartree energy from (\int phi*rho dr):              1259.114404
MG Hartree energy from (\int eps (grad phi)^2 dr):     1258.456513
MG Discrepancy due to finite box and discretization:     -0.657891 (  -0.05225%)
MG Correction to account for finite box:                  0.465257
MG Remaining discrepancy, due to discretization:         -0.192634 (  -0.01530%)
     Trial step:       0.562198363237
             Q1:  -11707.408207137254
 Quadratic coef:       0.017590135982
 Linear coef   :      -0.052556464629
           Qmin:  -11707.412498350122
Quadratic minimum step length (  0.839878623523) accepted
    Initial Ne1:    7233.99998669
      Final Ne1:    7234.00000000

=================== Penalty functional idempotency correction ==================
 RMS occupancy error at iteration   1:  0.000617 (step -0.4636 Ne1=   7234.0000)
 RMS occupancy error at iteration   2:  0.000010 (step -0.4998 Ne1=   7234.0000)
            Final RMS occupancy error   :  0.000000 (Ne1=   7234.0000)
               Final occupancy bounds   : [ -0.0000,  1.0000]
================================================================================

    4        -1.170737324081E+04     4.6745E-05     4.2287E-05    -7.3428E-02
MG BCs: +ve charge blocks (gridpoints):     24388 (   16583846).
MG BCs: -ve charge blocks (gridpoints):      8332 (    1061365).
MG BCs:     Elided blocks (gridpoints):    172732 (  173131494).
MG BCs: Computational effort saved:  99.9828%.
MG BCs: Charge after coarse-graining:           -9.0006769.
MG DL_MG: Calling solver with defect correction order = 8
MG DL_MG: Solver finished
MG Hartree energy from (\int phi*rho dr):              1259.115868
MG Hartree energy from (\int eps (grad phi)^2 dr):     1258.458122
MG Discrepancy due to finite box and discretization:     -0.657746 (  -0.05224%)
MG Correction to account for finite box:                  0.465188
MG Remaining discrepancy, due to discretization:         -0.192558 (  -0.01529%)
      ideal mu1:      -0.717700205650
             Q0:  -11707.412213627831
             G0:      -0.103350804408
   RMS gradient:       0.000049115124
MG BCs: +ve charge blocks (gridpoints):     24388 (   16585793).
MG BCs: -ve charge blocks (gridpoints):      8329 (    1060641).
MG BCs:     Elided blocks (gridpoints):    172732 (  173130271).
MG BCs: Computational effort saved:  99.9829%.
MG BCs: Charge after coarse-graining:           -9.0006765.
MG DL_MG: Calling solver with defect correction order = 8
MG DL_MG: Solver finished
MG Hartree energy from (\int phi*rho dr):              1260.268468
MG Hartree energy from (\int eps (grad phi)^2 dr):     1259.611022
MG Discrepancy due to finite box and discretization:     -0.657446 (  -0.05217%)
MG Correction to account for finite box:                  0.464988
MG Remaining discrepancy, due to discretization:         -0.192458 (  -0.01527%)
     Trial step:       0.687152375723
             Q1:  -11707.453029536642
 Quadratic coef:       0.030201841972
 Linear coef   :      -0.071017750782
           Qmin:  -11707.453962082534
Quadratic minimum step length (  0.807898011886) accepted
    Initial Ne1:    7234.00003324
      Final Ne1:    7234.00000000

=================== Penalty functional idempotency correction ==================
 RMS occupancy error at iteration   1:  0.001847 (step -0.4050 Ne1=   7234.0000)
 RMS occupancy error at iteration   2:  0.000066 (step -0.4977 Ne1=   7234.0000)
 RMS occupancy error at iteration   3:  0.000000 (step -0.5000 Ne1=   7234.0000)
            Final RMS occupancy error   :  0.000000 (Ne1=   7234.0000)
               Final occupancy bounds   : [  0.0000,  1.0000]
================================================================================

    5        -1.170741221363E+04     4.9115E-05     4.4430E-05    -3.8973E-02
MG BCs: +ve charge blocks (gridpoints):     24388 (   16586163).
MG BCs: -ve charge blocks (gridpoints):      8329 (    1060524).
MG BCs:     Elided blocks (gridpoints):    172732 (  173130018).
MG BCs: Computational effort saved:  99.9829%.
MG BCs: Charge after coarse-graining:           -9.0006764.
MG DL_MG: Calling solver with defect correction order = 8
MG DL_MG: Solver finished
MG Hartree energy from (\int phi*rho dr):              1260.474683
MG Hartree energy from (\int eps (grad phi)^2 dr):     1259.817288
MG Discrepancy due to finite box and discretization:     -0.657395 (  -0.05215%)
MG Correction to account for finite box:                  0.464955
MG Remaining discrepancy, due to discretization:         -0.192441 (  -0.01527%)
      ideal mu1:      -0.719514478161
             Q0:  -11707.454218182014
             G0:      -0.092584971962
   RMS gradient:       0.000045425431
MG BCs: +ve charge blocks (gridpoints):     24387 (   16586144).
MG BCs: -ve charge blocks (gridpoints):      8326 (    1060637).
MG BCs:     Elided blocks (gridpoints):    172733 (  173129924).
MG BCs: Computational effort saved:  99.9829%.
MG BCs: Charge after coarse-graining:           -9.0006765.
MG DL_MG: Calling solver with defect correction order = 8
MG DL_MG: Solver finished
MG Hartree energy from (\int phi*rho dr):              1260.228689
MG Hartree energy from (\int eps (grad phi)^2 dr):     1259.571324
MG Discrepancy due to finite box and discretization:     -0.657365 (  -0.05216%)
MG Correction to account for finite box:                  0.464878
MG Remaining discrepancy, due to discretization:         -0.192487 (  -0.01527%)
     Trial step:       0.745083242470
             Q1:  -11707.493165283580
 Quadratic coef:       0.030036409547
 Linear coef   :      -0.068983511114
           Qmin:  -11707.493826151785
Quadratic minimum step length (  0.855602565552) accepted
    Initial Ne1:    7234.00003010
      Final Ne1:    7234.00000000

=================== Penalty functional idempotency correction ==================
 RMS occupancy error at iteration   1:  0.003296 (step -0.3531 Ne1=   7234.0000)
 RMS occupancy error at iteration   2:  0.000178 (step -0.4931 Ne1=   7234.0000)
 RMS occupancy error at iteration   3:  0.000003 (step -0.5000 Ne1=   7234.0000)
            Final RMS occupancy error   :  0.000000 (Ne1=   7234.0000)
               Final occupancy bounds   : [  0.0000,  1.0000]
================================================================================

    6        -1.170745421818E+04     4.5425E-05     4.1093E-05    -4.2005E-02
MG BCs: +ve charge blocks (gridpoints):     24386 (   16586165).
MG BCs: -ve charge blocks (gridpoints):      8326 (    1060633).
MG BCs:     Elided blocks (gridpoints):    172734 (  173129907).
MG BCs: Computational effort saved:  99.9829%.
MG BCs: Charge after coarse-graining:           -9.0006765.
MG DL_MG: Calling solver with defect correction order = 8
MG DL_MG: Solver finished
MG Hartree energy from (\int phi*rho dr):              1260.194441
MG Hartree energy from (\int eps (grad phi)^2 dr):     1259.537108
MG Discrepancy due to finite box and discretization:     -0.657333 (  -0.05216%)
MG Correction to account for finite box:                  0.464841
MG Remaining discrepancy, due to discretization:         -0.192492 (  -0.01527%)
      ideal mu1:      -0.719511344852
             Q0:  -11707.497674428159
             G0:      -0.072651202391
   RMS gradient:       0.000041188703
MG BCs: +ve charge blocks (gridpoints):     24388 (   16583946).
MG BCs: -ve charge blocks (gridpoints):      8329 (    1061357).
MG BCs:     Elided blocks (gridpoints):    172732 (  173131402).
MG BCs: Computational effort saved:  99.9829%.
MG BCs: Charge after coarse-graining:           -9.0006769.
MG DL_MG: Calling solver with defect correction order = 8
MG DL_MG: Solver finished
MG Hartree energy from (\int phi*rho dr):              1259.044722
MG Hartree energy from (\int eps (grad phi)^2 dr):     1258.387347
MG Discrepancy due to finite box and discretization:     -0.657375 (  -0.05221%)
MG Correction to account for finite box:                  0.464836
MG Remaining discrepancy, due to discretization:         -0.192539 (  -0.01529%)
     Trial step:       0.798432923800
             Q1:  -11707.522751564160
 Quadratic coef:       0.032929975941
 Linear coef   :      -0.058007111942
           Qmin:  -11707.523219732549
Quadratic minimum step length (  0.703231427675) accepted
    Initial Ne1:    7233.99999948
      Final Ne1:    7234.00000000

=================== Penalty functional idempotency correction ==================
 RMS occupancy error at iteration   1:  0.000064 (step -0.4955 Ne1=   7234.0000)
 RMS occupancy error at iteration   2:  0.000000 (step -0.5000 Ne1=   7234.0000)
            Final RMS occupancy error   :  0.000000 (Ne1=   7234.0000)
               Final occupancy bounds   : [  0.0000,  1.0000]
================================================================================

    7        -1.170749767443E+04     4.1189E-05     3.7260E-05    -4.3456E-02
MG BCs: +ve charge blocks (gridpoints):     24388 (   16584186).
MG BCs: -ve charge blocks (gridpoints):      8330 (    1061291).
MG BCs:     Elided blocks (gridpoints):    172732 (  173131228).
MG BCs: Computational effort saved:  99.9829%.
MG BCs: Charge after coarse-graining:           -9.0006768.
MG DL_MG: Calling solver with defect correction order = 8
MG DL_MG: Solver finished
MG Hartree energy from (\int phi*rho dr):              1259.181031
MG Hartree energy from (\int eps (grad phi)^2 dr):     1258.523661
MG Discrepancy due to finite box and discretization:     -0.657370 (  -0.05221%)
MG Correction to account for finite box:                  0.464837
[...]
MG Hartree energy from (\int eps (grad phi)^2 dr):     1216.547601
MG Discrepancy due to finite box and discretization:     -0.198137 (  -0.01628%)
MG Correction to account for finite box:                  0.006330
MG Remaining discrepancy, due to discretization:         -0.191807 (  -0.01576%)
     Trial step:       0.298587801256
             Q1:  -11742.366822990472
 Quadratic coef:       0.000000000840
 Linear coef   :      -0.000000001306
           Qmin:  -11742.366822990514
Quadratic minimum step length (  0.232084462417) accepted
    Initial Ne1:    7234.00000000
      Final Ne1:    7234.00000000

=================== Penalty functional idempotency correction ==================
 RMS occupancy error at iteration   1:  0.000000 (step -0.5000 Ne1=   7234.0000)
            Final RMS occupancy error   :  0.000000 (Ne1=   7234.0000)
               Final occupancy bounds   : [  0.0000,  1.0000]
================================================================================

    7        -1.174236682299E+04     1.0108E-08     9.1437E-09    -6.9849E-10

Reusing previously generated solute cavity.
MG BCs: +ve charge blocks (gridpoints):     28811 (   18788969).
MG BCs: -ve charge blocks (gridpoints):      8297 (    1030696).
MG BCs:     Elided blocks (gridpoints):    168309 (  170957040).
MG BCs: Computational effort saved:  99.9805%.
MG BCs: Charge after coarse-graining:           -9.0009467.
MG DL_MG: Calling solver with defect correction order = 8
MG DL_MG: Solver finished
MG Hartree energy from (\int phi*rho dr):              1216.745735
MG Hartree energy from (\int eps (grad phi)^2 dr):     1216.547599
MG Discrepancy due to finite box and discretization:     -0.198137 (  -0.01628%)
MG Correction to account for finite box:                  0.006330
MG Remaining discrepancy, due to discretization:         -0.191807 (  -0.01576%)
      ideal mu1:      -0.481017898630
             Q0:  -11742.366822990472
             G0:      -0.000000002753
   RMS gradient:       0.000000006405

Reusing previously generated solute cavity.
MG BCs: +ve charge blocks (gridpoints):     28811 (   18788969).
MG BCs: -ve charge blocks (gridpoints):      8297 (    1030696).
MG BCs:     Elided blocks (gridpoints):    168309 (  170957040).
MG BCs: Computational effort saved:  99.9805%.
MG BCs: Charge after coarse-graining:           -9.0009467.
MG DL_MG: Calling solver with defect correction order = 8
MG DL_MG: Solver finished
MG Hartree energy from (\int phi*rho dr):              1216.745742
MG Hartree energy from (\int eps (grad phi)^2 dr):     1216.547605
MG Discrepancy due to finite box and discretization:     -0.198137 (  -0.01628%)
MG Correction to account for finite box:                  0.006330
MG Remaining discrepancy, due to discretization:         -0.191807 (  -0.01576%)
     Trial step:       0.263244352910
             Q1:  -11742.366822990356
 Quadratic coef:       0.000000000840
 Linear coef   :      -0.000000000725
           Qmin:  -11742.366822990629
Quadratic minimum step length (  0.113493643189) accepted
    Initial Ne1:    7234.00000000
      Final Ne1:    7234.00000000

=================== Penalty functional idempotency correction ==================
 RMS occupancy error at iteration   1:  0.000000 (step -0.5000 Ne1=   7234.0000)
            Final RMS occupancy error   :  0.000000 (Ne1=   7234.0000)
               Final occupancy bounds   : [  0.0000,  1.0000]
================================================================================

    8        -1.174236682299E+04     6.4045E-09     5.7936E-09    -4.6566E-10

Reusing previously generated solute cavity.
MG BCs: +ve charge blocks (gridpoints):     28811 (   18788969).
MG BCs: -ve charge blocks (gridpoints):      8297 (    1030696).
MG BCs:     Elided blocks (gridpoints):    168309 (  170957040).
MG BCs: Computational effort saved:  99.9805%.
MG BCs: Charge after coarse-graining:           -9.0009467.
MG DL_MG: Calling solver with defect correction order = 8
MG DL_MG: Solver finished
MG Hartree energy from (\int phi*rho dr):              1216.745738
MG Hartree energy from (\int eps (grad phi)^2 dr):     1216.547601
MG Discrepancy due to finite box and discretization:     -0.198137 (  -0.01628%)
MG Correction to account for finite box:                  0.006330
MG Remaining discrepancy, due to discretization:         -0.191807 (  -0.01576%)
      ideal mu1:      -0.481017898774
             Q0:  -11742.366822990472
             G0:      -0.000000002663
   RMS gradient:       0.000000005309

Reusing previously generated solute cavity.
MG BCs: +ve charge blocks (gridpoints):     28811 (   18788969).
MG BCs: -ve charge blocks (gridpoints):      8297 (    1030696).
MG BCs:     Elided blocks (gridpoints):    168309 (  170957040).
MG BCs: Computational effort saved:  99.9805%.
MG BCs: Charge after coarse-graining:           -9.0009467.
MG DL_MG: Calling solver with defect correction order = 8
MG DL_MG: Solver finished
MG Hartree energy from (\int phi*rho dr):              1216.745741
MG Hartree energy from (\int eps (grad phi)^2 dr):     1216.547604
MG Discrepancy due to finite box and discretization:     -0.198137 (  -0.01628%)
MG Correction to account for finite box:                  0.006330
MG Remaining discrepancy, due to discretization:         -0.191807 (  -0.01576%)
     Trial step:       0.172848374770
             Q1:  -11742.366822990356
 Quadratic coef:       0.000000000577
 Linear coef   :      -0.000000000460
           Qmin:  -11742.366822990563
Quadratic minimum step length (  0.068987668186) accepted
    Initial Ne1:    7234.00000000
      Final Ne1:    7234.00000000

=================== Penalty functional idempotency correction ==================
 RMS occupancy error at iteration   1:  0.000000 (step -0.5000 Ne1=   7234.0000)
            Final RMS occupancy error   :  0.000000 (Ne1=   7234.0000)
               Final occupancy bounds   : [  0.0000,  1.0000]
================================================================================

    9        -1.174236682299E+04     5.3091E-09     4.8027E-09     0.0000E+00

Reusing previously generated solute cavity.
MG BCs: +ve charge blocks (gridpoints):     28811 (   18788969).
MG BCs: -ve charge blocks (gridpoints):      8297 (    1030696).
MG BCs:     Elided blocks (gridpoints):    168309 (  170957040).
MG BCs: Computational effort saved:  99.9805%.
MG BCs: Charge after coarse-graining:           -9.0009467.
MG DL_MG: Calling solver with defect correction order = 8
MG DL_MG: Solver finished
MG Hartree energy from (\int phi*rho dr):              1216.745739
MG Hartree energy from (\int eps (grad phi)^2 dr):     1216.547602
MG Discrepancy due to finite box and discretization:     -0.198137 (  -0.01628%)
MG Correction to account for finite box:                  0.006330
MG Remaining discrepancy, due to discretization:         -0.191807 (  -0.01576%)
      ideal mu1:      -0.481017897416
   10        -1.174236682299E+04     4.6522E-09     4.2084E-09     1.1642E-10
Finished density kernel iterations (  10)

Writing density kernel to file "complex_6941.dkn" ... done


>>> Density kernel optimised for the current NGWF basis:
     ~~~~~~~~~~~~~~~~~~~~~~~~~~~~~~~~~~~~~~~~~~~~~~~~~~~~~~~~~~~
     Total energy                =  -1.17423668229904E+04  Eh
     Estimated bandgap           =   8.5254E-02  Eh
     RMS occupancy error         =   8.4164E-16
     [H,K] commutator            =   4.2084E-09
     Occupancy bounds            = [  0.000:  1.000]
     ~~~~~~~~~~~~~~~~~~~~~~~~~~~~~~~~~~~~~~~~~~~~~~~~~~~~~~~~~~~




################################################################################
########################### NGWF CG iteration  005 #############################
################################################################################
****** Reciprocal space K.E. preconditioning with k_zero =  3.5000 a0^-1 *******

>>> Checking for convergence of NGWFs: 
           ........................................................
           |         *** NGWF optimisation converged ***          |
           | RMS NGWF gradient =    0.00000088568566              |
           | Criteria satisfied:                                  |
           | -> RMS NGWF gradient lower than set threshold.       |
           ========================================================

Reusing previously generated solute cavity.
MG BCs: +ve charge blocks (gridpoints):     28811 (   18788969).
MG BCs: -ve charge blocks (gridpoints):      8297 (    1030696).
MG BCs:     Elided blocks (gridpoints):    168309 (  170957040).
MG BCs: Computational effort saved:  99.9805%.
MG BCs: Charge after coarse-graining:           -9.0009467.
MG DL_MG: Calling solver with defect correction order = 8
MG DL_MG: Solver finished
MG Hartree energy from (\int phi*rho dr):              1216.745739
MG Hartree energy from (\int eps (grad phi)^2 dr):     1216.547602
MG Discrepancy due to finite box and discretization:     -0.198137 (  -0.01628%)
MG Correction to account for finite box:                  0.006330
MG Remaining discrepancy, due to discretization:         -0.191807 (  -0.01576%)

================================================================================
           ---------------- ENERGY COMPONENTS (Eh) ----------------
           | Kinetic                    :     8574.63035762876098 |
           | Pseudo. (local,OBC,corr'd) :    -5075.37080856445664 |
           | Pseudopotential (non-local):     1411.56615230823900 |
           | Hartree (molecular)        :     1216.74573909440369 |
           | Exchange-correlation       :    -3376.78875179284023 |
           | Ion-ion (open BC)          :   834452.40987776964903 |
           | Dispersion Correction      :       -3.29151768510857 |
           | Smeared ion non-self corr. :  -834403.96319055126514 |
           | Smeared ion self corr.     :   -14538.95273137971344 |
           | Solvent cavitation energy  :        2.30561302788641 |
           | Solute-solvent dis-rep en. :       -1.65756284607323 |
           | Total                      :   -11742.36682299051972 |
           --------------------------------------------------------
           ------ LOCAL ENERGY COMPONENTS FROM MATRIX TRACES ------
           | Pseudopotential (local)    :    -5075.37080856443572 |
           | Hartree                    :    -2002.14779303421710 |
           --------------------------------------------------------
           Integrated density           :     7233.99999999807096
           Integrated density tr(KS)    :     7234.00000000000000
================================================================================


                        <<<<< CALCULATION SUMMARY >>>>>                         
|ITER|    RMS GRADIENT   |     TOTAL ENERGY    |   step   |     Epredicted              
   0     0.00004063385963 -11742.30421549000312   0.610653 -11742.35819564812482        
   1     0.00001017667749 -11742.36623931361828   0.087216 -11742.36672289648413        
   2     0.00000448206634 -11742.36680264433380   0.015880 -11742.36681972375482        
   3     0.00000200361836 -11742.36682216508780   0.003221 -11742.36682285744246        
   4     0.00000088568566 -11742.36682299035601  <-- CG                                 

=================== Finished the calculation in solvent ========================
= Adjusting the following parameters: 
= read_denskern: F
= read_tightbox_ngwfs: F
= maxit_pen: 0 (restored to user-specified value)
= restart read filename prefix: ""
= restart write filename prefix: ""
================================================================================

================================================================================
IS: Calculation in solvent completed (NGWFs converged).      

Individual components of total energy in solvent:     hartree           kcal/mol
- Usual non-electrostatic DFT terms:    -12959.76061226657112    -8132372.389354
- Electrostatic fixed charge energy:      1216.74573909440369      763519.462243
- Apolar cavitation energy:                  2.30561302788641        1446.793987
- Apolar dispersion-repulsion energy:       -1.65756284607323       -1040.136367
 -------------------------------------------------------------------------------
- Total energy in solvent:              -11742.36682299035601    -7368446.269491

Components of total energy in solvent:                hartree           kcal/mol
- Usual non-electrostatic DFT terms:    -12959.76061226657112    -8132372.389354
- Electrostatic energy:                   1216.74573909440369      763519.462243
- Apolar energy terms:                       0.64805018181317         406.657620
 -------------------------------------------------------------------------------
- Total energy in solvent:              -11742.36682299035601    -7368446.269491

Calculation of free energy of solvation:              hartree           kcal/mol
- Total energy in solvent:         (+)  -11742.36682299035601    -7368446.269491
- Total energy in vacuum:          (-)  -11738.54322725743987    -7366046.926996
 -------------------------------------------------------------------------------
- Total free energy of solvation:           -3.82359573291615       -2399.342495

Components of polar term in f.e. of solvation:        hartree           kcal/mol
- Electrostatic:                            -4.62965415841063       -2905.151783
- Change in nonelectrostatic DFT terms:      0.15800824368307          99.151668
 -------------------------------------------------------------------------------
- Polar term in f.e. of solvation:          -4.47164591472756       -2806.000115

Components of free energy of solvation:               hartree           kcal/mol
- Polar term in f.e. of solvation: (+)      -4.47164591472756       -2806.000115
- Apolar (cavitation, dis., rep.): (+)       0.64805018181317         406.657620
 -------------------------------------------------------------------------------
- Total free energy of solvation:           -3.82359573291439       -2399.342495
================================================================================


------------------------------ TIMING INFORMATION ------------------------------
AVERAGE TIME:   28429.682s on     40 node(s)                                    
TOTAL TIME:     28429.683s on     40 node(s)                                    
================= AVERAGE TIMINGS FROM ALL NODES (CUMULATIVE) ==================
|| TAG                                    #calls    cpu time   %total  Gflops ||
|| work_imbalance                       :     1        0.00s   0.000%  ------ ||
|| parallel_prepare_fd_halos_request    :  2067        0.02s   0.000%  ------ ||
|| sparse_set_to_garbage                :   194        0.05s   0.000%  ------ ||
|| parallel_prepare_fd_halos_satisfy    :  2067        0.06s   0.000%  ------ ||
|| ngwfs_initialise_from_radial         :     1        0.15s   0.001%  ------ ||
|| parallel_prepare_fd_halos_alloc      :  2067        0.20s   0.001%  ------ ||
|| basis_extract_function_from_box      :  5726        0.23s   0.001%  ------ ||
|| restart_ngwfs_tightbox_input         :     1        1.09s   0.004%  ------ ||
|| pseudopotentials_nonlocal_mat        :    33        1.47s   0.005%  ------ ||
|| parallel_prepare_fd_halos_comms_imbal:  2067        3.42s   0.012%  ------ ||
|| openbc_locps_radial                  :     1        4.61s   0.016%  ------ ||
|| restart_kernel_read                  :     1        4.68s   0.016%  ------ ||
|| density_init_guess_real              :     1        7.50s   0.026%  ------ ||
|| restart_kernel_write                 :    18       13.50s   0.047%  ------ ||
|| parallel_prepare_fd_halos_clear      :  2067       15.13s   0.053%  ------ ||
|| sparse_init                          :     2       23.06s   0.081%  ------ ||
|| parallel_prepare_fd_halos_comms_wait :  2067       26.10s   0.092%  ------ ||
|| projectors_func_ovlp_box             :    33       26.68s   0.094%  ------ ||
|| projectors_init_fftbox_recip         :   220       28.55s   0.100%  ------ ||
|| function_ops_brappd_ketppd           :    33       33.82s   0.119%  ------ ||
|| parallel_prepare_fd_halos            :  2067       44.94s   0.158%  ------ ||
|| palser_mano_kernel_optimise          :     1       53.70s   0.189%  ------ ||
|| pseudo_make_structure_factor         :     2       54.78s   0.193%  ------ ||
|| fourier_apply_box_pair               :  8268       57.34s   0.202% 556.536 ||
|| basis_copy_function_to_box           : 93252       59.11s   0.208%  ------ ||
|| ngwf_gradient_coeffs                 :    17       69.12s   0.243%  ------ ||
|| restart_ngwfs_tightbox_output        :    15       84.80s   0.298%  ------ ||
|| sparse_embed_hotelling_invert_embed  :    33      106.87s   0.376%  ------ ||
|| finite_difference_derivative         :  2067      110.59s   0.389%  ------ ||
|| openbc_locps_on_grid                 :     2      187.37s   0.659%  ------ ||
|| integrals_kinetic                    :    33      197.98s   0.696%  ------ ||
|| projectors_gradient_batch            :   187      225.07s   0.792%  ------ ||
|| fourier_apply_cell_backward          :  1379      226.14s   0.795%  83.006 ||
|| fourier_apply_cell_forward           :  1377      231.51s   0.814%  80.963 ||
|| sparse_trace                         :  5635      292.25s   1.028%  ------ ||
|| basis_dot_function_with_box          : 14.27M     336.48s   1.184%  ------ ||
|| kernel_purify                        :   526      378.88s   1.333%  ------ ||
|| hamiltonian_energy_components        :     4      425.95s   1.498%  ------ ||
|| xc_energy_potential                  :   344      537.07s   1.889%  ------ ||
|| lnv_gradient_norm                    :   170      624.72s   2.197%  ------ ||
|| basis_add_function_to_box            : 29.73M     632.01s   2.223%  ------ ||
|| kernel_fix                           :   170      714.26s   2.512%  ------ ||
|| ngwf_gradient_build_batch            :   187      812.02s   2.856%  ------ ||
|| cell_grid_deposit_box_real           : 58384      920.12s   3.236%  ------ ||
|| cell_grid_extract_box_real           : 54160     1050.93s   3.697%  ------ ||
|| integrals_locpot_mat_els_batch       :  1969     1100.01s   3.869%  ------ ||
|| ngwf_gradient_batch                  :   187     1144.47s   4.026%  ------ ||
|| ngwf_gradient_lnv                    :    17     1313.17s   4.619%  ------ ||
|| density_batch_row_sums               :  3773     1473.31s   5.182%  ------ ||
|| density_fftbox_deposit_to_cell       : 56252     1557.28s   5.478%  ------ ||
|| sparse_product                       :  7114     2371.56s   8.342%  ------ ||
|| multigrid_prepare_bound_cond         :   344     2642.66s   9.295%  ------ ||
|| potential_apply_to_ngwf_batch        :  1969     3486.29s  12.263%  ------ ||
|| fourier_apply_box                    : 194.2k    3916.14s  13.775% 927.685 ||
|| density_fftbox_interpolate_multiply  : 56252     3918.69s  13.784%  ------ ||
|| integrals_locpot_dbl_grid            :   179     4606.31s  16.202%  ------ ||
|| density_batch_interp_deposit         :  3773     6146.63s  21.620%  ------ ||
|| dl_mg_solver_calls                   :   344     6911.05s  24.309%  ------ ||
|| density_on_dbl_grid                  :   343     8062.29s  28.359%  ------ ||
|| multigrid_calculate_hartree          :   344     9710.07s  34.155%  ------ ||
|| hamiltonian_lhxc_calculate           :   339    18347.58s  64.537%  ------ ||
|| lnv_denskernel_optimise_cg           :    17    24402.24s  85.834%  ------ ||
|| ngwf_cg_optimise                     :     2    27615.04s  97.135%  ------ ||
|| total_time                           :     1    28429.68s 100.000%  ------ ||
================================================================================
Overhead of generating timer report: 
- 0 ms averaging over threads,
- 5 ms ensuring consistency across MPI ranks,
- 2 ms printing in order.

Job completed: 21-05-2020 06:37 (+0100)

