 +---------------------------------------------------------------+
 |                                                               |
 |        ####### #     # ####### ####### ####### ######         |
 |        #     # ##    # #          #    #       #     #        |
 |        #     # # #   # #          #    #       #     #        |
 |        #     # #  #  # #####      #    #####   ######         |
 |        #     # #   # # #          #    #       #              |
 |        #     # #    ## #          #    #       #              |
 |        ####### #     # #######    #    ####### #              |
 |                                                               |
 |        Linear-Scaling Ab Initio Total Energy Program          |
 |                                                               |
 |          Release for academic collaborators of ODG            |
 |                                             Version 5.3.2.6.  |
 |                                                               |
 +---------------------------------------------------------------+
 |                                                               |
 |  Authors:                                                     |
 |  Jacek Dziedzic, Peter D. Haynes, Nicholas D. M. Hine,        |
 |  Arash. A. Mostofi, Mike C. Payne and Chris-Kriton Skylaris   |
 |                                                               |
 |  Contributors:                                                |
 |  J. Aarons, L. Andrinopoulos, P. W. Avraam, R. A. Bell,       |
 |  A. Bhandari, G. A. Bramley, R. J. Charlton, S. J. Clark,     |
 |  R. J. Clements, G. C. Constantinescu, F. Corsetti,           |
 |  N. Corsini, O. Dieguez, S. M. M. Dubois, K. K. B. Duff,      |
 |  J. M. Escartin, A. Greco, H. Helal, Q. O. Hill, L. P. Lee,   |
 |  J.-H. Li, E. B. Linscott, G. Moynihan, D. D. O`Regan,        |
 |  O. K. Okan, M. J. S. Phipps, C. J. Pickard,                  |
 |  J. C. A. Prentice, M. I. J. Probert, L. E. Ratcliff,         |
 |  M. Robinson, A. Ruiz Serrano, J. S. Spencer, E. W. Tait,     |
 |  G. Teobaldi, D. Turban, V. Vitale, K. A. Wilkinson,          |
 |  C. Weber, J. C. Womack, N. Yeung and T. J. Zuehlsdorff       |
 |                                                               |
 |                                   Copyright (c) 2004-2019     |
 |                                                               |
 |  Please cite:                                                 |
 |  "Introducing ONETEP: Linear-scaling density functional       |
 |   simulations on parallel computers".                         |
 |   C.-K. Skylaris, P. D. Haynes, A. A. Mostofi, M. C. Payne.   |
 |   J. Chem. Phys. 122 084119 (2005).                           |
 |                                                               |
 |          in all publications arising from your use of ONETEP. |
 |                                                               |
 +---------------------------------------------------------------+
 |                                                               |
 |   ONETEP is based on developments described in the following  |
 |   publications:                                               |
 |                                                               |
 |  "Nonorthogonal generalized Wannier function pseudopotential  |
 |   plane-wave method".                                         |
 |   C.-K. Skylaris, A. A. Mostofi, P. D. Haynes, O. Dieguez,    |
 |   M. C. Payne.                                                |
 |   Phys. Rev. B 66 035119 (2002).                              |
 |                                                               |
 |  "Preconditioned iterative minimization for linear-scaling    |
 |   electronic structure calculations".                         |
 |   A. A. Mostofi, P. D. Haynes, C.-K. Skylaris, M. C. Payne.   |
 |   J. Chem. Phys. 119(17), pp.8842-8848 (2003).                |
 |                                                               |
 |  "Total-energy calculations on a real space grid with         |
 |   localized functions and a plane-wave basis".                |
 |   A. A. Mostofi, C.-K. Skylaris, P. D. Haynes, M. C. Payne.   |
 |   Comput. Phys. Commun. 147, pp.788-802 (2002).               |
 |                                                               |
 |  "Accurate kinetic energy evaluation in electronic structure  |
 |   calculations with localized functions on real space grids"  |
 |   C.-K. Skylaris, A. A. Mostofi, P. D. Haynes, C. J. Pickard, |
 |   M. C. Payne.                                                |
 |   Comput. Phys. Commun. 140, pp.315-322 (2001).               |
 |                                                               |
 |  "Accurate ionic forces and geometry optimization in linear-  |
 |   scaling density-functional theory with local orbitals"      |
 |   N. D. M. Hine, M. Robinson, P. D. Haynes, C.-K. Skylaris,   |
 |   M. C. Payne, and A. A. Mostofi.                             |
 |   Phys. Rev. B 83 195102 (2011).                              |
 |                                                               |
 +---------------------------------------------------------------+

Job started: 30-05-2020 18:36 (+0100)
 
Reading parameters from file "complex_38101.dat" ...... done

If your calculation crashes here, before "Checking processes and threads..."
is displayed, then your stack size is insufficient.
If so, use "ulimit -s unlimited" at runtime.
You can disable this check with "check_stack_size F".

Checking processes and threads...
   Determining the default number of threads...
      No default threads set at compilation time: defaulting to 1.
      OpenMP library call suggests 4 threads.
      Hybrid MPI-OpenMP compilation detected.
      Number of MPI processes > 1.
      OMP_NUM_THREADS environment variable present and
      its value matches the one obtained from the OpenMP library call.
      Using this value as default.
      Default threads: 4
      Default applies to threads_max and threads_num_fftboxes.
      Settings in the input file override this default.
   ... done

   Running with 60 MPI processes.
   There are 6 MPI processes running on the same node as the root process.
   Each MPI process is using: 
               1 threads for simulation cell FFTs.
               1 threads for parallel FFT box operations.
               4 threads for loops over batched FFT box operations.
               4 threads in other parallel regions.
... done

Basic input checks...... done

Reading geometry and species blocks from file "complex_38101.dat" ...
  <species_atomic_set> block not found: NGWF initialisation set to SOLVE
IS: Dielectric excluded regions:
    - NONE.
    
  Number of PPD points along a3 set to 1.  This is 
  the default value, it may have been provided also in the input file.
... done
 Writing xyz coordinates to file "complex_38101.xyz" ... done


--------------------------------------------------------------------------------
---------------------------------- INPUT FILE ----------------------------------
--------------------------------------------------------------------------------

cutoff_energy       : 800 eV                                                    
xc_functional PBE                                                               
task SINGLEPOINT                                                                
write_xyz true                                                                  
output_detail VERBOSE                                                           
ngwf_threshold_orig : 0.000002                                                  
kernel_cutoff       : 1000                                                      
k_zero              : 3.5                                                       
elec_cg_max 0                                                                   
occ_mix 1.0                                                                     
dispersion 1                                                                    
maxit_ngwf_cg 40                                                                
minit_lnv 10                                                                    
maxit_lnv 10                                                                    
write_denskern T                                                                
write_tightbox_ngwfs T                                                          
charge 9                                                                        
is_implicit_solvent T                                                           
is_auto_solvation T                                                             
is_include_apolar T                                                             
is_smeared_ion_rep T                                                            
is_solvent_surf_tension 4.7624E-5 Ha/bohr**2                                    
is_apolar_scaling_factor 0.281075                                               
is_solvation_beta 1.3                                                           
is_density_threshold 0.00035                                                    
is_bulk_permittivity 78.54                                                      
is_dielectric_model fix_initial                                                 
is_smeared_ion_width 0.8                                                        
mg_defco_fd_order 8                                                             
is_bc_coarseness 10                                                             
is_bc_surface_coarseness 1                                                      
fine_grid_scale 2.0                                                             
%block species                                                                  
N   N   7 4 8.0                                                                 
H   H   1 1 8.0                                                                 
C   C   6 4 8.0                                                                 
S   S  16 9 8.0                                                                 
O   O   8 4 8.0                                                                 
%endblock species                                                               
%block species_pot                                                              
N   N_00.recpot                                                                 
H   H_04.recpot                                                                 
C   C_01.recpot                                                                 
S   S_00.recpot                                                                 
O   O_02.recpot                                                                 
%endblock species_pot                                                           
%block lattice_cart                                                             
139.252   0.000   0.000                                                         
0.000 142.425   0.000                                                           
0.000   0.000   162.84                                                          
%endblock lattice_cart                                                          
%block positions_abs                                                            
     Hash =  -000000185620055669721545
%endblock positions_abs                                                         

--------------------------------------------------------------------------------
-------------------------------- END INPUT FILE --------------------------------
--------------------------------------------------------------------------------


 
 ESDF WARNING(1): "kernelcutoff" (esdf_physical) has no units. Assume "bohr".
 ESDF WARNING(2): "kzero" (esdf_physical) has no units. Assume "1/bohr".
 ESDF WARNING(3
 ): "issmearedionwidth" (esdf_physical) has no units. Assume "bohr".
<<<<<<<<<<<<<<<<<<<<<<<<<<<<<<<<< Full system >>>>>>>>>>>>>>>>>>>>>>>>>>>>>>>>>>
<<<<<<<<<<<<<<<<<<<<<<<<< Pseudopotential information >>>>>>>>>>>>>>>>>>>>>>>>>>
File: N_00.recpot [ 2001 points up to Gmax=  52.9 (1/bohr)]
  Atomic number:  7;  ionic charge:  5.000000
    Shell 1: l = 0; rc = 1.48 bohr
File: H_04.recpot [ 2001 points up to Gmax=  52.9 (1/bohr)]
  Atomic number:  1;  ionic charge:  1.000000
    Local potential
File: C_01.recpot [ 2001 points up to Gmax=  52.9 (1/bohr)]
  Atomic number:  6;  ionic charge:  4.000000
    Shell 1: l = 0; rc = 1.48 bohr
File: S_00.recpot [ 2001 points up to Gmax=  52.9 (1/bohr)]
  Atomic number: 16;  ionic charge:  6.000000
    Shell 1: l = 0; rc = 1.90 bohr
    Shell 2: l = 2; rc = 1.84 bohr
File: O_02.recpot [ 2001 points up to Gmax=  52.9 (1/bohr)]
  Atomic number:  8;  ionic charge:  6.000000
    Shell 1: l = 0; rc = 1.31 bohr
<<<<<<<<<<<<<<<<<<<<<<<<<<<<<<<<<<<<<<<<>>>>>>>>>>>>>>>>>>>>>>>>>>>>>>>>>>>>>>>>

-------------------------- Atom counting information ---------------------------
Symbol    Natoms    Nngwfs    Nprojs
  N        237       948       237
  H       1318      1318         0
  C        816      3264       816
  S          6        54        36
  O        240       960       240
.......   ......    ......    ......
Totals:   2617      6544      1329
--------------------------------------------------------------------------------

=============================== PSINC grid sizes ===============================
                      Simulation cell:  275 x 280 x 320
                              FFT-box:   99 x  99 x  99
                                  PPD:    5 x   5 x   1
Grid space d1=  0.506370909091a0 (KE cutoff=  29.62556Eh = 806.15239eV)
Grid space d2=  0.508660714286a0 (KE cutoff=  29.35943Eh = 798.91072eV)
Grid space d3=  0.508875000000a0 (KE cutoff=  29.33471Eh = 798.23802eV)
================================================================================

********************* Fourier parallelisation information **********************
       Coarse grid (whole simulation cell) dimensions:    275   280   320
          Real-space ('12') slabs/node (min max mean):      5     6     5
         Recip-space ('23') slabs/node (min max mean):      2     3     2
********************************************************************************

********************* Fourier parallelisation information **********************
       Double grid (whole simulation cell) dimensions:    550   560   640
          Real-space ('12') slabs/node (min max mean):     10    11    10
         Recip-space ('23') slabs/node (min max mean):      4     5     4
********************************************************************************
ONETEP fine grid is 550 x 560 x 640 gridpoints, 139.2520 x 142.4250 x 162.8400 bohr.
FD multigrid is     545 x 553 x 633 gridpoints, 137.9861 x 140.6447 x 161.0589 bohr.


Calculating local pseudopotential in open BC on a radial grid ...
Discrepancy between calculated realspace psloc and -Z/x on [5a0,257.280a0]:
max |rel. diff| # avg |rel. diff| #  avg rel. diff #  f # pseudopotential file
 0.000256370913    0.000003612608   0.000000072509   55  'N_00.recpot'
 0.000395389207    0.000016224277  -0.000000076597   55  'H_04.recpot'
 0.000377360759    0.000017565724   0.000000149252   55  'C_01.recpot'
 0.000469715301    0.000020587835   0.000000455518   55  'S_00.recpot'
 0.000665442002    0.000026079317   0.000000158685   55  'O_02.recpot'
... done

Atom SCF Calculation for N  : Z (AE atom) =   7 : Z (PS atom) =   5
Config String:
Orbitals (num,occ):  2     2.00 3.00
Orbitals   (num,l):  2        0    1
Real-space Grid (nr,dr,rmax): 1203    0.0066555740    8.0000000000
Spherical Bessel Basis (nsws,lmax,cutoff):   47    1  176.3951722778
Confining potential (l,width,scale):  0    3.0000000000  100.0000000000
Confining potential (l,width,scale):  1    3.0000000000  100.0000000000
  1         -4.7312375307   -3.4155304497    7.0523828109   -1.9351020946
  2         -9.7309464766   -2.0532547791    8.2966052865   -2.2494486027
  3         -9.6627394379   -2.1124926340    8.2327997121   -2.2369778124
  4         -9.6814993499   -2.1215521045    8.2229805960   -2.2365178421
  5         -9.6843326483   -2.1250939529    8.2191374534   -2.2362718126
  6         -9.6859628709   -2.1267894855    8.2172963573   -2.2362066344
  7         -9.6867347035   -2.1276425665    8.2163697352   -2.2361903369
  8         -9.6870802100   -2.1280764625    8.2158983890   -2.2361891460
  9         -9.6872290423   -2.1282977424    8.2156580222   -2.2361920435
 10         -9.6872901988   -2.1284107021    8.2155353368   -2.2361953393
 11         -9.6873135296   -2.1284684031    8.2154726809   -2.2361979819
 12         -9.6873212476   -2.1284978948    8.2154406648   -2.2361998431
 13         -9.6873229586   -2.1285129774    8.2154242957   -2.2362010676
 14         -9.6873226456   -2.1285206957    8.2154159216   -2.2362018403
 15         -9.6873218534   -2.1285246479    8.2154116349   -2.2362023142
 16         -9.6873212599   -2.1285262679    8.2154098784   -2.2362025420
 17         -9.6873207834   -2.1285272564    8.2154088068   -2.2362026955
 18         -9.6873204210   -2.1285278596    8.2154081529   -2.2362027982
 19         -9.6873201550   -2.1285282280    8.2154077538   -2.2362028667
 20         -9.6873199645   -2.1285284529    8.2154075102   -2.2362029121
 21         -9.6873198305   -2.1285285903    8.2154073614   -2.2362029421
 22         -9.6873197377   -2.1285286742    8.2154072705   -2.2362029618
Atom SCF converged after  22 iterations to a total energy of     -9.68731974

Atom SCF Calculation for H  : Z (AE atom) =   1 : Z (PS atom) =   1
Config String:
Orbitals (num,occ):  1     1.00
Orbitals   (num,l):  1        0
Real-space Grid (nr,dr,rmax): 1203    0.0066555740    8.0000000000
Spherical Bessel Basis (nsws,lmax,cutoff):   47    0  176.3951722778
Confining potential (l,width,scale):  0    3.0000000000  100.0000000000
  1         -0.3194257691   -0.2393854593    0.2820953124   -0.2424203209
  2         -0.3951823392   -0.2377116493    0.2886404059   -0.2475147891
  3         -0.4317044583   -0.2352244387    0.2921333887   -0.2514046172
  4         -0.4470703708   -0.2341892222    0.2934391879   -0.2531009782
  5         -0.4532132900   -0.2338556667    0.2938388426   -0.2537313520
  6         -0.4556579251   -0.2337612552    0.2939448584   -0.2539550462
  7         -0.4566418315   -0.2337377355    0.2939680120   -0.2540342273
  8         -0.4570437922   -0.2337331116    0.2939708287   -0.2540627372
  9         -0.4572102946   -0.2337328328    0.2939698291   -0.2540732650
 10         -0.4572800424   -0.2337332404    0.2939687193   -0.2540772588
 11         -0.4573095100   -0.2337335791    0.2939680317   -0.2540788122
 12         -0.4573220379   -0.2337337762    0.2939676699   -0.2540794294
 13         -0.4573273880   -0.2337338775    0.2939674931   -0.2540796787
 14         -0.4573296803   -0.2337339266    0.2939674099   -0.2540797808
 15         -0.4573306647   -0.2337339495    0.2939673718   -0.2540798230
 16         -0.4573310882   -0.2337339601    0.2939673545   -0.2540798406
 17         -0.4573312706   -0.2337339649    0.2939673467   -0.2540798479
 18         -0.4573313493   -0.2337339670    0.2939673433   -0.2540798510
Atom SCF converged after  18 iterations to a total energy of     -0.45733135

Atom SCF Calculation for C  : Z (AE atom) =   6 : Z (PS atom) =   4
Config String:
Orbitals (num,occ):  2     2.00 2.00
Orbitals   (num,l):  2        0    1
Real-space Grid (nr,dr,rmax): 1203    0.0066555740    8.0000000000
Spherical Bessel Basis (nsws,lmax,cutoff):   47    1  176.3951722778
Confining potential (l,width,scale):  0    3.0000000000  100.0000000000
Confining potential (l,width,scale):  1    3.0000000000  100.0000000000
  1         -5.2976922011   -1.3069684169    4.5135249990   -1.4493313817
  2         -5.3721716256   -1.3429755895    4.4750154450   -1.4361613026
  3         -5.3809959565   -1.3617365618    4.4541655428   -1.4305930207
  4         -5.3918938866   -1.3667928461    4.4484735100   -1.4294652294
  5         -5.3956096428   -1.3688539142    4.4461376126   -1.4290734646
  6         -5.3968271862   -1.3696852393    4.4451910874   -1.4289366866
  7         -5.3972028401   -1.3700178062    4.4448112275   -1.4288900460
  8         -5.3973067903   -1.3701500158    4.4446598370   -1.4288749220
  9         -5.3973286940   -1.3702023868    4.4445997329   -1.4288704293
 10         -5.3973289850   -1.3702230869    4.4445759233   -1.4288693188
 11         -5.3973254264   -1.3702312560    4.4445665049   -1.4288691775
 12         -5.3973224003   -1.3702344755    4.4445627836   -1.4288692549
 13         -5.3973208708   -1.3702354890    4.4445616088   -1.4288693270
 14         -5.3973198783   -1.3702360102    4.4445610034   -1.4288693814
 15         -5.3973192535   -1.3702362780    4.4445606917   -1.4288694190
 16         -5.3973188684   -1.3702364155    4.4445605313   -1.4288694437
 17         -5.3973186349   -1.3702364860    4.4445604489   -1.4288694595
 18         -5.3973184951   -1.3702365221    4.4445604065   -1.4288694693
 19         -5.3973184122   -1.3702365405    4.4445603848   -1.4288694753
Atom SCF converged after  19 iterations to a total energy of     -5.39731841

Atom SCF Calculation for S  : Z (AE atom) =  16 : Z (PS atom) =   6
Config String:
Orbitals (num,occ):  3     2.00 4.00 0.00
Orbitals   (num,l):  3        0    1    2
Real-space Grid (nr,dr,rmax): 1203    0.0066555740    8.0000000000
Spherical Bessel Basis (nsws,lmax,cutoff):   47    2  176.3951722778
Confining potential (l,width,scale):  0    3.0000000000  100.0000000000
Confining potential (l,width,scale):  1    3.0000000000  100.0000000000
Confining potential (l,width,scale):  2    3.0000000000  100.0000000000
  1        -12.4735062396   -1.0328741412   10.1554312477   -2.4512393157
  2         -9.9458301913   -2.4607392455    8.3041325857   -2.0306994528
  3        -10.1450417646   -2.2931184565    8.4831893826   -2.0812538287
  4        -10.1528335592   -2.2733105793    8.5050388867   -2.0896035179
  5        -10.1571940363   -2.2633716629    8.5160794258   -2.0939370707
  6        -10.1594380571   -2.2584938667    8.5215163935   -2.0961289008
  7        -10.1605856507   -2.2561081821    8.5241804044   -2.0972291378
  8        -10.1611799191   -2.2549395235    8.5254868240   -2.0977806248
  9        -10.1614918752   -2.2543658586    8.5261285885   -2.0980571586
 10        -10.1616572884   -2.2540839121    8.5264441898   -2.0981959233
 11        -10.1617455602   -2.2539453058    8.5265994231   -2.0982656006
 12        -10.1617928447   -2.2538772062    8.5266757320   -2.0983006047
 13        -10.1618182292   -2.2538437891    8.5267131983   -2.0983181961
 14        -10.1618318741   -2.2538274201    8.5267315620   -2.0983270391
 15        -10.1618392144   -2.2538194197    8.5267405433   -2.0983314852
 16        -10.1618431651   -2.2538155200    8.5267449245   -2.0983337210
 17        -10.1618452923   -2.2538136252    8.5267470551   -2.0983348455
 18        -10.1618464380   -2.2538127080    8.5267480875   -2.0983354110
 19        -10.1618470552   -2.2538122659    8.5267485856   -2.0983356955
 20        -10.1618473878   -2.2538120540    8.5267488248   -2.0983358386
 21        -10.1618475670   -2.2538119530    8.5267489389   -2.0983359106
 22        -10.1618476637   -2.2538119053    8.5267489929   -2.0983359468
Atom SCF converged after  22 iterations to a total energy of    -10.16184766

Atom SCF Calculation for O  : Z (AE atom) =   8 : Z (PS atom) =   6
Config String:
Orbitals (num,occ):  2     2.00 4.00
Orbitals   (num,l):  2        0    1
Real-space Grid (nr,dr,rmax): 1203    0.0066555740    8.0000000000
Spherical Bessel Basis (nsws,lmax,cutoff):   47    1  176.3951722778
Confining potential (l,width,scale):  0    3.0000000000  100.0000000000
Confining potential (l,width,scale):  1    3.0000000000  100.0000000000
  1         -1.8735052164   -7.5539365035   10.1554312477   -2.4512393157
  2        -16.0318313751   -3.1285771268   13.6395848164   -3.2358799643
  3        -15.9524020423   -3.0762819706   13.6967272503   -3.2536856837
  4        -15.8521515939   -3.0781493909   13.6951909330   -3.2561700440
  5        -15.8357139793   -3.0748501933   13.6988803334   -3.2580493133
  6        -15.8246052853   -3.0740779781   13.6997881576   -3.2588327446
  7        -15.8189019501   -3.0737449687   13.7001869911   -3.2592378801
  8        -15.8159785510   -3.0736026016   13.7003615168   -3.2594475790
  9        -15.8144776168   -3.0735437994   13.7004360379   -3.2595560735
 10        -15.8137058024   -3.0735207882   13.7004667348   -3.2596122456
 11        -15.8133083127   -3.0735125946   13.7004786868   -3.2596413656
 12        -15.8131032938   -3.0735102195   13.7004828997   -3.2596564858
 13        -15.8129973902   -3.0735099286   13.7004840891   -3.2596643505
 14        -15.8129426040   -3.0735102506   13.7004842061   -3.2596684489
 15        -15.8129142203   -3.0735106556   13.7004840157   -3.2596705887
 16        -15.8128994940   -3.0735109855   13.7004837906   -3.2596717080
 17        -15.8128918425   -3.0735112169   13.7004836103   -3.2596722946
 18        -15.8128878614   -3.0735113674   13.7004834848   -3.2596726026
 19        -15.8128857871   -3.0735114608   13.7004834035   -3.2596727646
 20        -15.8128847048   -3.0735115170   13.7004833533   -3.2596728500
 21        -15.8128841394   -3.0735115501   13.7004833231   -3.2596728951
 22        -15.8128838436   -3.0735115693   13.7004833054   -3.2596729190
 23        -15.8128836887   -3.0735115802   13.7004832951   -3.2596729316
 24        -15.8128836074   -3.0735115864   13.7004832893   -3.2596729383
Atom SCF converged after  24 iterations to a total energy of    -15.81288361

========================== Calculation in vacuum ==============================
= Adjusting the following parameters: 
= is_implicit_solvent: F
= is_include_apolar: F
= write_denskern: T
= write_tightbox_ngwfs: T
= restart read filename prefix: ""
= restart write filename prefix: "vacuum_"
===============================================================================

Determining parallel strategy ...
... using space-filling curve
... NGWF load balancing: max    110;  min    109;  average    109
... Projector load balancing: max     26;  min     21;  average     22
... done
Calculating direct Ion-Ion energy ...
Ion-Ion Energy        :    838909.71198948984966
======================= Empirical dispersion information =======================
Model : Elstner
Dispersion Correction Energy: -0.33219462E+01 Hartree
================================================================================
Basis initialisation ...... NGWF spheres initialised
... Projector spheres initialised
... NGWF tight boxes initialised
... Tight-boxes gathered
... NGWF basis size (local,global):    1386995  83213328
... Nonlocal pseudopotential projector initialisation
... done

========================== Sparse matrix information ===========================
                        Overlap matrix filling:   6.80%
                        Density kernel filling: 100.00%
              NGWF-Proj overlap matrix filling:   1.79%
                    Hamiltonian matrix filling:   7.73%
                  NGWF diagonal matrix filling:   0.05%
                             KS matrix filling: 100.00% 
                           KSKS matrix filling: 100.00% 
================================================================================

Sparse matrix initialisation ... done

Generating smeared ion density ... done
Smeared ion self correction:     -14538.952731
Smeared ion non-self correction: -838861.405063
NGWF initialisation ...... done
============ Calculation of NGWF S^-1 using Hotelling algorithm ================ 
         Iteration  |  Frobenius norm and Maximum abs value    (of I-S*S_n^-1)   
               1       0.78752843E+02     0.98306007E+00
               2       0.76923454E+02     0.96655554E+00
               3       0.73951714E+02     0.93477000E+00
               4       0.69710506E+02     0.87560274E+00
               5       0.64408715E+02     0.77190147E+00
               6       0.58433374E+02     0.70404783E+00
               7       0.52405522E+02     0.66834634E+00
               8       0.46835644E+02     0.64518964E+00
               9       0.40796100E+02     0.60589024E+00
              10       0.32591852E+02     0.54019716E+00
              11       0.22052978E+02     0.43315820E+00
              12       0.11386040E+02     0.29229302E+00
              13       0.38107021E+01     0.13577603E+00
              14       0.61662350E+00     0.31024605E-01
              15       0.30129944E-01     0.23388766E-02
              16       0.17293161E-03     0.19417345E-04
              17       0.11229306E-07     0.17146633E-08
              18       0.98129273E-13     0.59952043E-14
================================================================================
Calculating local pseudopotential in open BC on the fine real space grid ...
... done

MG BCs: +ve charge blocks (gridpoints):     19948 (   15657254).
MG BCs: -ve charge blocks (gridpoints):      7901 (    1062184).
MG BCs:     Elided blocks (gridpoints):    177172 (  174057267).
MG BCs: Computational effort saved:  99.9854%.
MG BCs: Charge after coarse-graining:           -9.0002228.
MG DL_MG: Calling solver with defect correction order = 8
MG DL_MG: Solver finished
MG Hartree energy from (\int phi*rho dr):              1471.652730
MG Hartree energy from (\int eps (grad phi)^2 dr):     1471.028422
MG Discrepancy due to finite box and discretization:     -0.624309 (  -0.04242%)
MG Correction to account for finite box:                  0.463746
MG Remaining discrepancy, due to discretization:         -0.160563 (  -0.01091%)
Up spin density kernel initialisation ... 
======= Optimisation of K by Palser-Manolopoulos canonical purification ======== 
         Iteration  |  Band structure energy |    c_n   
               1       -2591.70902870939335    0.5276362
               2       -2768.40915523230342    0.5175871
               3       -2950.33886523115325    0.5154531
               4       -3103.29331766841460    0.5282933
               5       -3198.39155330292760    0.5632096
               6       -3238.70377734982412    0.6085634
               7       -3252.41743349497392    0.6228089
               8       -3258.28245695932810    0.6231584
               9       -3261.11740394118897    0.6355529
              10       -3262.31901555694458    0.6515882
              11       -3262.81332003299940    0.6637808
              12       -3263.02945967894357    0.6658025
              13       -3263.13141453298704    0.6304959
              14       -3263.18966016709874    0.5658832
              15       -3263.22237873865743    0.5122112
              16       -3263.23335817978477    0.5173852
              17       -3263.23468752795270    0.5236960
              18       -3263.23489502071743    0.5049482
              19       -3263.23493109633546    0.5001487
              20       -3263.23494658754953    0.5000001
              21       -3263.23496809233075    0.5000000
              22       -3263.23499839687383    0.5000000
              23       -3263.23503794225644    0.5000000
              24       -3263.23508153702778    0.5000000
              25       -3263.23511509779928    0.5000000
              26       -3263.23512764498446    0.5000000
              27       -3263.23512886346862    0.5000001
              28       -3263.23512887342213    0.5000001
Termination criterion satisfied: band energy change below threshold.
Final occupancy bounds: [    0.00000000000058:    0.99999999999998]
Closest occupancy to 0.5:     0.99999999999988
================================================================================
... done

Writing density kernel to file "complex_38101.vacuum_dkn" ... done

>>> Optimising kernel for current NGWFs:
   Initial electron number for spin 1:    7234.00000000
     Final electron number for spin 1:    7234.00000000

=================== Penalty functional idempotency correction ==================
 RMS occupancy error at iteration   1:  0.000000 (step -0.5000 Ne1=   7234.0000)
            Final RMS occupancy error   :  0.000000 (Ne1=   7234.0000)
               Final occupancy bounds   : [  0.0000,  1.0000]
================================================================================

................................................................................
<<<<<<<<<<<<<< LNV (Original version) density kernel optimisation >>>>>>>>>>>>>>
~~~~~~~~~~~~~~~~~~~~~~~~~~~~~~~~~~~~~~~~~~~~~~~~~~~~~~~~~~~~~~~~~~~~~~~~~~~~~~~~
   iter  |      energy (Eh)       | rms gradient |  commutator  |   dE (Eh)
MG BCs: +ve charge blocks (gridpoints):     30547 (   16869957).
MG BCs: -ve charge blocks (gridpoints):      8232 (    1094758).
MG BCs:     Elided blocks (gridpoints):    166566 (  172811990).
MG BCs: Computational effort saved:  99.9797%.
MG BCs: Charge after coarse-graining:           -9.0009372.
MG DL_MG: Calling solver with defect correction order = 8
MG DL_MG: Solver finished
MG Hartree energy from (\int phi*rho dr):              1426.874100
MG Hartree energy from (\int eps (grad phi)^2 dr):     1426.191647
MG Discrepancy due to finite box and discretization:     -0.682453 (  -0.04783%)
MG Correction to account for finite box:                  0.476913
MG Remaining discrepancy, due to discretization:         -0.205540 (  -0.01440%)
      ideal mu1:      -0.690333644048
             Q0:  -11568.826473327237
             G0:    -144.543925253567
   RMS gradient:       0.001837200824
MG BCs: +ve charge blocks (gridpoints):     30513 (   16952338).
MG BCs: -ve charge blocks (gridpoints):      8136 (    1074777).
MG BCs:     Elided blocks (gridpoints):    166599 (  172749590).
MG BCs: Computational effort saved:  99.9797%.
MG BCs: Charge after coarse-graining:           -9.0009599.
MG DL_MG: Calling solver with defect correction order = 8
MG DL_MG: Solver finished
MG Hartree energy from (\int phi*rho dr):              1452.532026
MG Hartree energy from (\int eps (grad phi)^2 dr):     1451.867586
MG Discrepancy due to finite box and discretization:     -0.664439 (  -0.04574%)
MG Correction to account for finite box:                  0.475367
MG Remaining discrepancy, due to discretization:         -0.189072 (  -0.01302%)
     Trial step:       0.500000000000
             Q1:  -11580.402170781745
 Quadratic coef:      60.696265172277
 Linear coef   :     -72.271962626784
           Qmin:  -11590.340303573224
Quadratic minimum step length (  0.297678788067) accepted
    Initial Ne1:    7234.00000000
      Final Ne1:    7234.00000000

=================== Penalty functional idempotency correction ==================
 RMS occupancy error at iteration   1:  0.003383 (step -0.4885 Ne1=   7234.0000)
 RMS occupancy error at iteration   2:  0.000027 (step -0.5001 Ne1=   7234.0000)
            Final RMS occupancy error   :  0.000000 (Ne1=   7234.0000)
               Final occupancy bounds   : [  0.0000,  1.0000]
================================================================================

    1        -1.156882647333E+04     1.8372E-03     1.6620E-03
MG BCs: +ve charge blocks (gridpoints):     30519 (   16921258).
MG BCs: -ve charge blocks (gridpoints):      8175 (    1083105).
MG BCs:     Elided blocks (gridpoints):    166594 (  172772342).
MG BCs: Computational effort saved:  99.9797%.
MG BCs: Charge after coarse-graining:           -9.0009500.
MG DL_MG: Calling solver with defect correction order = 8
MG DL_MG: Solver finished
MG Hartree energy from (\int phi*rho dr):              1434.248189
MG Hartree energy from (\int eps (grad phi)^2 dr):     1433.577460
MG Discrepancy due to finite box and discretization:     -0.670729 (  -0.04677%)
MG Correction to account for finite box:                  0.475868
MG Remaining discrepancy, due to discretization:         -0.194861 (  -0.01359%)
      ideal mu1:      -0.737245944268
             Q0:  -11590.736287176027
             G0:     -12.191819816446
   RMS gradient:       0.000530027303
MG BCs: +ve charge blocks (gridpoints):     30527 (   16938372).
MG BCs: -ve charge blocks (gridpoints):      8160 (    1078080).
MG BCs:     Elided blocks (gridpoints):    166586 (  172760253).
MG BCs: Computational effort saved:  99.9797%.
MG BCs: Charge after coarse-graining:           -9.0009537.
MG DL_MG: Calling solver with defect correction order = 8
MG DL_MG: Solver finished
MG Hartree energy from (\int phi*rho dr):              1439.468967
MG Hartree energy from (\int eps (grad phi)^2 dr):     1438.802716
MG Discrepancy due to finite box and discretization:     -0.666251 (  -0.04628%)
MG Correction to account for finite box:                  0.474712
MG Remaining discrepancy, due to discretization:         -0.191539 (  -0.01331%)
     Trial step:       0.385797089198
             Q1:  -11593.590341519099
 Quadratic coef:       1.849514254140
 Linear coef   :      -4.703568597212
           Qmin:  -11593.726742304874
Quadratic minimum step length (  0.490567474564) accepted
    Initial Ne1:    7233.99986768
      Final Ne1:    7234.00000000

=================== Penalty functional idempotency correction ==================
 RMS occupancy error at iteration   1:  0.001805 (step -0.4928 Ne1=   7234.0000)
 RMS occupancy error at iteration   2:  0.000014 (step -0.5003 Ne1=   7234.0000)
            Final RMS occupancy error   :  0.000000 (Ne1=   7234.0000)
               Final occupancy bounds   : [  0.0000,  1.0000]
================================================================================

    2        -1.159073628718E+04     5.3003E-04     4.7947E-04    -2.1910E+01
MG BCs: +ve charge blocks (gridpoints):     30533 (   16943006).
MG BCs: -ve charge blocks (gridpoints):      8148 (    1076668).
MG BCs:     Elided blocks (gridpoints):    166580 (  172757031).
MG BCs: Computational effort saved:  99.9797%.
MG BCs: Charge after coarse-graining:           -9.0009548.
MG DL_MG: Calling solver with defect correction order = 8
MG DL_MG: Solver finished
MG Hartree energy from (\int phi*rho dr):              1440.937931
MG Hartree energy from (\int eps (grad phi)^2 dr):     1440.272812
MG Discrepancy due to finite box and discretization:     -0.665119 (  -0.04616%)
MG Correction to account for finite box:                  0.474417
MG Remaining discrepancy, due to discretization:         -0.190701 (  -0.01323%)
      ideal mu1:      -0.763426347132
             Q0:  -11593.763612524373
             G0:      -1.944809167344
   RMS gradient:       0.000211756286
MG BCs: +ve charge blocks (gridpoints):     30535 (   16942291).
MG BCs: -ve charge blocks (gridpoints):      8160 (    1077850).
MG BCs:     Elided blocks (gridpoints):    166578 (  172756564).
MG BCs: Computational effort saved:  99.9797%.
MG BCs: Charge after coarse-graining:           -9.0009544.
MG DL_MG: Calling solver with defect correction order = 8
MG DL_MG: Solver finished
MG Hartree energy from (\int phi*rho dr):              1438.653204
MG Hartree energy from (\int eps (grad phi)^2 dr):     1437.988684
MG Discrepancy due to finite box and discretization:     -0.664520 (  -0.04619%)
MG Correction to account for finite box:                  0.474041
MG Remaining discrepancy, due to discretization:         -0.190479 (  -0.01324%)
     Trial step:       0.435039657666
             Q1:  -11594.264691534569
 Quadratic coef:       0.344990104191
 Linear coef   :      -0.846069114387
           Qmin:  -11594.282346929813
Quadratic minimum step length (  0.533455327287) accepted
    Initial Ne1:    7233.99987391
      Final Ne1:    7234.00000000

=================== Penalty functional idempotency correction ==================
 RMS occupancy error at iteration   1:  0.000657 (step -0.4965 Ne1=   7234.0000)
 RMS occupancy error at iteration   2:  0.000005 (step -0.5000 Ne1=   7234.0000)
            Final RMS occupancy error   :  0.000000 (Ne1=   7234.0000)
               Final occupancy bounds   : [  0.0000,  1.0000]
================================================================================

    3        -1.159376361252E+04     2.1176E-04     1.9156E-04    -3.0273E+00
MG BCs: +ve charge blocks (gridpoints):     30533 (   16942266).
MG BCs: -ve charge blocks (gridpoints):      8158 (    1078012).
MG BCs:     Elided blocks (gridpoints):    166580 (  172756427).
MG BCs: Computational effort saved:  99.9797%.
MG BCs: Charge after coarse-graining:           -9.0009543.
MG DL_MG: Calling solver with defect correction order = 8
MG DL_MG: Solver finished
MG Hartree energy from (\int phi*rho dr):              1438.146178
MG Hartree energy from (\int eps (grad phi)^2 dr):     1437.481781
MG Discrepancy due to finite box and discretization:     -0.664397 (  -0.04620%)
MG Correction to account for finite box:                  0.473958
MG Remaining discrepancy, due to discretization:         -0.190440 (  -0.01324%)
      ideal mu1:      -0.764644011376
             Q0:  -11594.287175202393
             G0:      -0.519258626516
   RMS gradient:       0.000109556935
MG BCs: +ve charge blocks (gridpoints):     30532 (   16943132).
MG BCs: -ve charge blocks (gridpoints):      8162 (    1077748).
MG BCs:     Elided blocks (gridpoints):    166581 (  172755825).
MG BCs: Computational effort saved:  99.9797%.
MG BCs: Charge after coarse-graining:           -9.0009546.
MG DL_MG: Calling solver with defect correction order = 8
MG DL_MG: Solver finished
MG Hartree energy from (\int phi*rho dr):              1439.407656
MG Hartree energy from (\int eps (grad phi)^2 dr):     1438.743335
MG Discrepancy due to finite box and discretization:     -0.664321 (  -0.04615%)
MG Correction to account for finite box:                  0.473794
MG Remaining discrepancy, due to discretization:         -0.190527 (  -0.01324%)
     Trial step:       0.481740825510
             Q1:  -11594.420729288366
 Quadratic coef:       0.116593993418
 Linear coef   :      -0.250148079391
           Qmin:  -11594.421346054141
Quadratic minimum step length (  0.516778518056) accepted
    Initial Ne1:    7233.99996776
      Final Ne1:    7234.00000000

=================== Penalty functional idempotency correction ==================
 RMS occupancy error at iteration   1:  0.000327 (step -0.4935 Ne1=   7234.0000)
 RMS occupancy error at iteration   2:  0.000004 (step -0.5000 Ne1=   7234.0000)
            Final RMS occupancy error   :  0.000000 (Ne1=   7234.0000)
               Final occupancy bounds   : [  0.0000,  1.0000]
================================================================================

    4        -1.159428717520E+04     1.0956E-04     9.9107E-05    -5.2356E-01
MG BCs: +ve charge blocks (gridpoints):     30530 (   16943202).
MG BCs: -ve charge blocks (gridpoints):      8161 (    1077727).
MG BCs:     Elided blocks (gridpoints):    166583 (  172755776).
MG BCs: Computational effort saved:  99.9797%.
MG BCs: Charge after coarse-graining:           -9.0009547.
MG DL_MG: Calling solver with defect correction order = 8
MG DL_MG: Solver finished
MG Hartree energy from (\int phi*rho dr):              1439.500182
MG Hartree energy from (\int eps (grad phi)^2 dr):     1438.835865
MG Discrepancy due to finite box and discretization:     -0.664317 (  -0.04615%)
MG Correction to account for finite box:                  0.473783
MG Remaining discrepancy, due to discretization:         -0.190534 (  -0.01324%)
      ideal mu1:      -0.764979292955
             Q0:  -11594.421984272893
             G0:      -0.219072673390
   RMS gradient:       0.000071367269
MG BCs: +ve charge blocks (gridpoints):     30527 (   16943328).
MG BCs: -ve charge blocks (gridpoints):      8160 (    1077582).
MG BCs:     Elided blocks (gridpoints):    166586 (  172755795).
MG BCs: Computational effort saved:  99.9797%.
MG BCs: Charge after coarse-graining:           -9.0009546.
MG DL_MG: Calling solver with defect correction order = 8
MG DL_MG: Solver finished
MG Hartree energy from (\int phi*rho dr):              1439.942203
MG Hartree energy from (\int eps (grad phi)^2 dr):     1439.277719
MG Discrepancy due to finite box and discretization:     -0.664484 (  -0.04615%)
MG Correction to account for finite box:                  0.473783
MG Remaining discrepancy, due to discretization:         -0.190701 (  -0.01324%)
     Trial step:       0.498952212034
             Q1:  -11594.495697992621
 Quadratic coef:       0.035593075256
 Linear coef   :      -0.109306794984
           Qmin:  -11594.505904918578
Quadratic minimum step length (  0.766144351898) accepted
    Initial Ne1:    7233.99997943
      Final Ne1:    7234.00000000

=================== Penalty functional idempotency correction ==================
 RMS occupancy error at iteration   1:  0.000717 (step -0.4619 Ne1=   7234.0000)
 RMS occupancy error at iteration   2:  0.000021 (step -0.5001 Ne1=   7234.0000)
            Final RMS occupancy error   :  0.000000 (Ne1=   7234.0000)
               Final occupancy bounds   : [  0.0000,  1.0000]
================================================================================

    5        -1.159442198427E+04     7.1367E-05     6.4560E-05    -1.3481E-01
MG BCs: +ve charge blocks (gridpoints):     30527 (   16943451).
MG BCs: -ve charge blocks (gridpoints):      8158 (    1077456).
MG BCs:     Elided blocks (gridpoints):    166586 (  172755798).
MG BCs: Computational effort saved:  99.9797%.
MG BCs: Charge after coarse-graining:           -9.0009545.
MG DL_MG: Calling solver with defect correction order = 8
MG DL_MG: Solver finished
MG Hartree energy from (\int phi*rho dr):              1440.176941
MG Hartree energy from (\int eps (grad phi)^2 dr):     1439.512364
MG Discrepancy due to finite box and discretization:     -0.664577 (  -0.04615%)
MG Correction to account for finite box:                  0.473787
MG Remaining discrepancy, due to discretization:         -0.190790 (  -0.01325%)
      ideal mu1:      -0.765300261915
             Q0:  -11594.504259082954
             G0:      -0.242646105458
   RMS gradient:       0.000076219831
MG BCs: +ve charge blocks (gridpoints):     30528 (   16942633).
MG BCs: -ve charge blocks (gridpoints):      8162 (    1077888).
MG BCs:     Elided blocks (gridpoints):    166585 (  172756184).
MG BCs: Computational effort saved:  99.9797%.
MG BCs: Charge after coarse-graining:           -9.0009542.
MG DL_MG: Calling solver with defect correction order = 8
MG DL_MG: Solver finished
MG Hartree energy from (\int phi*rho dr):              1438.639363
MG Hartree energy from (\int eps (grad phi)^2 dr):     1437.974784
MG Discrepancy due to finite box and discretization:     -0.664578 (  -0.04619%)
MG Correction to account for finite box:                  0.473815
MG Remaining discrepancy, due to discretization:         -0.190764 (  -0.01326%)
     Trial step:       0.618279402145
             Q1:  -11594.609730374301
 Quadratic coef:       0.044551797670
 Linear coef   :      -0.150023089016
           Qmin:  -11594.630555486327
Quadratic minimum step length (  1.040992626970) accepted
    Initial Ne1:    7233.99983738
      Final Ne1:    7234.00000000

=================== Penalty functional idempotency correction ==================
 RMS occupancy error at iteration   1:  0.004856 (step -0.3121 Ne1=   7234.0000)
 RMS occupancy error at iteration   2:  0.000392 (step -0.4897 Ne1=   7234.0000)
 RMS occupancy error at iteration   3:  0.000012 (step -0.5007 Ne1=   7234.0000)
            Final RMS occupancy error   :  0.000000 (Ne1=   7234.0000)
               Final occupancy bounds   : [  0.0000,  1.0000]
================================================================================

    6        -1.159450425908E+04     7.6220E-05     6.8950E-05    -8.2275E-02
MG BCs: +ve charge blocks (gridpoints):     30528 (   16942011).
MG BCs: -ve charge blocks (gridpoints):      8162 (    1078254).
MG BCs:     Elided blocks (gridpoints):    166585 (  172756440).
MG BCs: Computational effort saved:  99.9797%.
MG BCs: Charge after coarse-graining:           -9.0009541.
MG DL_MG: Calling solver with defect correction order = 8
MG DL_MG: Solver finished
MG Hartree energy from (\int phi*rho dr):              1437.621282
MG Hartree energy from (\int eps (grad phi)^2 dr):     1436.956671
MG Discrepancy due to finite box and discretization:     -0.664611 (  -0.04623%)
MG Correction to account for finite box:                  0.473863
MG Remaining discrepancy, due to discretization:         -0.190748 (  -0.01327%)
      ideal mu1:      -0.765750893165
             Q0:  -11594.612686061882
             G0:      -0.369011274512
   RMS gradient:       0.000092827473
MG BCs: +ve charge blocks (gridpoints):     30531 (   16944346).
MG BCs: -ve charge blocks (gridpoints):      8159 (    1077092).
MG BCs:     Elided blocks (gridpoints):    166582 (  172755267).
MG BCs: Computational effort saved:  99.9797%.
MG BCs: Charge after coarse-graining:           -9.0009548.
MG DL_MG: Calling solver with defect correction order = 8
MG DL_MG: Solver finished
MG Hartree energy from (\int phi*rho dr):              1440.232465
MG Hartree energy from (\int eps (grad phi)^2 dr):     1439.568127
MG Discrepancy due to finite box and discretization:     -0.664338 (  -0.04613%)
MG Correction to account for finite box:                  0.473846
MG Remaining discrepancy, due to discretization:         -0.190492 (  -0.01323%)
     Trial step:       0.802261989029
             Q1:  -11594.730082780123
 Quadratic coef:       0.178647000823
 Linear coef   :      -0.296043719064
           Qmin:  -11594.735332794256
Quadratic minimum step length (  0.664731626621) accepted
    Initial Ne1:    7233.99990043
      Final Ne1:    7234.00000000

=================== Penalty functional idempotency correction ==================
 RMS occupancy error at iteration   1:  0.000219 (step -0.4862 Ne1=   7234.0000)
 RMS occupancy error at iteration   2:  0.000002 (step -0.5000 Ne1=   7234.0000)
            Final RMS occupancy error   :  0.000000 (Ne1=   7234.0000)
               Final occupancy bounds   : [  0.0000,  1.0000]
================================================================================

    7        -1.159461268606E+04     9.2827E-05     8.3973E-05    -1.0843E-01
MG BCs: +ve charge blocks (gridpoints):     30529 (   16943993).
MG BCs: -ve charge blocks (gridpoints):      8161 (    1077296).
MG BCs:     Elided blocks (gridpoints):    166584 (  172755416).
MG BCs: Computational effort saved:  99.9797%.
MG BCs: Charge after coarse-graining:           -9.0009546.
MG DL_MG: Calling solver with defect correction order = 8
MG DL_MG: Solver finished
MG Hartree energy from (\int phi*rho dr):              1439.783285
MG Hartree energy from (\int eps (grad phi)^2 dr):     1439.118900
MG Discrepancy due to finite box and discretization:     -0.664385 (  -0.04614%)
MG Correction to account for finite box:                  0.473850
MG Remaining discrepancy, due to discretization:         -0.190535 (  -0.01323%)
      ideal mu1:      -0.766773328940
             Q0:  -11594.735549773439
             G0:      -0.257444153598
   RMS gradient:       0.000077486581
MG BCs: +ve charge blocks (gridpoints):     30527 (   16943661).
MG BCs: -ve charge blocks (gridpoints):      8160 (    1077421).
MG BCs:     Elided blocks (gridpoints):    166586 (  172755623).
MG BCs: Computational effort saved:  99.9797%.
MG BCs: Charge after coarse-graining:           -9.0009547.
MG DL_MG: Calling solver with defect correction order = 8
MG DL_MG: Solver finished
MG Hartree energy from (\int phi*rho dr):              1439.526889
MG Hartree energy from (\int eps (grad phi)^2 dr):     1438.862577
MG Discrepancy due to finite box and discretization:     -0.664312 (  -0.04615%)
MG Correction to account for finite box:                  0.473928
MG Remaining discrepancy, due to discretization:         -0.190384 (  -0.01323%)
     Trial step:       0.730266332884
             Q1:  -11594.832336641499
 Quadratic coef:       0.091215929911
 Linear coef   :      -0.188002797971
           Qmin:  -11594.832421701618
Quadratic minimum step length (  0.752566541717) accepted
    Initial Ne1:    7233.99992102
      Final Ne1:    7234.00000000

=================== Penalty functional idempotency correction ==================
 RMS occupancy error at iteration   1:  0.001129 (step -0.4362 Ne1=   7234.0000)
 RMS occupancy error at iteration   2:  0.000033 (step -0.4990 Ne1=   7234.0000)
            Final RMS occupancy error   :  0.000000 (Ne1=   7234.0000)
               Final occupancy bounds   : [ -0.0000,  1.0000]
================================================================================

    8        -1.159473554977E+04     7.7487E-05     7.0096E-05    -1.2286E-01
MG BCs: +ve charge blocks (gridpoints):     30527 (   16943652).
MG BCs: -ve charge blocks (gridpoints):      8159 (    1077421).
MG BCs:     Elided blocks (gridpoints):    166586 (  172755632).
MG BCs: Computational effort saved:  99.9797%.
MG BCs: Charge after coarse-graining:           -9.0009547.
MG DL_MG: Calling solver with defect correction order = 8
MG DL_MG: Solver finished
MG Hartree energy from (\int phi*rho dr):              1439.520840
MG Hartree energy from (\int eps (grad phi)^2 dr):     1438.856527
MG Discrepancy due to finite box and discretization:     -0.664313 (  -0.04615%)
MG Correction to account for finite box:                  0.473933
MG Remaining discrepancy, due to discretization:         -0.190380 (  -0.01323%)
      ideal mu1:      -0.766682478854
             Q0:  -11594.832947962801
             G0:      -0.200039568659
   RMS gradient:       0.000067822326
MG BCs: +ve charge blocks (gridpoints):     30532 (   16942773).
MG BCs: -ve charge blocks (gridpoints):      8159 (    1077877).
MG BCs:     Elided blocks (gridpoints):    166581 (  172756055).
MG BCs: Computational effort saved:  99.9797%.
MG BCs: Charge after coarse-graining:           -9.0009545.
MG DL_MG: Calling solver with defect correction order = 8
MG DL_MG: Solver finished
MG Hartree energy from (\int phi*rho dr):              1438.458871
MG Hartree energy from (\int eps (grad phi)^2 dr):     1437.794638
MG Discrepancy due to finite box and discretization:     -0.664232 (  -0.04618%)
MG Correction to account for finite box:                  0.473903
MG Remaining discrepancy, due to discretization:         -0.190329 (  -0.01323%)
     Trial step:       0.741332589780
             Q1:  -11594.906507464708
 Quadratic coef:       0.074736349587
 Linear coef   :      -0.148295851493
           Qmin:  -11594.906512097561
Quadratic minimum step length (  0.735495834683) accepted
    Initial Ne1:    7234.00040554
      Final Ne1:    7234.00000000

=================== Penalty functional idempotency correction ==================
 RMS occupancy error at iteration   1:  0.002371 (step -0.3866 Ne1=   7234.0000)
 RMS occupancy error at iteration   2:  0.000096 (step -0.4975 Ne1=   7234.0000)
 RMS occupancy error at iteration   3:  0.000001 (step -0.5000 Ne1=   7234.0000)
            Final RMS occupancy error   :  0.000000 (Ne1=   7234.0000)
               Final occupancy bounds   : [  0.0000,  1.0000]
================================================================================

    9        -1.159483294796E+04     6.7822E-05     6.1353E-05    -9.7398E-02
MG BCs: +ve charge blocks (gridpoints):     30532 (   16942777).
MG BCs: -ve charge blocks (gridpoints):      8159 (    1077868).
MG BCs:     Elided blocks (gridpoints):    166581 (  172756060).
MG BCs: Computational effort saved:  99.9797%.
MG BCs: Charge after coarse-graining:           -9.0009545.
MG DL_MG: Calling solver with defect correction order = 8
MG DL_MG: Solver finished
MG Hartree energy from (\int phi*rho dr):              1438.468855
MG Hartree energy from (\int eps (grad phi)^2 dr):     1437.804594
MG Discrepancy due to finite box and discretization:     -0.664261 (  -0.04618%)
MG Correction to account for finite box:                  0.473933
MG Remaining discrepancy, due to discretization:         -0.190328 (  -0.01323%)
      ideal mu1:      -0.765806791804
   10        -1.159491009698E+04     5.7743E-05     5.2235E-05    -7.7149E-02
Finished density kernel iterations (  10)

Writing density kernel to file "complex_38101.vacuum_dkn" ... done


>>> Density kernel optimised for the current NGWF basis:
     ~~~~~~~~~~~~~~~~~~~~~~~~~~~~~~~~~~~~~~~~~~~~~~~~~~~~~~~~~~~
     Total energy                =  -1.15949100969827E+04  Eh
     Estimated bandgap           =  -4.9486E-01  Eh
     RMS occupancy error         =   8.3996E-11
     [H,K] commutator            =   5.2235E-05
     Occupancy bounds            = [  0.000:  1.000]
     ~~~~~~~~~~~~~~~~~~~~~~~~~~~~~~~~~~~~~~~~~~~~~~~~~~~~~~~~~~~




################################################################################
########################### NGWF CG iteration  001 #############################
################################################################################
****** Reciprocal space K.E. preconditioning with k_zero =  3.5000 a0^-1 *******

>>> Checking for convergence of NGWFs:   NOT CONVERGED
  ========================================================================
         NGWF RMS gradient =  1.6320E-03 >  2.0000E-06  | above tolerance
  ========================================================================

>>> Improving NGWFs using line search:
============ Calculation of NGWF S^-1 using Hotelling algorithm ================ 
         Iteration  |  Frobenius norm and Maximum abs value    (of I-S*S_n^-1)   
               1       0.20382924E+00     0.57374293E-02
               2       0.96488255E-03     0.46279286E-04
               3       0.37109933E-07     0.30118076E-08
               4       0.12759962E-12     0.69944051E-14
================================================================================
MG BCs: +ve charge blocks (gridpoints):     30087 (   16883860).
MG BCs: -ve charge blocks (gridpoints):      8168 (    1077553).
MG BCs:     Elided blocks (gridpoints):    167029 (  172815292).
MG BCs: Computational effort saved:  99.9799%.
MG BCs: Charge after coarse-graining:           -9.0009614.
MG DL_MG: Calling solver with defect correction order = 8
MG DL_MG: Solver finished
MG Hartree energy from (\int phi*rho dr):              1406.004264
MG Hartree energy from (\int eps (grad phi)^2 dr):     1405.340978
MG Discrepancy due to finite box and discretization:     -0.663286 (  -0.04718%)
MG Correction to account for finite box:                  0.473818
MG Remaining discrepancy, due to discretization:         -0.189468 (  -0.01348%)
============ Calculation of NGWF S^-1 using Hotelling algorithm ================ 
         Iteration  |  Frobenius norm and Maximum abs value    (of I-S*S_n^-1)   
               1       0.18346966E+01     0.42997957E-01
               2       0.69881862E-01     0.24123574E-02
               3       0.13829940E-03     0.88493427E-05
               4       0.98372366E-09     0.13981438E-09
               5       0.11089721E-12     0.48783677E-14
================================================================================
------------------------------- NGWF line search -------------------------------
RMS gradient                =       0.00163196994195
Trial step length           =               0.122474
Gradient along search dir.  =       -285.17937511518
Functional at step 0        =  -11594.91009698272683
Functional at step 1        =  -11627.09388381277677
Functional predicted        =  -11706.07728932961436
Selected quadratic step     =               0.779630
--------------------------- NGWF line search finished --------------------------
                                               
Writing NGWFs to file "complex_38101.vacuum_tightbox_ngwfs"....  done

>>> Optimising kernel for current NGWFs:
   Initial electron number for spin 1:    7268.78196074
     Final electron number for spin 1:    7234.00000000

=================== Penalty functional idempotency correction ==================
 RMS occupancy error at iteration   1:  0.004361 (step -0.4851 Ne1=   7234.0000)
 RMS occupancy error at iteration   2:  0.000077 (step -0.5003 Ne1=   7234.0000)
            Final RMS occupancy error   :  0.000000 (Ne1=   7234.0000)
               Final occupancy bounds   : [  0.0000,  1.0000]
================================================================================

................................................................................
<<<<<<<<<<<<<< LNV (Original version) density kernel optimisation >>>>>>>>>>>>>>
~~~~~~~~~~~~~~~~~~~~~~~~~~~~~~~~~~~~~~~~~~~~~~~~~~~~~~~~~~~~~~~~~~~~~~~~~~~~~~~~
   iter  |      energy (Eh)       | rms gradient |  commutator  |   dE (Eh)
MG BCs: +ve charge blocks (gridpoints):     24370 (   16555928).
MG BCs: -ve charge blocks (gridpoints):      8266 (    1061035).
MG BCs:     Elided blocks (gridpoints):    172750 (  173159742).
MG BCs: Computational effort saved:  99.9829%.
MG BCs: Charge after coarse-graining:           -9.0006809.
MG DL_MG: Calling solver with defect correction order = 8
MG DL_MG: Solver finished
MG Hartree energy from (\int phi*rho dr):              1253.551955
MG Hartree energy from (\int eps (grad phi)^2 dr):     1252.888908
MG Discrepancy due to finite box and discretization:     -0.663047 (  -0.05289%)
MG Correction to account for finite box:                  0.473279
MG Remaining discrepancy, due to discretization:         -0.189768 (  -0.01514%)
      ideal mu1:      -0.707065497360
             Q0:  -11705.306851099362
             G0:      -9.988868831819
   RMS gradient:       0.000482964116
MG BCs: +ve charge blocks (gridpoints):     24429 (   16569148).
MG BCs: -ve charge blocks (gridpoints):      8248 (    1057982).
MG BCs:     Elided blocks (gridpoints):    172691 (  173149575).
MG BCs: Computational effort saved:  99.9829%.
MG BCs: Charge after coarse-graining:           -9.0006764.
MG DL_MG: Calling solver with defect correction order = 8
MG DL_MG: Solver finished
MG Hartree energy from (\int phi*rho dr):              1269.273100
MG Hartree energy from (\int eps (grad phi)^2 dr):     1268.604699
MG Discrepancy due to finite box and discretization:     -0.668401 (  -0.05266%)
MG Correction to account for finite box:                  0.472266
MG Remaining discrepancy, due to discretization:         -0.196134 (  -0.01545%)
     Trial step:       0.738408445170
             Q1:  -11704.444600941846
 Quadratic coef:       8.238115260623
 Linear coef   :      -7.375865103107
           Qmin:  -11706.957816893664
Quadratic minimum step length (  0.330561111994) accepted
    Initial Ne1:    7233.99948176
      Final Ne1:    7234.00000000

=================== Penalty functional idempotency correction ==================
 RMS occupancy error at iteration   1:  0.000359 (step -0.4986 Ne1=   7234.0000)
 RMS occupancy error at iteration   2:  0.000000 (step -0.5000 Ne1=   7234.0000)
            Final RMS occupancy error   :  0.000000 (Ne1=   7234.0000)
               Final occupancy bounds   : [  0.0000,  1.0000]
================================================================================

    1        -1.170530685110E+04     4.8296E-04     4.3690E-04
MG BCs: +ve charge blocks (gridpoints):     24398 (   16562039).
MG BCs: -ve charge blocks (gridpoints):      8257 (    1059734).
MG BCs:     Elided blocks (gridpoints):    172722 (  173154932).
MG BCs: Computational effort saved:  99.9829%.
MG BCs: Charge after coarse-graining:           -9.0006787.
MG DL_MG: Calling solver with defect correction order = 8
MG DL_MG: Solver finished
MG Hartree energy from (\int phi*rho dr):              1259.594159
MG Hartree energy from (\int eps (grad phi)^2 dr):     1258.928826
MG Discrepancy due to finite box and discretization:     -0.665334 (  -0.05282%)
MG Correction to account for finite box:                  0.472800
MG Remaining discrepancy, due to discretization:         -0.192534 (  -0.01529%)
      ideal mu1:      -0.713338324939
             Q0:  -11706.930992717040
             G0:      -1.008316062420
   RMS gradient:       0.000154158606
MG BCs: +ve charge blocks (gridpoints):     24404 (   16561524).
MG BCs: -ve charge blocks (gridpoints):      8257 (    1060587).
MG BCs:     Elided blocks (gridpoints):    172716 (  173154594).
MG BCs: Computational effort saved:  99.9829%.
MG BCs: Charge after coarse-graining:           -9.0006786.
MG DL_MG: Calling solver with defect correction order = 8
MG DL_MG: Solver finished
MG Hartree energy from (\int phi*rho dr):              1260.634385
MG Hartree energy from (\int eps (grad phi)^2 dr):     1259.968902
MG Discrepancy due to finite box and discretization:     -0.665482 (  -0.05279%)
MG Correction to account for finite box:                  0.472539
MG Remaining discrepancy, due to discretization:         -0.192944 (  -0.01531%)
     Trial step:       0.494053758958
             Q1:  -11707.142938868259
 Quadratic coef:       0.286216189637
 Linear coef   :      -0.498162340857
           Qmin:  -11707.147756938311
Quadratic minimum step length (  0.429952927162) accepted
    Initial Ne1:    7233.99993131
      Final Ne1:    7234.00000000

=================== Penalty functional idempotency correction ==================
 RMS occupancy error at iteration   1:  0.000155 (step -0.4990 Ne1=   7234.0000)
 RMS occupancy error at iteration   2:  0.000000 (step -0.5000 Ne1=   7234.0000)
            Final RMS occupancy error   :  0.000000 (Ne1=   7234.0000)
               Final occupancy bounds   : [  0.0000,  1.0000]
================================================================================

    2        -1.170693099272E+04     1.5416E-04     1.3945E-04    -1.6241E+00
MG BCs: +ve charge blocks (gridpoints):     24402 (   16561574).
MG BCs: -ve charge blocks (gridpoints):      8256 (    1060467).
MG BCs:     Elided blocks (gridpoints):    172718 (  173154664).
MG BCs: Computational effort saved:  99.9829%.
MG BCs: Charge after coarse-graining:           -9.0006786.
MG DL_MG: Calling solver with defect correction order = 8
MG DL_MG: Solver finished
MG Hartree energy from (\int phi*rho dr):              1260.499273
MG Hartree energy from (\int eps (grad phi)^2 dr):     1259.833811
MG Discrepancy due to finite box and discretization:     -0.665462 (  -0.05279%)
MG Correction to account for finite box:                  0.472573
MG Remaining discrepancy, due to discretization:         -0.192889 (  -0.01530%)
      ideal mu1:      -0.714269706423
             Q0:  -11707.148234386928
             G0:      -0.178523187335
   RMS gradient:       0.000064496912
MG BCs: +ve charge blocks (gridpoints):     24403 (   16561040).
MG BCs: -ve charge blocks (gridpoints):      8260 (    1060796).
MG BCs:     Elided blocks (gridpoints):    172717 (  173154869).
MG BCs: Computational effort saved:  99.9829%.
MG BCs: Charge after coarse-graining:           -9.0006786.
MG DL_MG: Calling solver with defect correction order = 8
MG DL_MG: Solver finished
MG Hartree energy from (\int phi*rho dr):              1260.042206
MG Hartree energy from (\int eps (grad phi)^2 dr):     1259.377053
MG Discrepancy due to finite box and discretization:     -0.665152 (  -0.05279%)
MG Correction to account for finite box:                  0.472278
MG Remaining discrepancy, due to discretization:         -0.192874 (  -0.01531%)
     Trial step:       0.460890290459
             Q1:  -11707.206221680273
 Quadratic coef:       0.024292310320
 Linear coef   :      -0.082279603664
           Qmin:  -11707.217905952642
Quadratic minimum step length (  0.780532397553) accepted
    Initial Ne1:    7233.99997815
      Final Ne1:    7234.00000000

=================== Penalty functional idempotency correction ==================
 RMS occupancy error at iteration   1:  0.000231 (step -0.4869 Ne1=   7234.0000)
 RMS occupancy error at iteration   2:  0.000003 (step -0.5000 Ne1=   7234.0000)
            Final RMS occupancy error   :  0.000000 (Ne1=   7234.0000)
               Final occupancy bounds   : [  0.0000,  1.0000]
================================================================================

    3        -1.170714823439E+04     6.4497E-05     5.8345E-05    -2.1724E-01
MG BCs: +ve charge blocks (gridpoints):     24402 (   16560680).
MG BCs: -ve charge blocks (gridpoints):      8263 (    1061042).
MG BCs:     Elided blocks (gridpoints):    172718 (  173154983).
MG BCs: Computational effort saved:  99.9829%.
MG BCs: Charge after coarse-graining:           -9.0006786.
MG DL_MG: Calling solver with defect correction order = 8
MG DL_MG: Solver finished
MG Hartree energy from (\int phi*rho dr):              1259.725563
MG Hartree energy from (\int eps (grad phi)^2 dr):     1259.060630
MG Discrepancy due to finite box and discretization:     -0.664933 (  -0.05278%)
MG Correction to account for finite box:                  0.472068
MG Remaining discrepancy, due to discretization:         -0.192864 (  -0.01531%)
      ideal mu1:      -0.713416862488
             Q0:  -11707.217784201377
             G0:      -0.084935305209
   RMS gradient:       0.000044579664
MG BCs: +ve charge blocks (gridpoints):     24401 (   16560502).
MG BCs: -ve charge blocks (gridpoints):      8265 (    1061076).
MG BCs:     Elided blocks (gridpoints):    172719 (  173155127).
MG BCs: Computational effort saved:  99.9829%.
MG BCs: Charge after coarse-graining:           -9.0006786.
MG DL_MG: Calling solver with defect correction order = 8
MG DL_MG: Solver finished
MG Hartree energy from (\int phi*rho dr):              1259.714749
MG Hartree energy from (\int eps (grad phi)^2 dr):     1259.050381
MG Discrepancy due to finite box and discretization:     -0.664368 (  -0.05274%)
MG Correction to account for finite box:                  0.471651
MG Remaining discrepancy, due to discretization:         -0.192717 (  -0.01530%)
     Trial step:       0.599783130324
             Q1:  -11707.249624764780
 Quadratic coef:       0.019102199831
 Linear coef   :      -0.050942763233
           Qmin:  -11707.251748419489
Quadratic minimum step length (  0.799766787862) accepted
    Initial Ne1:    7233.99998817
      Final Ne1:    7234.00000000

=================== Penalty functional idempotency correction ==================
 RMS occupancy error at iteration   1:  0.000486 (step -0.4680 Ne1=   7234.0000)
 RMS occupancy error at iteration   2:  0.000008 (step -0.4997 Ne1=   7234.0000)
            Final RMS occupancy error   :  0.000000 (Ne1=   7234.0000)
               Final occupancy bounds   : [ -0.0000,  1.0000]
================================================================================

    4        -1.170721778420E+04     4.4580E-05     4.0328E-05    -6.9550E-02
MG BCs: +ve charge blocks (gridpoints):     24399 (   16560429).
MG BCs: -ve charge blocks (gridpoints):      8266 (    1061101).
MG BCs:     Elided blocks (gridpoints):    172721 (  173155175).
MG BCs: Computational effort saved:  99.9829%.
MG BCs: Charge after coarse-graining:           -9.0006787.
MG DL_MG: Calling solver with defect correction order = 8
MG DL_MG: Solver finished
MG Hartree energy from (\int phi*rho dr):              1259.713256
MG Hartree energy from (\int eps (grad phi)^2 dr):     1259.049072
MG Discrepancy due to finite box and discretization:     -0.664183 (  -0.05272%)
MG Correction to account for finite box:                  0.471515
MG Remaining discrepancy, due to discretization:         -0.192668 (  -0.01529%)
      ideal mu1:      -0.713895435019
             Q0:  -11707.251520281075
             G0:      -0.085599126480
   RMS gradient:       0.000044804319
MG BCs: +ve charge blocks (gridpoints):     24399 (   16561953).
MG BCs: -ve charge blocks (gridpoints):      8262 (    1060543).
MG BCs:     Elided blocks (gridpoints):    172721 (  173154209).
MG BCs: Computational effort saved:  99.9829%.
MG BCs: Charge after coarse-graining:           -9.0006783.
MG DL_MG: Calling solver with defect correction order = 8
MG DL_MG: Solver finished
MG Hartree energy from (\int phi*rho dr):              1260.679819
MG Hartree energy from (\int eps (grad phi)^2 dr):     1260.016436
MG Discrepancy due to finite box and discretization:     -0.663383 (  -0.05262%)
MG Correction to account for finite box:                  0.470803
MG Remaining discrepancy, due to discretization:         -0.192580 (  -0.01528%)
     Trial step:       0.692594129020
             Q1:  -11707.283875602763
 Quadratic coef:       0.026930130762
 Linear coef   :      -0.059285452449
           Qmin:  -11707.284148834788
Quadratic minimum step length (  0.762357165400) accepted
    Initial Ne1:    7234.00004671
      Final Ne1:    7234.00000000

=================== Penalty functional idempotency correction ==================
 RMS occupancy error at iteration   1:  0.001305 (step -0.4234 Ne1=   7234.0000)
 RMS occupancy error at iteration   2:  0.000046 (step -0.4976 Ne1=   7234.0000)
 RMS occupancy error at iteration   3:  0.000000 (step -0.5000 Ne1=   7234.0000)
            Final RMS occupancy error   :  0.000000 (Ne1=   7234.0000)
               Final occupancy bounds   : [  0.0000,  1.0000]
================================================================================

    5        -1.170725152028E+04     4.4804E-05     4.0531E-05    -3.3736E-02
MG BCs: +ve charge blocks (gridpoints):     24399 (   16562144).
MG BCs: -ve charge blocks (gridpoints):      8262 (    1060473).
MG BCs:     Elided blocks (gridpoints):    172721 (  173154088).
MG BCs: Computational effort saved:  99.9829%.
MG BCs: Charge after coarse-graining:           -9.0006783.
MG DL_MG: Calling solver with defect correction order = 8
MG DL_MG: Solver finished
MG Hartree energy from (\int phi*rho dr):              1260.778234
MG Hartree energy from (\int eps (grad phi)^2 dr):     1260.114918
MG Discrepancy due to finite box and discretization:     -0.663316 (  -0.05261%)
MG Correction to account for finite box:                  0.470746
MG Remaining discrepancy, due to discretization:         -0.192571 (  -0.01527%)
      ideal mu1:      -0.715183256443
             Q0:  -11707.284403443802
             G0:      -0.063177432084
   RMS gradient:       0.000037697003
MG BCs: +ve charge blocks (gridpoints):     24397 (   16562055).
MG BCs: -ve charge blocks (gridpoints):      8263 (    1060649).
MG BCs:     Elided blocks (gridpoints):    172723 (  173154001).
MG BCs: Computational effort saved:  99.9829%.
MG BCs: Charge after coarse-graining:           -9.0006783.
MG DL_MG: Calling solver with defect correction order = 8
MG DL_MG: Solver finished
MG Hartree energy from (\int phi*rho dr):              1260.530117
MG Hartree energy from (\int eps (grad phi)^2 dr):     1259.867248
MG Discrepancy due to finite box and discretization:     -0.662869 (  -0.05259%)
MG Correction to account for finite box:                  0.470258
MG Remaining discrepancy, due to discretization:         -0.192610 (  -0.01528%)
     Trial step:       0.726638904114
             Q1:  -11707.311689139227
 Quadratic coef:       0.018621484589
 Linear coef   :      -0.045907180015
           Qmin:  -11707.312696960988
Quadratic minimum step length (  0.895684305337) accepted
    Initial Ne1:    7234.00003885
      Final Ne1:    7234.00000000

=================== Penalty functional idempotency correction ==================
 RMS occupancy error at iteration   1:  0.002062 (step -0.3943 Ne1=   7234.0000)
 RMS occupancy error at iteration   2:  0.000087 (step -0.4962 Ne1=   7234.0000)
 RMS occupancy error at iteration   3:  0.000001 (step -0.5000 Ne1=   7234.0000)
            Final RMS occupancy error   :  0.000000 (Ne1=   7234.0000)
               Final occupancy bounds   : [  0.0000,  1.0000]
================================================================================

    6        -1.170728440344E+04     3.7697E-05     3.4101E-05    -3.2883E-02
MG BCs: +ve charge blocks (gridpoints):     24396 (   16562062).
MG BCs: -ve charge blocks (gridpoints):      8262 (    1060664).
MG BCs:     Elided blocks (gridpoints):    172724 (  173153979).
MG BCs: Computational effort saved:  99.9829%.
MG BCs: Charge after coarse-graining:           -9.0006783.
MG DL_MG: Calling solver with defect correction order = 8
MG DL_MG: Solver finished
MG Hartree energy from (\int phi*rho dr):              1260.473478
MG Hartree energy from (\int eps (grad phi)^2 dr):     1259.810699
MG Discrepancy due to finite box and discretization:     -0.662780 (  -0.05258%)
MG Correction to account for finite box:                  0.470160
MG Remaining discrepancy, due to discretization:         -0.192619 (  -0.01528%)
      ideal mu1:      -0.715193118700
             Q0:  -11707.313426150475
             G0:      -0.048885034295
   RMS gradient:       0.000033786614
MG BCs: +ve charge blocks (gridpoints):     24400 (   16560377).
MG BCs: -ve charge blocks (gridpoints):      8263 (    1061028).
MG BCs:     Elided blocks (gridpoints):    172720 (  173155300).
MG BCs: Computational effort saved:  99.9829%.
MG BCs: Charge after coarse-graining:           -9.0006787.
MG DL_MG: Calling solver with defect correction order = 8
MG DL_MG: Solver finished
MG Hartree energy from (\int phi*rho dr):              1259.740717
MG Hartree energy from (\int eps (grad phi)^2 dr):     1259.077914
MG Discrepancy due to finite box and discretization:     -0.662803 (  -0.05261%)
MG Correction to account for finite box:                  0.470158
MG Remaining discrepancy, due to discretization:         -0.192645 (  -0.01529%)
     Trial step:       0.806745971209
             Q1:  -11707.326024748269
 Quadratic coef:       0.026839206676
 Linear coef   :      -0.039437804470
           Qmin:  -11707.327913728668
Quadratic minimum step length (  0.592720385783) accepted
    Initial Ne1:    7233.99999994
      Final Ne1:    7234.00000000

=================== Penalty functional idempotency correction ==================
 RMS occupancy error at iteration   1:  0.000030 (step -0.4977 Ne1=   7234.0000)
            Final RMS occupancy error   :  0.000000 (Ne1=   7234.0000)
               Final occupancy bounds   : [ -0.0000,  1.0000]
================================================================================

    7        -1.170731342615E+04     3.3787E-05     3.0564E-05    -2.9023E-02
MG BCs: +ve charge blocks (gridpoints):     24400 (   16560778).
MG BCs: -ve charge blocks (gridpoints):      8262 (    1060967).
MG BCs:     Elided blocks (gridpoints):    172720 (  173154960).
MG BCs: Computational effort saved:  99.9829%.
MG BCs: Charge after coarse-graining:           -9.0006786.
MG DL_MG: Calling solver with defect correction order = 8
MG DL_MG: Solver finished
MG Hartree energy from (\int phi*rho dr):              1259.933752
MG Hartree energy from (\int eps (grad phi)^2 dr):     1259.270955
MG Discrepancy due to finite box and discretization:     -0.662798 (  -0.05261%)
MG Correction to account for finite box:                  0.470159
MG Remaining discrepancy, due to discretization:         -0.192638 (  -0.01529%)
      ideal mu1:      -0.714691889569
             Q0:  -11707.327922535129
             G0:      -0.037138478051
   RMS gradient:       0.000029444092
MG BCs: +ve charge blocks (gridpoints):     24402 (   16560753).
MG BCs: -ve charge blocks (gridpoints):      8264 (    1060956).
MG BCs:     Elided blocks (gridpoints):    172718 (  173154996).
MG BCs: Computational effort saved:  99.9829%.
MG BCs: Charge after coarse-graining:           -9.0006786.
MG DL_MG: Calling solver with defect correction order = 8
MG DL_MG: Solver finished
MG Hartree energy from (\int phi*rho dr):              1259.811518
MG Hartree energy from (\int eps (grad phi)^2 dr):     1259.148680
[...]
MG Hartree energy from (\int phi*rho dr):              1216.896159
MG Hartree energy from (\int eps (grad phi)^2 dr):     1216.697715
MG Discrepancy due to finite box and discretization:     -0.198444 (  -0.01631%)
MG Correction to account for finite box:                  0.006376
MG Remaining discrepancy, due to discretization:         -0.192068 (  -0.01578%)
             Q2:  -11742.326713652466
  Cubic LS coeff:       0.984570863015
Predicted energy:  -11742.326713652494
Cubic minimum step length accepted
    Initial Ne1:    7234.00000000
      Final Ne1:    7234.00000000

=================== Penalty functional idempotency correction ==================
 RMS occupancy error at iteration   1:  0.000000 (step -0.5000 Ne1=   7234.0000)
            Final RMS occupancy error   :  0.000000 (Ne1=   7234.0000)
               Final occupancy bounds   : [  0.0000,  1.0000]
================================================================================

    7        -1.174232671365E+04     1.0349E-08     9.3620E-09    -3.0268E-09

Reusing previously generated solute cavity.
MG BCs: +ve charge blocks (gridpoints):     28806 (   18763031).
MG BCs: -ve charge blocks (gridpoints):      8260 (    1030321).
MG BCs:     Elided blocks (gridpoints):    168314 (  170983353).
MG BCs: Computational effort saved:  99.9806%.
MG BCs: Charge after coarse-graining:           -9.0009468.
MG DL_MG: Calling solver with defect correction order = 8
MG DL_MG: Solver finished
MG Hartree energy from (\int phi*rho dr):              1216.896159
MG Hartree energy from (\int eps (grad phi)^2 dr):     1216.697715
MG Discrepancy due to finite box and discretization:     -0.198444 (  -0.01631%)
MG Correction to account for finite box:                  0.006376
MG Remaining discrepancy, due to discretization:         -0.192068 (  -0.01578%)
      ideal mu1:      -0.481194623131
             Q0:  -11742.326713652466
             G0:      -0.000000006005
   RMS gradient:       0.000000011677

Reusing previously generated solute cavity.
MG BCs: +ve charge blocks (gridpoints):     28806 (   18763030).
MG BCs: -ve charge blocks (gridpoints):      8260 (    1030320).
MG BCs:     Elided blocks (gridpoints):    168314 (  170983355).
MG BCs: Computational effort saved:  99.9806%.
MG BCs: Charge after coarse-graining:           -9.0009468.
MG DL_MG: Calling solver with defect correction order = 8
MG DL_MG: Solver finished
MG Hartree energy from (\int phi*rho dr):              1216.896126
MG Hartree energy from (\int eps (grad phi)^2 dr):     1216.697682
MG Discrepancy due to finite box and discretization:     -0.198444 (  -0.01631%)
MG Correction to account for finite box:                  0.006376
MG Remaining discrepancy, due to discretization:         -0.192068 (  -0.01578%)
     Trial step:       0.703324032694
             Q1:  -11742.326713654911
 Quadratic coef:       0.000000001779
 Linear coef   :      -0.000000004224
           Qmin:  -11742.326713654973
Quadratic minimum step length (  0.834929066909) accepted
    Initial Ne1:    7234.00000000
      Final Ne1:    7234.00000000

=================== Penalty functional idempotency correction ==================
 RMS occupancy error at iteration   1:  0.000000 (step -0.5000 Ne1=   7234.0000)
            Final RMS occupancy error   :  0.000000 (Ne1=   7234.0000)
               Final occupancy bounds   : [ -0.0000,  1.0000]
================================================================================

    8        -1.174232671365E+04     1.1677E-08     1.0564E-08    -5.0059E-09

Reusing previously generated solute cavity.
MG BCs: +ve charge blocks (gridpoints):     28806 (   18763031).
MG BCs: -ve charge blocks (gridpoints):      8260 (    1030320).
MG BCs:     Elided blocks (gridpoints):    168314 (  170983354).
MG BCs: Computational effort saved:  99.9806%.
MG BCs: Charge after coarse-graining:           -9.0009468.
MG DL_MG: Calling solver with defect correction order = 8
MG DL_MG: Solver finished
MG Hartree energy from (\int phi*rho dr):              1216.896120
MG Hartree energy from (\int eps (grad phi)^2 dr):     1216.697676
MG Discrepancy due to finite box and discretization:     -0.198444 (  -0.01631%)
MG Correction to account for finite box:                  0.006376
MG Remaining discrepancy, due to discretization:         -0.192068 (  -0.01578%)
      ideal mu1:      -0.481194576259
             Q0:  -11742.326713655144
             G0:      -0.000000003185
   RMS gradient:       0.000000007655

Reusing previously generated solute cavity.
MG BCs: +ve charge blocks (gridpoints):     28806 (   18763032).
MG BCs: -ve charge blocks (gridpoints):      8260 (    1030320).
MG BCs:     Elided blocks (gridpoints):    168314 (  170983353).
MG BCs: Computational effort saved:  99.9806%.
MG BCs: Charge after coarse-graining:           -9.0009468.
MG DL_MG: Calling solver with defect correction order = 8
MG DL_MG: Solver finished
MG Hartree energy from (\int phi*rho dr):              1216.896129
MG Hartree energy from (\int eps (grad phi)^2 dr):     1216.697685
MG Discrepancy due to finite box and discretization:     -0.198444 (  -0.01631%)
MG Correction to account for finite box:                  0.006376
MG Remaining discrepancy, due to discretization:         -0.192068 (  -0.01578%)
     Trial step:       0.766306517232
             Q1:  -11742.326713655842
 Quadratic coef:       0.000000001743
 Linear coef   :      -0.000000002440
           Qmin:  -11742.326713655999
Quadratic minimum step length (  0.536594105732) accepted
    Initial Ne1:    7234.00000000
      Final Ne1:    7234.00000000

=================== Penalty functional idempotency correction ==================
 RMS occupancy error at iteration   1:  0.000000 (step -0.5000 Ne1=   7234.0000)
            Final RMS occupancy error   :  0.000000 (Ne1=   7234.0000)
               Final occupancy bounds   : [  0.0000,  1.0000]
================================================================================

    9        -1.174232671366E+04     7.6547E-09     6.9246E-09    -2.6776E-09

Reusing previously generated solute cavity.
MG BCs: +ve charge blocks (gridpoints):     28806 (   18763032).
MG BCs: -ve charge blocks (gridpoints):      8260 (    1030320).
MG BCs:     Elided blocks (gridpoints):    168314 (  170983353).
MG BCs: Computational effort saved:  99.9806%.
MG BCs: Charge after coarse-graining:           -9.0009468.
MG DL_MG: Calling solver with defect correction order = 8
MG DL_MG: Solver finished
MG Hartree energy from (\int phi*rho dr):              1216.896126
MG Hartree energy from (\int eps (grad phi)^2 dr):     1216.697682
MG Discrepancy due to finite box and discretization:     -0.198444 (  -0.01631%)
MG Correction to account for finite box:                  0.006376
MG Remaining discrepancy, due to discretization:         -0.192068 (  -0.01578%)
      ideal mu1:      -0.481194589032
   10        -1.174232671366E+04     4.4717E-09     4.0452E-09    -5.8208E-10
Finished density kernel iterations (  10)

Writing density kernel to file "complex_38101.dkn" ... done


>>> Density kernel optimised for the current NGWF basis:
     ~~~~~~~~~~~~~~~~~~~~~~~~~~~~~~~~~~~~~~~~~~~~~~~~~~~~~~~~~~~
     Total energy                =  -1.17423267136557E+04  Eh
     Estimated bandgap           =   8.4446E-02  Eh
     RMS occupancy error         =   3.2051E-16
     [H,K] commutator            =   4.0452E-09
     Occupancy bounds            = [  0.000:  1.000]
     ~~~~~~~~~~~~~~~~~~~~~~~~~~~~~~~~~~~~~~~~~~~~~~~~~~~~~~~~~~~




################################################################################
########################### NGWF CG iteration  004 #############################
################################################################################
****** Reciprocal space K.E. preconditioning with k_zero =  3.5000 a0^-1 *******

>>> Checking for convergence of NGWFs: 
           ........................................................
           |         *** NGWF optimisation converged ***          |
           | RMS NGWF gradient =    0.00000188181089              |
           | Criteria satisfied:                                  |
           | -> RMS NGWF gradient lower than set threshold.       |
           ========================================================

Reusing previously generated solute cavity.
MG BCs: +ve charge blocks (gridpoints):     28806 (   18763032).
MG BCs: -ve charge blocks (gridpoints):      8260 (    1030320).
MG BCs:     Elided blocks (gridpoints):    168314 (  170983353).
MG BCs: Computational effort saved:  99.9806%.
MG BCs: Charge after coarse-graining:           -9.0009468.
MG DL_MG: Calling solver with defect correction order = 8
MG DL_MG: Solver finished
MG Hartree energy from (\int phi*rho dr):              1216.896126
MG Hartree energy from (\int eps (grad phi)^2 dr):     1216.697682
MG Discrepancy due to finite box and discretization:     -0.198444 (  -0.01631%)
MG Correction to account for finite box:                  0.006376
MG Remaining discrepancy, due to discretization:         -0.192068 (  -0.01578%)

================================================================================
           ---------------- ENERGY COMPONENTS (Eh) ----------------
           | Kinetic                    :     8573.39055632099917 |
           | Pseudo. (local,OBC,corr'd) :    -5074.40991285119162 |
           | Pseudopotential (non-local):     1411.77080177638891 |
           | Hartree (molecular)        :     1216.89612623260814 |
           | Exchange-correlation       :    -3376.64821819929102 |
           | Ion-ion (open BC)          :   838909.71198948984966 |
           | Dispersion Correction      :       -3.32194615782936 |
           | Smeared ion non-self corr. :  -838861.40506316954270 |
           | Smeared ion self corr.     :   -14538.95273137971526 |
           | Solvent cavitation energy  :        2.28296462500651 |
           | Solute-solvent dis-rep en. :       -1.64128034303280 |
           | Total                      :   -11742.32671365572969 |
           --------------------------------------------------------
           ------ LOCAL ENERGY COMPONENTS FROM MATRIX TRACES ------
           | Pseudopotential (local)    :    -5074.40991285118798 |
           | Hartree                    :    -2002.83253973495584 |
           --------------------------------------------------------
           Integrated density           :     7233.99999999899683
           Integrated density tr(KS)    :     7233.99999999999909
================================================================================


                        <<<<< CALCULATION SUMMARY >>>>>                         
|ITER|    RMS GRADIENT   |     TOTAL ENERGY    |   step   |     Epredicted              
   0     0.00004180815459 -11742.25926337891724   0.622657 -11742.31753197183025        
   1     0.00000943147760 -11742.32628203264903   0.074585 -11742.32663723526093        
   2     0.00000418276111 -11742.32669880334288   0.013857 -11742.32671178305282        
   3     0.00000188181089 -11742.32671365572605  <-- CG                                 

=================== Finished the calculation in solvent ========================
= Adjusting the following parameters: 
= read_denskern: F
= read_tightbox_ngwfs: F
= maxit_pen: 0 (restored to user-specified value)
= restart read filename prefix: ""
= restart write filename prefix: ""
================================================================================

================================================================================
IS: Calculation in solvent completed (NGWFs converged).      

Individual components of total energy in solvent:     hartree           kcal/mol
- Usual non-electrostatic DFT terms:    -12959.86452417030887    -8132437.595057
- Electrostatic fixed charge energy:      1216.89612623260814      763613.831595
- Apolar cavitation energy:                  2.28296462500651        1432.581900
- Apolar dispersion-repulsion energy:       -1.64128034303280       -1029.918943
 -------------------------------------------------------------------------------
- Total energy in solvent:              -11742.32671365572605    -7368421.100505

Components of total energy in solvent:                hartree           kcal/mol
- Usual non-electrostatic DFT terms:    -12959.86452417030887    -8132437.595057
- Electrostatic energy:                   1216.89612623260814      763613.831595
- Apolar energy terms:                       0.64168428197370         402.662958
 -------------------------------------------------------------------------------
- Total energy in solvent:              -11742.32671365572605    -7368421.100505

Calculation of free energy of solvation:              hartree           kcal/mol
- Total energy in solvent:         (+)  -11742.32671365572605    -7368421.100505
- Total energy in vacuum:          (-)  -11738.47582683339715    -7366004.632592
 -------------------------------------------------------------------------------
- Total free energy of solvation:           -3.85088682232890       -2416.467912

Components of polar term in f.e. of solvation:        hartree           kcal/mol
- Electrostatic:                            -4.62202586858189       -2900.364959
- Change in nonelectrostatic DFT terms:      0.12945476427922          81.234089
 -------------------------------------------------------------------------------
- Polar term in f.e. of solvation:          -4.49257110430267       -2819.130870

Components of free energy of solvation:               hartree           kcal/mol
- Polar term in f.e. of solvation: (+)      -4.49257110430267       -2819.130870
- Apolar (cavitation, dis., rep.): (+)       0.64168428197370         402.662958
 -------------------------------------------------------------------------------
- Total free energy of solvation:           -3.85088682232897       -2416.467912
================================================================================


------------------------------ TIMING INFORMATION ------------------------------
AVERAGE TIME:   29621.056s on     60 node(s)                                    
TOTAL TIME:     29621.056s on     60 node(s)                                    
================= AVERAGE TIMINGS FROM ALL NODES (CUMULATIVE) ==================
|| TAG                                    #calls    cpu time   %total  Gflops ||
|| work_imbalance                       :     1        0.00s   0.000%  ------ ||
|| sparse_set_to_garbage                :   164        0.03s   0.000%  ------ ||
|| parallel_prepare_fd_halos_request    :  1827        0.03s   0.000%  ------ ||
|| ngwfs_initialise_from_radial         :     1        0.09s   0.000%  ------ ||
|| basis_extract_function_from_box      :  3381        0.15s   0.001%  ------ ||
|| parallel_prepare_fd_halos_satisfy    :  1827        0.63s   0.002%  ------ ||
|| parallel_prepare_fd_halos_alloc      :  1827        1.78s   0.006%  ------ ||
|| pseudopotentials_nonlocal_mat        :    28        2.17s   0.007%  ------ ||
|| restart_kernel_read                  :     1        4.17s   0.014%  ------ ||
|| openbc_locps_radial                  :     1        4.67s   0.016%  ------ ||
|| restart_ngwfs_tightbox_input         :     1        8.31s   0.028%  ------ ||
|| parallel_prepare_fd_halos_comms_imbal:  1827        9.13s   0.031%  ------ ||
|| density_init_guess_real              :     1       12.28s   0.041%  ------ ||
|| parallel_prepare_fd_halos_clear      :  1827       18.85s   0.064%  ------ ||
|| sparse_init                          :     2       23.60s   0.080%  ------ ||
|| projectors_func_ovlp_box             :    28       24.86s   0.084%  ------ ||
|| parallel_prepare_fd_halos_comms_wait :  1827       25.33s   0.085%  ------ ||
|| function_ops_brappd_ketppd           :    28       27.80s   0.094%  ------ ||
|| projectors_init_fftbox_recip         :   133       29.91s   0.101%  ------ ||
|| palser_mano_kernel_optimise          :     1       38.24s   0.129%  ------ ||
|| basis_copy_function_to_box           : 54860       38.52s   0.130%  ------ ||
|| ngwf_gradient_coeffs                 :    15       45.15s   0.152%  ------ ||
|| fourier_apply_box_pair               :  4812       49.45s   0.167% 563.377 ||
|| pseudo_make_structure_factor         :     2       51.40s   0.174%  ------ ||
|| parallel_prepare_fd_halos            :  1827       55.76s   0.188%  ------ ||
|| sparse_embed_hotelling_invert_embed  :    28       72.53s   0.245%  ------ ||
|| restart_kernel_write                 :    16       94.63s   0.319%  ------ ||
|| projectors_gradient_batch            :   105      141.42s   0.477%  ------ ||
|| integrals_kinetic                    :    28      141.87s   0.479%  ------ ||
|| finite_difference_derivative         :  1827      148.55s   0.502%  ------ ||
|| fourier_apply_cell_backward          :  1219      165.83s   0.560% 100.057 ||
|| basis_dot_function_with_box          : 8.473M     186.89s   0.631%  ------ ||
|| sparse_trace                         :  5179      190.49s   0.643%  ------ ||
|| fourier_apply_cell_forward           :  1217      223.00s   0.753%  74.285 ||
|| openbc_locps_on_grid                 :     2      264.26s   0.892%  ------ ||
|| kernel_purify                        :   464      277.82s   0.938%  ------ ||
|| lnv_gradient_norm                    :   150      394.20s   1.331%  ------ ||
|| basis_add_function_to_box            : 17.62M     404.39s   1.365%  ------ ||
|| xc_energy_potential                  :   304      449.26s   1.517%  ------ ||
|| hamiltonian_energy_components        :     4      495.37s   1.672%  ------ ||
|| kernel_fix                           :   150      523.21s   1.766%  ------ ||
|| ngwf_gradient_build_batch            :   105      719.53s   2.429%  ------ ||
|| integrals_locpot_mat_els_batch       :  1113      724.63s   2.446%  ------ ||
|| ngwf_gradient_batch                  :   105      998.06s   3.369%  ------ ||
|| density_batch_row_sums               :  2121      998.31s   3.370%  ------ ||
|| restart_ngwfs_tightbox_output        :    13     1034.29s   3.492%  ------ ||
|| ngwf_gradient_lnv                    :    15     1140.49s   3.850%  ------ ||
|| cell_grid_deposit_box_real           : 35200     1331.44s   4.495%  ------ ||
|| cell_grid_extract_box_real           : 38596     1519.55s   5.130%  ------ ||
|| sparse_product                       :  6394     1746.92s   5.898%  ------ ||
|| density_fftbox_deposit_to_cell       : 33330     2006.76s   6.775%  ------ ||
|| density_fftbox_interpolate_multiply  : 33330     3389.59s  11.443%  ------ ||
|| potential_apply_to_ngwf_batch        :  1113     3514.78s  11.866%  ------ ||
|| fourier_apply_box                    : 114.7k    4186.83s  14.135% 769.206 ||
|| multigrid_prepare_bound_cond         :   304     4218.27s  14.241%  ------ ||
|| integrals_locpot_dbl_grid            :   159     4255.72s  14.367%  ------ ||
|| density_batch_interp_deposit         :  2121     6312.29s  21.310%  ------ ||
|| dl_mg_solver_calls                   :   304     7175.57s  24.225%  ------ ||
|| density_on_dbl_grid                  :   303     7676.76s  25.917%  ------ ||
|| multigrid_calculate_hartree          :   304    11597.25s  39.152%  ------ ||
|| hamiltonian_lhxc_calculate           :   299    19636.36s  66.292%  ------ ||
|| lnv_denskernel_optimise_cg           :    15    24734.75s  83.504%  ------ ||
|| ngwf_cg_optimise                     :     2    28649.39s  96.720%  ------ ||
|| total_time                           :     1    29621.06s 100.000%  ------ ||
================================================================================
Overhead of generating timer report: 
- 0 ms averaging over threads,
- 15 ms ensuring consistency across MPI ranks,
- 0 ms printing in order.

Job completed: 31-05-2020 02:50 (+0100)

Application 40690343 resources: utime ~6188401s, stime ~205918s, Rss ~3663432, inblocks ~286551875, outblocks ~62109651
