 +---------------------------------------------------------------+
 |                                                               |
 |        ####### #     # ####### ####### ####### ######         |
 |        #     # ##    # #          #    #       #     #        |
 |        #     # # #   # #          #    #       #     #        |
 |        #     # #  #  # #####      #    #####   ######         |
 |        #     # #   # # #          #    #       #              |
 |        #     # #    ## #          #    #       #              |
 |        ####### #     # #######    #    ####### #              |
 |                                                               |
 |        Linear-Scaling Ab Initio Total Energy Program          |
 |                                                               |
 |          Release for academic collaborators of ODG            |
 |                                             Version 5.3.2.6.  |
 |                                                               |
 +---------------------------------------------------------------+
 |                                                               |
 |  Authors:                                                     |
 |  Jacek Dziedzic, Peter D. Haynes, Nicholas D. M. Hine,        |
 |  Arash. A. Mostofi, Mike C. Payne and Chris-Kriton Skylaris   |
 |                                                               |
 |  Contributors:                                                |
 |  J. Aarons, L. Andrinopoulos, P. W. Avraam, R. A. Bell,       |
 |  A. Bhandari, G. A. Bramley, R. J. Charlton, S. J. Clark,     |
 |  R. J. Clements, G. C. Constantinescu, F. Corsetti,           |
 |  N. Corsini, O. Dieguez, S. M. M. Dubois, K. K. B. Duff,      |
 |  J. M. Escartin, A. Greco, H. Helal, Q. O. Hill, L. P. Lee,   |
 |  J.-H. Li, E. B. Linscott, G. Moynihan, D. D. O`Regan,        |
 |  O. K. Okan, M. J. S. Phipps, C. J. Pickard,                  |
 |  J. C. A. Prentice, M. I. J. Probert, L. E. Ratcliff,         |
 |  M. Robinson, A. Ruiz Serrano, J. S. Spencer, E. W. Tait,     |
 |  G. Teobaldi, D. Turban, V. Vitale, K. A. Wilkinson,          |
 |  C. Weber, J. C. Womack, N. Yeung and T. J. Zuehlsdorff       |
 |                                                               |
 |                                   Copyright (c) 2004-2019     |
 |                                                               |
 |  Please cite:                                                 |
 |  "Introducing ONETEP: Linear-scaling density functional       |
 |   simulations on parallel computers".                         |
 |   C.-K. Skylaris, P. D. Haynes, A. A. Mostofi, M. C. Payne.   |
 |   J. Chem. Phys. 122 084119 (2005).                           |
 |                                                               |
 |          in all publications arising from your use of ONETEP. |
 |                                                               |
 +---------------------------------------------------------------+
 |                                                               |
 |   ONETEP is based on developments described in the following  |
 |   publications:                                               |
 |                                                               |
 |  "Nonorthogonal generalized Wannier function pseudopotential  |
 |   plane-wave method".                                         |
 |   C.-K. Skylaris, A. A. Mostofi, P. D. Haynes, O. Dieguez,    |
 |   M. C. Payne.                                                |
 |   Phys. Rev. B 66 035119 (2002).                              |
 |                                                               |
 |  "Preconditioned iterative minimization for linear-scaling    |
 |   electronic structure calculations".                         |
 |   A. A. Mostofi, P. D. Haynes, C.-K. Skylaris, M. C. Payne.   |
 |   J. Chem. Phys. 119(17), pp.8842-8848 (2003).                |
 |                                                               |
 |  "Total-energy calculations on a real space grid with         |
 |   localized functions and a plane-wave basis".                |
 |   A. A. Mostofi, C.-K. Skylaris, P. D. Haynes, M. C. Payne.   |
 |   Comput. Phys. Commun. 147, pp.788-802 (2002).               |
 |                                                               |
 |  "Accurate kinetic energy evaluation in electronic structure  |
 |   calculations with localized functions on real space grids"  |
 |   C.-K. Skylaris, A. A. Mostofi, P. D. Haynes, C. J. Pickard, |
 |   M. C. Payne.                                                |
 |   Comput. Phys. Commun. 140, pp.315-322 (2001).               |
 |                                                               |
 |  "Accurate ionic forces and geometry optimization in linear-  |
 |   scaling density-functional theory with local orbitals"      |
 |   N. D. M. Hine, M. Robinson, P. D. Haynes, C.-K. Skylaris,   |
 |   M. C. Payne, and A. A. Mostofi.                             |
 |   Phys. Rev. B 83 195102 (2011).                              |
 |                                                               |
 +---------------------------------------------------------------+

Job started: 27-05-2020 16:19 (+0100)
 
Reading parameters from file "complex_26701.dat" ...... done

If your calculation crashes here, before "Checking processes and threads..."
is displayed, then your stack size is insufficient.
If so, use "ulimit -s unlimited" at runtime.
You can disable this check with "check_stack_size F".

Checking processes and threads...
   Determining the default number of threads...
      No default threads set at compilation time: defaulting to 1.
      OpenMP library call suggests 4 threads.
      Hybrid MPI-OpenMP compilation detected.
      Number of MPI processes > 1.
      OMP_NUM_THREADS environment variable present and
      its value matches the one obtained from the OpenMP library call.
      Using this value as default.
      Default threads: 4
      Default applies to threads_max and threads_num_fftboxes.
      Settings in the input file override this default.
   ... done

   Running with 40 MPI processes.
   There are 10 MPI processes running on the same node as the root process.
   Each MPI process is using: 
               1 threads for simulation cell FFTs.
               1 threads for parallel FFT box operations.
               4 threads for loops over batched FFT box operations.
               4 threads in other parallel regions.
... done

Basic input checks...... done

Reading geometry and species blocks from file "complex_26701.dat" ...
  <species_atomic_set> block not found: NGWF initialisation set to SOLVE
IS: Dielectric excluded regions:
    - NONE.
    
  Number of PPD points along a3 set to 1.  This is 
  the default value, it may have been provided also in the input file.
... done
 Writing xyz coordinates to file "complex_26701.xyz" ... done


--------------------------------------------------------------------------------
---------------------------------- INPUT FILE ----------------------------------
--------------------------------------------------------------------------------

cutoff_energy       : 800 eV                                                    
xc_functional PBE                                                               
task SINGLEPOINT                                                                
write_xyz true                                                                  
output_detail VERBOSE                                                           
ngwf_threshold_orig : 0.000002                                                  
kernel_cutoff       : 1000                                                      
k_zero              : 3.5                                                       
elec_cg_max 0                                                                   
occ_mix 1.0                                                                     
dispersion 1                                                                    
maxit_ngwf_cg 40                                                                
minit_lnv 10                                                                    
maxit_lnv 10                                                                    
write_denskern T                                                                
write_tightbox_ngwfs T                                                          
charge 9                                                                        
is_implicit_solvent T                                                           
is_auto_solvation T                                                             
is_include_apolar T                                                             
is_smeared_ion_rep T                                                            
is_solvent_surf_tension 4.7624E-5 Ha/bohr**2                                    
is_apolar_scaling_factor 0.281075                                               
is_solvation_beta 1.3                                                           
is_density_threshold 0.00035                                                    
is_bulk_permittivity 78.54                                                      
is_dielectric_model fix_initial                                                 
is_smeared_ion_width 0.8                                                        
mg_defco_fd_order 8                                                             
is_bc_coarseness 10                                                             
is_bc_surface_coarseness 1                                                      
fine_grid_scale 2.0                                                             
%block species                                                                  
N   N   7 4 8.0                                                                 
H   H   1 1 8.0                                                                 
C   C   6 4 8.0                                                                 
S   S  16 9 8.0                                                                 
O   O   8 4 8.0                                                                 
%endblock species                                                               
%block species_pot                                                              
N   N_00.recpot                                                                 
H   H_04.recpot                                                                 
C   C_01.recpot                                                                 
S   S_00.recpot                                                                 
O   O_02.recpot                                                                 
%endblock species_pot                                                           
%block lattice_cart                                                             
139.252   0.000   0.000                                                         
0.000 142.425   0.000                                                           
0.000   0.000   162.84                                                          
%endblock lattice_cart                                                          
%block positions_abs                                                            
     Hash =   000007937914515475189283
%endblock positions_abs                                                         

--------------------------------------------------------------------------------
-------------------------------- END INPUT FILE --------------------------------
--------------------------------------------------------------------------------


 
 ESDF WARNING(1): "kernelcutoff" (esdf_physical) has no units. Assume "bohr".
 ESDF WARNING(2): "kzero" (esdf_physical) has no units. Assume "1/bohr".
 ESDF WARNING(3
 ): "issmearedionwidth" (esdf_physical) has no units. Assume "bohr".
<<<<<<<<<<<<<<<<<<<<<<<<<<<<<<<<< Full system >>>>>>>>>>>>>>>>>>>>>>>>>>>>>>>>>>
<<<<<<<<<<<<<<<<<<<<<<<<< Pseudopotential information >>>>>>>>>>>>>>>>>>>>>>>>>>
File: N_00.recpot [ 2001 points up to Gmax=  52.9 (1/bohr)]
  Atomic number:  7;  ionic charge:  5.000000
    Shell 1: l = 0; rc = 1.48 bohr
File: H_04.recpot [ 2001 points up to Gmax=  52.9 (1/bohr)]
  Atomic number:  1;  ionic charge:  1.000000
    Local potential
File: C_01.recpot [ 2001 points up to Gmax=  52.9 (1/bohr)]
  Atomic number:  6;  ionic charge:  4.000000
    Shell 1: l = 0; rc = 1.48 bohr
File: S_00.recpot [ 2001 points up to Gmax=  52.9 (1/bohr)]
  Atomic number: 16;  ionic charge:  6.000000
    Shell 1: l = 0; rc = 1.90 bohr
    Shell 2: l = 2; rc = 1.84 bohr
File: O_02.recpot [ 2001 points up to Gmax=  52.9 (1/bohr)]
  Atomic number:  8;  ionic charge:  6.000000
    Shell 1: l = 0; rc = 1.31 bohr
<<<<<<<<<<<<<<<<<<<<<<<<<<<<<<<<<<<<<<<<>>>>>>>>>>>>>>>>>>>>>>>>>>>>>>>>>>>>>>>>

-------------------------- Atom counting information ---------------------------
Symbol    Natoms    Nngwfs    Nprojs
  N        237       948       237
  H       1318      1318         0
  C        816      3264       816
  S          6        54        36
  O        240       960       240
.......   ......    ......    ......
Totals:   2617      6544      1329
--------------------------------------------------------------------------------

=============================== PSINC grid sizes ===============================
                      Simulation cell:  275 x 280 x 320
                              FFT-box:   99 x  99 x  99
                                  PPD:    5 x   5 x   1
Grid space d1=  0.506370909091a0 (KE cutoff=  29.62556Eh = 806.15239eV)
Grid space d2=  0.508660714286a0 (KE cutoff=  29.35943Eh = 798.91072eV)
Grid space d3=  0.508875000000a0 (KE cutoff=  29.33471Eh = 798.23802eV)
================================================================================

********************* Fourier parallelisation information **********************
       Coarse grid (whole simulation cell) dimensions:    275   280   320
          Real-space ('12') slabs/node (min max mean):      8     8     8
         Recip-space ('23') slabs/node (min max mean):      3     4     3
********************************************************************************

********************* Fourier parallelisation information **********************
       Double grid (whole simulation cell) dimensions:    550   560   640
          Real-space ('12') slabs/node (min max mean):     16    16    16
         Recip-space ('23') slabs/node (min max mean):      6     7     6
********************************************************************************
ONETEP fine grid is 550 x 560 x 640 gridpoints, 139.2520 x 142.4250 x 162.8400 bohr.
FD multigrid is     545 x 553 x 633 gridpoints, 137.9861 x 140.6447 x 161.0589 bohr.


Calculating local pseudopotential in open BC on a radial grid ...
Discrepancy between calculated realspace psloc and -Z/x on [5a0,257.280a0]:
max |rel. diff| # avg |rel. diff| #  avg rel. diff #  f # pseudopotential file
 0.000256370913    0.000003612608   0.000000072509   55  'N_00.recpot'
 0.000395389207    0.000016224277  -0.000000076597   55  'H_04.recpot'
 0.000377360759    0.000017565724   0.000000149252   55  'C_01.recpot'
 0.000469715301    0.000020587835   0.000000455518   55  'S_00.recpot'
 0.000665442002    0.000026079317   0.000000158685   55  'O_02.recpot'
... done

Atom SCF Calculation for N  : Z (AE atom) =   7 : Z (PS atom) =   5
Config String:
Orbitals (num,occ):  2     2.00 3.00
Orbitals   (num,l):  2        0    1
Real-space Grid (nr,dr,rmax): 1203    0.0066555740    8.0000000000
Spherical Bessel Basis (nsws,lmax,cutoff):   47    1  176.3951722778
Confining potential (l,width,scale):  0    3.0000000000  100.0000000000
Confining potential (l,width,scale):  1    3.0000000000  100.0000000000
  1         -4.7312375307   -3.4155304497    7.0523828109   -1.9351020946
  2         -9.7309464766   -2.0532547791    8.2966052865   -2.2494486027
  3         -9.6627394379   -2.1124926340    8.2327997121   -2.2369778124
  4         -9.6814993499   -2.1215521045    8.2229805960   -2.2365178421
  5         -9.6843326483   -2.1250939529    8.2191374534   -2.2362718126
  6         -9.6859628709   -2.1267894855    8.2172963573   -2.2362066344
  7         -9.6867347035   -2.1276425665    8.2163697352   -2.2361903369
  8         -9.6870802100   -2.1280764625    8.2158983890   -2.2361891460
  9         -9.6872290423   -2.1282977424    8.2156580222   -2.2361920435
 10         -9.6872901988   -2.1284107021    8.2155353368   -2.2361953393
 11         -9.6873135296   -2.1284684031    8.2154726809   -2.2361979819
 12         -9.6873212476   -2.1284978948    8.2154406648   -2.2361998431
 13         -9.6873229586   -2.1285129774    8.2154242957   -2.2362010676
 14         -9.6873226456   -2.1285206957    8.2154159216   -2.2362018403
 15         -9.6873218534   -2.1285246479    8.2154116349   -2.2362023142
 16         -9.6873212599   -2.1285262679    8.2154098784   -2.2362025420
 17         -9.6873207834   -2.1285272564    8.2154088068   -2.2362026955
 18         -9.6873204210   -2.1285278597    8.2154081529   -2.2362027982
 19         -9.6873201550   -2.1285282280    8.2154077538   -2.2362028667
 20         -9.6873199645   -2.1285284529    8.2154075102   -2.2362029121
 21         -9.6873198305   -2.1285285903    8.2154073614   -2.2362029421
 22         -9.6873197377   -2.1285286742    8.2154072705   -2.2362029618
Atom SCF converged after  22 iterations to a total energy of     -9.68731974

Atom SCF Calculation for H  : Z (AE atom) =   1 : Z (PS atom) =   1
Config String:
Orbitals (num,occ):  1     1.00
Orbitals   (num,l):  1        0
Real-space Grid (nr,dr,rmax): 1203    0.0066555740    8.0000000000
Spherical Bessel Basis (nsws,lmax,cutoff):   47    0  176.3951722778
Confining potential (l,width,scale):  0    3.0000000000  100.0000000000
  1         -0.3194257691   -0.2393854593    0.2820953124   -0.2424203209
  2         -0.3951823392   -0.2377116493    0.2886404059   -0.2475147891
  3         -0.4317044583   -0.2352244387    0.2921333887   -0.2514046172
  4         -0.4470703708   -0.2341892222    0.2934391879   -0.2531009782
  5         -0.4532132900   -0.2338556667    0.2938388426   -0.2537313520
  6         -0.4556579251   -0.2337612552    0.2939448584   -0.2539550462
  7         -0.4566418315   -0.2337377355    0.2939680120   -0.2540342273
  8         -0.4570437922   -0.2337331116    0.2939708287   -0.2540627372
  9         -0.4572102946   -0.2337328328    0.2939698291   -0.2540732650
 10         -0.4572800424   -0.2337332404    0.2939687193   -0.2540772588
 11         -0.4573095100   -0.2337335791    0.2939680317   -0.2540788122
 12         -0.4573220379   -0.2337337762    0.2939676699   -0.2540794294
 13         -0.4573273880   -0.2337338775    0.2939674931   -0.2540796787
 14         -0.4573296803   -0.2337339266    0.2939674099   -0.2540797808
 15         -0.4573306647   -0.2337339495    0.2939673718   -0.2540798230
 16         -0.4573310882   -0.2337339601    0.2939673545   -0.2540798406
 17         -0.4573312706   -0.2337339649    0.2939673467   -0.2540798479
 18         -0.4573313493   -0.2337339670    0.2939673433   -0.2540798510
Atom SCF converged after  18 iterations to a total energy of     -0.45733135

Atom SCF Calculation for C  : Z (AE atom) =   6 : Z (PS atom) =   4
Config String:
Orbitals (num,occ):  2     2.00 2.00
Orbitals   (num,l):  2        0    1
Real-space Grid (nr,dr,rmax): 1203    0.0066555740    8.0000000000
Spherical Bessel Basis (nsws,lmax,cutoff):   47    1  176.3951722778
Confining potential (l,width,scale):  0    3.0000000000  100.0000000000
Confining potential (l,width,scale):  1    3.0000000000  100.0000000000
  1         -5.2976922011   -1.3069684169    4.5135249990   -1.4493313817
  2         -5.3721716256   -1.3429755895    4.4750154450   -1.4361613026
  3         -5.3809959565   -1.3617365618    4.4541655428   -1.4305930207
  4         -5.3918938866   -1.3667928461    4.4484735100   -1.4294652294
  5         -5.3956096428   -1.3688539142    4.4461376126   -1.4290734646
  6         -5.3968271862   -1.3696852393    4.4451910874   -1.4289366866
  7         -5.3972028401   -1.3700178062    4.4448112275   -1.4288900460
  8         -5.3973067903   -1.3701500158    4.4446598370   -1.4288749220
  9         -5.3973286940   -1.3702023868    4.4445997329   -1.4288704293
 10         -5.3973289850   -1.3702230869    4.4445759233   -1.4288693188
 11         -5.3973254264   -1.3702312560    4.4445665049   -1.4288691775
 12         -5.3973224003   -1.3702344755    4.4445627836   -1.4288692549
 13         -5.3973208708   -1.3702354890    4.4445616088   -1.4288693270
 14         -5.3973198783   -1.3702360102    4.4445610034   -1.4288693814
 15         -5.3973192535   -1.3702362780    4.4445606917   -1.4288694190
 16         -5.3973188684   -1.3702364155    4.4445605313   -1.4288694437
 17         -5.3973186349   -1.3702364860    4.4445604489   -1.4288694595
 18         -5.3973184951   -1.3702365221    4.4445604065   -1.4288694693
 19         -5.3973184122   -1.3702365405    4.4445603848   -1.4288694753
Atom SCF converged after  19 iterations to a total energy of     -5.39731841

Atom SCF Calculation for S  : Z (AE atom) =  16 : Z (PS atom) =   6
Config String:
Orbitals (num,occ):  3     2.00 4.00 0.00
Orbitals   (num,l):  3        0    1    2
Real-space Grid (nr,dr,rmax): 1203    0.0066555740    8.0000000000
Spherical Bessel Basis (nsws,lmax,cutoff):   47    2  176.3951722778
Confining potential (l,width,scale):  0    3.0000000000  100.0000000000
Confining potential (l,width,scale):  1    3.0000000000  100.0000000000
Confining potential (l,width,scale):  2    3.0000000000  100.0000000000
  1        -12.4735062396   -1.0328741412   10.1554312477   -2.4512393157
  2         -9.9458301913   -2.4607392455    8.3041325857   -2.0306994528
  3        -10.1450417646   -2.2931184565    8.4831893826   -2.0812538287
  4        -10.1528335592   -2.2733105793    8.5050388867   -2.0896035179
  5        -10.1571940363   -2.2633716629    8.5160794258   -2.0939370707
  6        -10.1594380571   -2.2584938667    8.5215163935   -2.0961289008
  7        -10.1605856507   -2.2561081821    8.5241804044   -2.0972291378
  8        -10.1611799191   -2.2549395235    8.5254868240   -2.0977806248
  9        -10.1614918752   -2.2543658586    8.5261285885   -2.0980571586
 10        -10.1616572884   -2.2540839121    8.5264441898   -2.0981959233
 11        -10.1617455602   -2.2539453058    8.5265994231   -2.0982656006
 12        -10.1617928447   -2.2538772062    8.5266757320   -2.0983006047
 13        -10.1618182292   -2.2538437891    8.5267131983   -2.0983181961
 14        -10.1618318741   -2.2538274201    8.5267315620   -2.0983270391
 15        -10.1618392144   -2.2538194197    8.5267405433   -2.0983314852
 16        -10.1618431651   -2.2538155200    8.5267449245   -2.0983337210
 17        -10.1618452923   -2.2538136252    8.5267470551   -2.0983348455
 18        -10.1618464380   -2.2538127080    8.5267480875   -2.0983354110
 19        -10.1618470552   -2.2538122659    8.5267485856   -2.0983356955
 20        -10.1618473878   -2.2538120540    8.5267488248   -2.0983358386
 21        -10.1618475670   -2.2538119530    8.5267489389   -2.0983359106
 22        -10.1618476637   -2.2538119053    8.5267489929   -2.0983359468
Atom SCF converged after  22 iterations to a total energy of    -10.16184766

Atom SCF Calculation for O  : Z (AE atom) =   8 : Z (PS atom) =   6
Config String:
Orbitals (num,occ):  2     2.00 4.00
Orbitals   (num,l):  2        0    1
Real-space Grid (nr,dr,rmax): 1203    0.0066555740    8.0000000000
Spherical Bessel Basis (nsws,lmax,cutoff):   47    1  176.3951722778
Confining potential (l,width,scale):  0    3.0000000000  100.0000000000
Confining potential (l,width,scale):  1    3.0000000000  100.0000000000
  1         -1.8735052164   -7.5539365035   10.1554312477   -2.4512393157
  2        -16.0318313751   -3.1285771268   13.6395848164   -3.2358799643
  3        -15.9524020423   -3.0762819706   13.6967272503   -3.2536856837
  4        -15.8521515939   -3.0781493909   13.6951909330   -3.2561700440
  5        -15.8357139793   -3.0748501933   13.6988803334   -3.2580493133
  6        -15.8246052853   -3.0740779781   13.6997881576   -3.2588327446
  7        -15.8189019501   -3.0737449687   13.7001869911   -3.2592378801
  8        -15.8159785510   -3.0736026016   13.7003615168   -3.2594475790
  9        -15.8144776168   -3.0735437994   13.7004360379   -3.2595560735
 10        -15.8137058024   -3.0735207882   13.7004667348   -3.2596122456
 11        -15.8133083127   -3.0735125946   13.7004786868   -3.2596413656
 12        -15.8131032938   -3.0735102195   13.7004828997   -3.2596564858
 13        -15.8129973902   -3.0735099286   13.7004840891   -3.2596643505
 14        -15.8129426040   -3.0735102506   13.7004842061   -3.2596684489
 15        -15.8129142203   -3.0735106556   13.7004840157   -3.2596705887
 16        -15.8128994940   -3.0735109855   13.7004837906   -3.2596717080
 17        -15.8128918425   -3.0735112169   13.7004836103   -3.2596722946
 18        -15.8128878614   -3.0735113674   13.7004834848   -3.2596726026
 19        -15.8128857871   -3.0735114608   13.7004834035   -3.2596727646
 20        -15.8128847048   -3.0735115170   13.7004833533   -3.2596728500
 21        -15.8128841394   -3.0735115501   13.7004833231   -3.2596728951
 22        -15.8128838436   -3.0735115693   13.7004833054   -3.2596729190
 23        -15.8128836887   -3.0735115802   13.7004832951   -3.2596729316
 24        -15.8128836074   -3.0735115864   13.7004832893   -3.2596729383
Atom SCF converged after  24 iterations to a total energy of    -15.81288361

========================== Calculation in vacuum ==============================
= Adjusting the following parameters: 
= is_implicit_solvent: F
= is_include_apolar: F
= write_denskern: T
= write_tightbox_ngwfs: T
= restart read filename prefix: ""
= restart write filename prefix: "vacuum_"
===============================================================================

Determining parallel strategy ...
... using space-filling curve
... NGWF load balancing: max    164;  min    163;  average    164
... Projector load balancing: max     36;  min     32;  average     33
... done
Calculating direct Ion-Ion energy ...
Ion-Ion Energy        :    838694.17632258869708
======================= Empirical dispersion information =======================
Model : Elstner
Dispersion Correction Energy: -0.33003644E+01 Hartree
================================================================================
Basis initialisation ...... NGWF spheres initialised
... Projector spheres initialised
... NGWF tight boxes initialised
... Tight-boxes gathered
... NGWF basis size (local,global):    1794592  71784328
... Nonlocal pseudopotential projector initialisation
... done

========================== Sparse matrix information ===========================
                        Overlap matrix filling:   6.79%
                        Density kernel filling: 100.00%
              NGWF-Proj overlap matrix filling:   1.76%
                    Hamiltonian matrix filling:   7.67%
                  NGWF diagonal matrix filling:   0.05%
                             KS matrix filling: 100.00% 
                           KSKS matrix filling: 100.00% 
================================================================================

Sparse matrix initialisation ... done

Generating smeared ion density ... done
Smeared ion self correction:     -14538.952731
Smeared ion non-self correction: -838645.825857
NGWF initialisation ...... done
============ Calculation of NGWF S^-1 using Hotelling algorithm ================ 
         Iteration  |  Frobenius norm and Maximum abs value    (of I-S*S_n^-1)   
               1       0.78732059E+02     0.98281395E+00
               2       0.76887463E+02     0.96606469E+00
               3       0.73895882E+02     0.93379683E+00
               4       0.69635438E+02     0.87371407E+00
               5       0.64320163E+02     0.76975194E+00
               6       0.58339854E+02     0.70414653E+00
               7       0.52318345E+02     0.67076105E+00
               8       0.46753715E+02     0.64588522E+00
               9       0.40692378E+02     0.60712532E+00
              10       0.32445885E+02     0.53876587E+00
              11       0.21879676E+02     0.42833967E+00
              12       0.11238828E+02     0.28901606E+00
              13       0.37343528E+01     0.14387941E+00
              14       0.60226692E+00     0.39406397E-01
              15       0.31796434E-01     0.35870237E-02
              16       0.24435971E-03     0.39940823E-04
              17       0.29249230E-07     0.61339464E-08
              18       0.95544163E-13     0.51070259E-14
================================================================================
Calculating local pseudopotential in open BC on the fine real space grid ...
... done

MG BCs: +ve charge blocks (gridpoints):     19926 (   15663733).
MG BCs: -ve charge blocks (gridpoints):      7936 (    1062762).
MG BCs:     Elided blocks (gridpoints):    177194 (  174050210).
MG BCs: Computational effort saved:  99.9854%.
MG BCs: Charge after coarse-graining:           -9.0002183.
MG DL_MG: Calling solver with defect correction order = 8
MG DL_MG: Solver finished
MG Hartree energy from (\int phi*rho dr):              1471.734442
MG Hartree energy from (\int eps (grad phi)^2 dr):     1471.110951
MG Discrepancy due to finite box and discretization:     -0.623492 (  -0.04236%)
MG Correction to account for finite box:                  0.462955
MG Remaining discrepancy, due to discretization:         -0.160536 (  -0.01091%)
Up spin density kernel initialisation ... 
======= Optimisation of K by Palser-Manolopoulos canonical purification ======== 
         Iteration  |  Band structure energy |    c_n   
               1       -2591.78910674923918    0.5276107
               2       -2768.43459454358981    0.5175351
               3       -2950.26046606826094    0.5153061
               4       -3103.15191897782779    0.5279395
               5       -3198.25591400799749    0.5626236
               6       -3238.54384196417686    0.6081782
               7       -3252.19063421765441    0.6226052
               8       -3258.00067087130628    0.6222851
               9       -3260.82697041879828    0.6375996
              10       -3262.01214789577216    0.6596558
              11       -3262.48758894319326    0.6666514
              12       -3262.70698063250620    0.6588988
              13       -3262.81812194828672    0.6306540
              14       -3262.87742897388762    0.5706795
              15       -3262.90864192681511    0.4764639
              16       -3262.91938157644881    0.4209562
              17       -3262.92006046000142    0.4247106
              18       -3262.92069181719080    0.4133435
              19       -3262.92113907113162    0.3934631
              20       -3262.92135578734542    0.4102421
              21       -3262.92148775116129    0.4513370
              22       -3262.92160051472911    0.4856084
              23       -3262.92169310229565    0.4987502
              24       -3262.92176179302805    0.4999907
              25       -3262.92179285850898    0.5000000
              26       -3262.92179725793721    0.5000000
              27       -3262.92179733060584    0.5000000
Termination criterion satisfied: band energy change below threshold.
Final occupancy bounds: [    0.00000000002175:    0.99999999999999]
Closest occupancy to 0.5:     0.99999999999918
================================================================================
... done

Writing density kernel to file "complex_26701.vacuum_dkn" ... done

>>> Optimising kernel for current NGWFs:
   Initial electron number for spin 1:    7234.00000000
     Final electron number for spin 1:    7234.00000000

=================== Penalty functional idempotency correction ==================
 RMS occupancy error at iteration   1:  0.000000 (step -0.5000 Ne1=   7234.0000)
            Final RMS occupancy error   :  0.000000 (Ne1=   7234.0000)
               Final occupancy bounds   : [ -0.0000,  1.0000]
================================================================================

................................................................................
<<<<<<<<<<<<<< LNV (Original version) density kernel optimisation >>>>>>>>>>>>>>
~~~~~~~~~~~~~~~~~~~~~~~~~~~~~~~~~~~~~~~~~~~~~~~~~~~~~~~~~~~~~~~~~~~~~~~~~~~~~~~~
   iter  |      energy (Eh)       | rms gradient |  commutator  |   dE (Eh)
MG BCs: +ve charge blocks (gridpoints):     30341 (   16854140).
MG BCs: -ve charge blocks (gridpoints):      8280 (    1095409).
MG BCs:     Elided blocks (gridpoints):    166763 (  172827156).
MG BCs: Computational effort saved:  99.9798%.
MG BCs: Charge after coarse-graining:           -9.0009190.
MG DL_MG: Calling solver with defect correction order = 8
MG DL_MG: Solver finished
MG Hartree energy from (\int phi*rho dr):              1426.975465
MG Hartree energy from (\int eps (grad phi)^2 dr):     1426.289953
MG Discrepancy due to finite box and discretization:     -0.685512 (  -0.04804%)
MG Correction to account for finite box:                  0.479892
MG Remaining discrepancy, due to discretization:         -0.205620 (  -0.01441%)
      ideal mu1:      -0.708222288055
             Q0:  -11568.865444293013
             G0:    -143.217606959936
   RMS gradient:       0.001828752428
MG BCs: +ve charge blocks (gridpoints):     30322 (   16933363).
MG BCs: -ve charge blocks (gridpoints):      8193 (    1075696).
MG BCs:     Elided blocks (gridpoints):    166783 (  172767646).
MG BCs: Computational effort saved:  99.9798%.
MG BCs: Charge after coarse-graining:           -9.0009394.
MG DL_MG: Calling solver with defect correction order = 8
MG DL_MG: Solver finished
MG Hartree energy from (\int phi*rho dr):              1452.362390
MG Hartree energy from (\int eps (grad phi)^2 dr):     1451.694935
MG Discrepancy due to finite box and discretization:     -0.667455 (  -0.04596%)
MG Correction to account for finite box:                  0.478265
MG Remaining discrepancy, due to discretization:         -0.189190 (  -0.01303%)
     Trial step:       0.500000000000
             Q1:  -11580.275991968811
 Quadratic coef:      60.198255804171
 Linear coef   :     -71.608803479968
           Qmin:  -11590.160997907198
Quadratic minimum step length (  0.297387368302) accepted
    Initial Ne1:    7234.00000000
      Final Ne1:    7234.00000000

=================== Penalty functional idempotency correction ==================
 RMS occupancy error at iteration   1:  0.003350 (step -0.4886 Ne1=   7234.0000)
 RMS occupancy error at iteration   2:  0.000027 (step -0.5001 Ne1=   7234.0000)
            Final RMS occupancy error   :  0.000000 (Ne1=   7234.0000)
               Final occupancy bounds   : [  0.0000,  1.0000]
================================================================================

    1        -1.156886544429E+04     1.8288E-03     1.6543E-03
MG BCs: +ve charge blocks (gridpoints):     30335 (   16902810).
MG BCs: -ve charge blocks (gridpoints):      8240 (    1083935).
MG BCs:     Elided blocks (gridpoints):    166768 (  172789960).
MG BCs: Computational effort saved:  99.9798%.
MG BCs: Charge after coarse-graining:           -9.0009311.
MG DL_MG: Calling solver with defect correction order = 8
MG DL_MG: Solver finished
MG Hartree energy from (\int phi*rho dr):              1434.243696
MG Hartree energy from (\int eps (grad phi)^2 dr):     1433.569902
MG Discrepancy due to finite box and discretization:     -0.673794 (  -0.04698%)
MG Correction to account for finite box:                  0.478818
MG Remaining discrepancy, due to discretization:         -0.194976 (  -0.01359%)
      ideal mu1:      -0.748940347326
             Q0:  -11590.548236811068
             G0:     -12.043422404293
   RMS gradient:       0.000526821180
MG BCs: +ve charge blocks (gridpoints):     30336 (   16918895).
MG BCs: -ve charge blocks (gridpoints):      8211 (    1078952).
MG BCs:     Elided blocks (gridpoints):    166767 (  172778858).
MG BCs: Computational effort saved:  99.9798%.
MG BCs: Charge after coarse-graining:           -9.0009348.
MG DL_MG: Calling solver with defect correction order = 8
MG DL_MG: Solver finished
MG Hartree energy from (\int phi*rho dr):              1439.439765
MG Hartree energy from (\int eps (grad phi)^2 dr):     1438.770443
MG Discrepancy due to finite box and discretization:     -0.669322 (  -0.04650%)
MG Correction to account for finite box:                  0.477655
MG Remaining discrepancy, due to discretization:         -0.191667 (  -0.01332%)
     Trial step:       0.385608200316
             Q1:  -11593.367648135754
 Quadratic coef:       1.824631114281
 Linear coef   :      -4.644042438968
           Qmin:  -11593.503235496300
Quadratic minimum step length (  0.490724079258) accepted
    Initial Ne1:    7233.99988731
      Final Ne1:    7234.00000000

=================== Penalty functional idempotency correction ==================
 RMS occupancy error at iteration   1:  0.001777 (step -0.4931 Ne1=   7234.0000)
 RMS occupancy error at iteration   2:  0.000012 (step -0.5002 Ne1=   7234.0000)
            Final RMS occupancy error   :  0.000000 (Ne1=   7234.0000)
               Final occupancy bounds   : [  0.0000,  1.0000]
================================================================================

    2        -1.159054823681E+04     5.2682E-04     4.7657E-04    -2.1683E+01
MG BCs: +ve charge blocks (gridpoints):     30335 (   16923258).
MG BCs: -ve charge blocks (gridpoints):      8203 (    1077565).
MG BCs:     Elided blocks (gridpoints):    166767 (  172775882).
MG BCs: Computational effort saved:  99.9798%.
MG BCs: Charge after coarse-graining:           -9.0009360.
MG DL_MG: Calling solver with defect correction order = 8
MG DL_MG: Solver finished
MG Hartree energy from (\int phi*rho dr):              1440.904589
MG Hartree energy from (\int eps (grad phi)^2 dr):     1440.236394
MG Discrepancy due to finite box and discretization:     -0.668195 (  -0.04637%)
MG Correction to account for finite box:                  0.477353
MG Remaining discrepancy, due to discretization:         -0.190842 (  -0.01324%)
      ideal mu1:      -0.772012295744
             Q0:  -11593.539451578050
             G0:      -1.915684686263
   RMS gradient:       0.000210165949
MG BCs: +ve charge blocks (gridpoints):     30337 (   16922687).
MG BCs: -ve charge blocks (gridpoints):      8209 (    1078400).
MG BCs:     Elided blocks (gridpoints):    166765 (  172775618).
MG BCs: Computational effort saved:  99.9798%.
MG BCs: Charge after coarse-graining:           -9.0009357.
MG DL_MG: Calling solver with defect correction order = 8
MG DL_MG: Solver finished
MG Hartree energy from (\int phi*rho dr):              1438.697802
MG Hartree energy from (\int eps (grad phi)^2 dr):     1438.030321
MG Discrepancy due to finite box and discretization:     -0.667482 (  -0.04639%)
MG Correction to account for finite box:                  0.476858
MG Remaining discrepancy, due to discretization:         -0.190624 (  -0.01325%)
     Trial step:       0.435002562124
             Q1:  -11594.030239023850
 Quadratic coef:       0.342540300946
 Linear coef   :      -0.833327746746
           Qmin:  -11594.046278899959
Quadratic minimum step length (  0.529134387870) accepted
    Initial Ne1:    7233.99991780
      Final Ne1:    7234.00000000

=================== Penalty functional idempotency correction ==================
 RMS occupancy error at iteration   1:  0.000630 (step -0.4971 Ne1=   7234.0000)
 RMS occupancy error at iteration   2:  0.000003 (step -0.5000 Ne1=   7234.0000)
            Final RMS occupancy error   :  0.000000 (Ne1=   7234.0000)
               Final occupancy bounds   : [  0.0000,  1.0000]
================================================================================

    3        -1.159353945158E+04     2.1017E-04     1.9012E-04    -2.9912E+00
MG BCs: +ve charge blocks (gridpoints):     30338 (   16922563).
MG BCs: -ve charge blocks (gridpoints):      8208 (    1078652).
MG BCs:     Elided blocks (gridpoints):    166764 (  172775490).
MG BCs: Computational effort saved:  99.9798%.
MG BCs: Charge after coarse-graining:           -9.0009356.
MG DL_MG: Calling solver with defect correction order = 8
MG DL_MG: Solver finished
MG Hartree energy from (\int phi*rho dr):              1438.229683
MG Hartree energy from (\int eps (grad phi)^2 dr):     1437.562344
MG Discrepancy due to finite box and discretization:     -0.667339 (  -0.04640%)
MG Correction to account for finite box:                  0.476752
MG Remaining discrepancy, due to discretization:         -0.190587 (  -0.01325%)
      ideal mu1:      -0.773234777618
             Q0:  -11594.050933065591
             G0:      -0.492329772181
   RMS gradient:       0.000106684830
MG BCs: +ve charge blocks (gridpoints):     30335 (   16923521).
MG BCs: -ve charge blocks (gridpoints):      8203 (    1078369).
MG BCs:     Elided blocks (gridpoints):    166767 (  172774815).
MG BCs: Computational effort saved:  99.9798%.
MG BCs: Charge after coarse-graining:           -9.0009358.
MG DL_MG: Calling solver with defect correction order = 8
MG DL_MG: Solver finished
MG Hartree energy from (\int phi*rho dr):              1439.515663
MG Hartree energy from (\int eps (grad phi)^2 dr):     1438.848450
MG Discrepancy due to finite box and discretization:     -0.667213 (  -0.04635%)
MG Correction to account for finite box:                  0.476518
MG Remaining discrepancy, due to discretization:         -0.190695 (  -0.01325%)
     Trial step:       0.479765374357
             Q1:  -11594.173368554446
 Quadratic coef:       0.113767288603
 Linear coef   :      -0.236202777457
           Qmin:  -11594.173533667143
Quadratic minimum step length (  0.498042606719) accepted
    Initial Ne1:    7233.99998006
      Final Ne1:    7234.00000000

=================== Penalty functional idempotency correction ==================
 RMS occupancy error at iteration   1:  0.000269 (step -0.4965 Ne1=   7234.0000)
 RMS occupancy error at iteration   2:  0.000002 (step -0.5000 Ne1=   7234.0000)
            Final RMS occupancy error   :  0.000000 (Ne1=   7234.0000)
               Final occupancy bounds   : [  0.0000,  1.0000]
================================================================================

    4        -1.159405093307E+04     1.0668E-04     9.6509E-05    -5.1148E-01
MG BCs: +ve charge blocks (gridpoints):     30335 (   16923569).
MG BCs: -ve charge blocks (gridpoints):      8203 (    1078349).
MG BCs:     Elided blocks (gridpoints):    166767 (  172774787).
MG BCs: Computational effort saved:  99.9798%.
MG BCs: Charge after coarse-graining:           -9.0009358.
MG DL_MG: Calling solver with defect correction order = 8
MG DL_MG: Solver finished
MG Hartree energy from (\int phi*rho dr):              1439.565176
MG Hartree energy from (\int eps (grad phi)^2 dr):     1438.897968
MG Discrepancy due to finite box and discretization:     -0.667208 (  -0.04635%)
MG Correction to account for finite box:                  0.476509
MG Remaining discrepancy, due to discretization:         -0.190699 (  -0.01325%)
      ideal mu1:      -0.773600973917
             Q0:  -11594.174122139462
             G0:      -0.177753759407
   RMS gradient:       0.000064278950
MG BCs: +ve charge blocks (gridpoints):     30335 (   16923584).
MG BCs: -ve charge blocks (gridpoints):      8206 (    1078220).
MG BCs:     Elided blocks (gridpoints):    166767 (  172774901).
MG BCs: Computational effort saved:  99.9798%.
MG BCs: Charge after coarse-graining:           -9.0009358.
MG DL_MG: Calling solver with defect correction order = 8
MG DL_MG: Solver finished
MG Hartree energy from (\int phi*rho dr):              1439.931711
MG Hartree energy from (\int eps (grad phi)^2 dr):     1439.264439
MG Discrepancy due to finite box and discretization:     -0.667272 (  -0.04634%)
MG Correction to account for finite box:                  0.476427
MG Remaining discrepancy, due to discretization:         -0.190845 (  -0.01325%)
     Trial step:       0.488818573356
             Q1:  -11594.229153441847
 Quadratic coef:       0.031858036697
 Linear coef   :      -0.086889339082
           Qmin:  -11594.233367451077
Quadratic minimum step length (  0.666599815525) accepted
    Initial Ne1:    7233.99999033
      Final Ne1:    7234.00000000

=================== Penalty functional idempotency correction ==================
 RMS occupancy error at iteration   1:  0.000365 (step -0.4797 Ne1=   7234.0000)
 RMS occupancy error at iteration   2:  0.000008 (step -0.5000 Ne1=   7234.0000)
            Final RMS occupancy error   :  0.000000 (Ne1=   7234.0000)
               Final occupancy bounds   : [  0.0000,  1.0000]
================================================================================

    5        -1.159417412214E+04     6.4279E-05     5.8148E-05    -1.2319E-01
MG BCs: +ve charge blocks (gridpoints):     30332 (   16923578).
MG BCs: -ve charge blocks (gridpoints):      8207 (    1078162).
MG BCs:     Elided blocks (gridpoints):    166770 (  172774965).
MG BCs: Computational effort saved:  99.9798%.
MG BCs: Charge after coarse-graining:           -9.0009358.
MG DL_MG: Calling solver with defect correction order = 8
MG DL_MG: Solver finished
MG Hartree energy from (\int phi*rho dr):              1440.063846
MG Hartree energy from (\int eps (grad phi)^2 dr):     1439.396547
MG Discrepancy due to finite box and discretization:     -0.667299 (  -0.04634%)
MG Correction to account for finite box:                  0.476397
MG Remaining discrepancy, due to discretization:         -0.190903 (  -0.01326%)
      ideal mu1:      -0.773572044049
             Q0:  -11594.233150876942
             G0:      -0.146502835688
   RMS gradient:       0.000058641844
MG BCs: +ve charge blocks (gridpoints):     30334 (   16922871).
MG BCs: -ve charge blocks (gridpoints):      8214 (    1078585).
MG BCs:     Elided blocks (gridpoints):    166768 (  172775249).
MG BCs: Computational effort saved:  99.9798%.
MG BCs: Charge after coarse-graining:           -9.0009356.
MG DL_MG: Calling solver with defect correction order = 8
MG DL_MG: Solver finished
MG Hartree energy from (\int phi*rho dr):              1438.870962
MG Hartree energy from (\int eps (grad phi)^2 dr):     1438.203764
MG Discrepancy due to finite box and discretization:     -0.667197 (  -0.04637%)
MG Correction to account for finite box:                  0.476314
MG Remaining discrepancy, due to discretization:         -0.190884 (  -0.01327%)
     Trial step:       0.570829546208
             Q1:  -11594.297254164703
 Quadratic coef:       0.019524859454
 Linear coef   :      -0.083628147214
           Qmin:  -11594.322699114447
Quadratic minimum step length (  1.222477873342) accepted
    Initial Ne1:    7233.99995875
      Final Ne1:    7234.00000000

=================== Penalty functional idempotency correction ==================
 RMS occupancy error at iteration   1:  0.002843 (step -0.3511 Ne1=   7234.0000)
 RMS occupancy error at iteration   2:  0.000191 (step -0.4932 Ne1=   7234.0000)
 RMS occupancy error at iteration   3:  0.000002 (step -0.5000 Ne1=   7234.0000)
            Final RMS occupancy error   :  0.000000 (Ne1=   7234.0000)
               Final occupancy bounds   : [  0.0000,  1.0000]
================================================================================

    6        -1.159423315088E+04     5.8642E-05     5.3048E-05    -5.9029E-02
MG BCs: +ve charge blocks (gridpoints):     30336 (   16922119).
MG BCs: -ve charge blocks (gridpoints):      8214 (    1079063).
MG BCs:     Elided blocks (gridpoints):    166766 (  172775523).
MG BCs: Computational effort saved:  99.9798%.
MG BCs: Charge after coarse-graining:           -9.0009354.
MG DL_MG: Calling solver with defect correction order = 8
MG DL_MG: Solver finished
MG Hartree energy from (\int phi*rho dr):              1437.509674
MG Hartree energy from (\int eps (grad phi)^2 dr):     1436.842598
MG Discrepancy due to finite box and discretization:     -0.667076 (  -0.04640%)
MG Correction to account for finite box:                  0.476215
MG Remaining discrepancy, due to discretization:         -0.190861 (  -0.01328%)
      ideal mu1:      -0.773178823677
             Q0:  -11594.307416757219
             G0:      -0.279680978010
   RMS gradient:       0.000080814292
MG BCs: +ve charge blocks (gridpoints):     30333 (   16924740).
MG BCs: -ve charge blocks (gridpoints):      8203 (    1077584).
MG BCs:     Elided blocks (gridpoints):    166769 (  172774381).
MG BCs: Computational effort saved:  99.9798%.
MG BCs: Charge after coarse-graining:           -9.0009363.
MG DL_MG: Calling solver with defect correction order = 8
MG DL_MG: Solver finished
MG Hartree energy from (\int phi*rho dr):              1440.904655
MG Hartree energy from (\int eps (grad phi)^2 dr):     1440.237871
MG Discrepancy due to finite box and discretization:     -0.666784 (  -0.04628%)
MG Correction to account for finite box:                  0.476067
MG Remaining discrepancy, due to discretization:         -0.190718 (  -0.01324%)
     Trial step:       0.835360095821
             Q1:  -11594.376986344578
 Quadratic coef:       0.164064741231
 Linear coef   :      -0.233634328589
           Qmin:  -11594.390592763053
Quadratic minimum step length (  0.594792012143) accepted
    Initial Ne1:    7233.99999944
      Final Ne1:    7234.00000000

=================== Penalty functional idempotency correction ==================
 RMS occupancy error at iteration   1:  0.000143 (step -0.4902 Ne1=   7234.0000)
 RMS occupancy error at iteration   2:  0.000001 (step -0.5000 Ne1=   7234.0000)
            Final RMS occupancy error   :  0.000000 (Ne1=   7234.0000)
               Final occupancy bounds   : [  0.0000,  1.0000]
================================================================================

    7        -1.159430741676E+04     8.0814E-05     7.3106E-05    -7.4266E-02
MG BCs: +ve charge blocks (gridpoints):     30332 (   16923972).
MG BCs: -ve charge blocks (gridpoints):      8208 (    1078055).
MG BCs:     Elided blocks (gridpoints):    166770 (  172774678).
MG BCs: Computational effort saved:  99.9798%.
MG BCs: Charge after coarse-graining:           -9.0009360.
MG DL_MG: Calling solver with defect correction order = 8
MG DL_MG: Solver finished
MG Hartree energy from (\int phi*rho dr):              1439.922225
MG Hartree energy from (\int eps (grad phi)^2 dr):     1439.255358
MG Discrepancy due to finite box and discretization:     -0.666867 (  -0.04631%)
MG Correction to account for finite box:                  0.476110
MG Remaining discrepancy, due to discretization:         -0.190758 (  -0.01325%)
      ideal mu1:      -0.774230341207
             Q0:  -11594.390752989915
             G0:      -0.200569696390
   RMS gradient:       0.000068375043
MG BCs: +ve charge blocks (gridpoints):     30333 (   16924185).
MG BCs: -ve charge blocks (gridpoints):      8206 (    1077857).
MG BCs:     Elided blocks (gridpoints):    166769 (  172774663).
MG BCs: Computational effort saved:  99.9798%.
MG BCs: Charge after coarse-graining:           -9.0009361.
MG DL_MG: Calling solver with defect correction order = 8
MG DL_MG: Solver finished
MG Hartree energy from (\int phi*rho dr):              1439.939668
MG Hartree energy from (\int eps (grad phi)^2 dr):     1439.272950
MG Discrepancy due to finite box and discretization:     -0.666717 (  -0.04630%)
MG Correction to account for finite box:                  0.476113
MG Remaining discrepancy, due to discretization:         -0.190604 (  -0.01324%)
     Trial step:       0.704886879050
             Q1:  -11594.480832063011
 Quadratic coef:       0.051299874225
 Linear coef   :      -0.141378947320
           Qmin:  -11594.488160669014
Quadratic minimum step length (  0.971310031898) accepted
    Initial Ne1:    7233.99999921
      Final Ne1:    7234.00000000

=================== Penalty functional idempotency correction ==================
 RMS occupancy error at iteration   1:  0.001515 (step -0.4137 Ne1=   7234.0000)
 RMS occupancy error at iteration   2:  0.000062 (step -0.4971 Ne1=   7234.0000)
 RMS occupancy error at iteration   3:  0.000000 (step -0.5000 Ne1=   7234.0000)
            Final RMS occupancy error   :  0.000000 (Ne1=   7234.0000)
               Final occupancy bounds   : [  0.0000,  1.0000]
================================================================================

    8        -1.159439075299E+04     6.8375E-05     6.1853E-05    -8.3336E-02
MG BCs: +ve charge blocks (gridpoints):     30334 (   16924173).
MG BCs: -ve charge blocks (gridpoints):      8204 (    1077860).
MG BCs:     Elided blocks (gridpoints):    166768 (  172774672).
MG BCs: Computational effort saved:  99.9798%.
MG BCs: Charge after coarse-graining:           -9.0009361.
MG DL_MG: Calling solver with defect correction order = 8
MG DL_MG: Solver finished
MG Hartree energy from (\int phi*rho dr):              1439.947846
MG Hartree energy from (\int eps (grad phi)^2 dr):     1439.281172
MG Discrepancy due to finite box and discretization:     -0.666674 (  -0.04630%)
MG Correction to account for finite box:                  0.476113
MG Remaining discrepancy, due to discretization:         -0.190561 (  -0.01323%)
      ideal mu1:      -0.774171578881
             Q0:  -11594.484932952211
             G0:      -0.280845358999
   RMS gradient:       0.000082255865
MG BCs: +ve charge blocks (gridpoints):     30335 (   16923047).
MG BCs: -ve charge blocks (gridpoints):      8206 (    1078525).
MG BCs:     Elided blocks (gridpoints):    166766 (  172775133).
MG BCs: Computational effort saved:  99.9798%.
MG BCs: Charge after coarse-graining:           -9.0009359.
MG DL_MG: Calling solver with defect correction order = 8
MG DL_MG: Solver finished
MG Hartree energy from (\int phi*rho dr):              1438.208527
MG Hartree energy from (\int eps (grad phi)^2 dr):     1437.542078
MG Discrepancy due to finite box and discretization:     -0.666449 (  -0.04634%)
MG Correction to account for finite box:                  0.476051
MG Remaining discrepancy, due to discretization:         -0.190398 (  -0.01324%)
     Trial step:       0.827444074832
             Q1:  -11594.564435024047
 Quadratic coef:       0.152881756412
 Linear coef   :      -0.232383828248
           Qmin:  -11594.573240159196
Quadratic minimum step length (  0.628867126736) accepted
    Initial Ne1:    7233.99999925
      Final Ne1:    7234.00000000

=================== Penalty functional idempotency correction ==================
 RMS occupancy error at iteration   1:  0.004112 (step -0.3288 Ne1=   7234.0000)
 RMS occupancy error at iteration   2:  0.000278 (step -0.4890 Ne1=   7234.0000)
 RMS occupancy error at iteration   3:  0.000007 (step -0.5004 Ne1=   7234.0000)
            Final RMS occupancy error   :  0.000000 (Ne1=   7234.0000)
               Final occupancy bounds   : [  0.0000,  1.0000]
================================================================================

    9        -1.159448493295E+04     8.2256E-05     7.4410E-05    -9.4180E-02
MG BCs: +ve charge blocks (gridpoints):     30333 (   16923349).
MG BCs: -ve charge blocks (gridpoints):      8205 (    1078325).
MG BCs:     Elided blocks (gridpoints):    166769 (  172775031).
MG BCs: Computational effort saved:  99.9798%.
MG BCs: Charge after coarse-graining:           -9.0009360.
MG DL_MG: Calling solver with defect correction order = 8
MG DL_MG: Solver finished
MG Hartree energy from (\int phi*rho dr):              1438.629623
MG Hartree energy from (\int eps (grad phi)^2 dr):     1437.963133
MG Discrepancy due to finite box and discretization:     -0.666489 (  -0.04633%)
MG Correction to account for finite box:                  0.476066
MG Remaining discrepancy, due to discretization:         -0.190424 (  -0.01324%)
      ideal mu1:      -0.772957971751
   10        -1.159458187262E+04     7.4547E-05     6.7436E-05    -9.6940E-02
Finished density kernel iterations (  10)

Writing density kernel to file "complex_26701.vacuum_dkn" ... done


>>> Density kernel optimised for the current NGWF basis:
     ~~~~~~~~~~~~~~~~~~~~~~~~~~~~~~~~~~~~~~~~~~~~~~~~~~~~~~~~~~~
     Total energy                =  -1.15945818726157E+04  Eh
     Estimated bandgap           =  -4.4314E-01  Eh
     RMS occupancy error         =   1.7629E-09
     [H,K] commutator            =   6.7436E-05
     Occupancy bounds            = [  0.000:  1.000]
     ~~~~~~~~~~~~~~~~~~~~~~~~~~~~~~~~~~~~~~~~~~~~~~~~~~~~~~~~~~~




################################################################################
########################### NGWF CG iteration  001 #############################
################################################################################
****** Reciprocal space K.E. preconditioning with k_zero =  3.5000 a0^-1 *******

>>> Checking for convergence of NGWFs:   NOT CONVERGED
  ========================================================================
         NGWF RMS gradient =  1.6334E-03 >  2.0000E-06  | above tolerance
  ========================================================================

>>> Improving NGWFs using line search:
============ Calculation of NGWF S^-1 using Hotelling algorithm ================ 
         Iteration  |  Frobenius norm and Maximum abs value    (of I-S*S_n^-1)   
               1       0.20437185E+00     0.58610508E-02
               2       0.97568373E-03     0.50190005E-04
               3       0.39142202E-07     0.36679584E-08
               4       0.13242907E-12     0.66613381E-14
================================================================================
MG BCs: +ve charge blocks (gridpoints):     29916 (   16867848).
MG BCs: -ve charge blocks (gridpoints):      8213 (    1078283).
MG BCs:     Elided blocks (gridpoints):    167192 (  172830574).
MG BCs: Computational effort saved:  99.9800%.
MG BCs: Charge after coarse-graining:           -9.0009405.
MG DL_MG: Calling solver with defect correction order = 8
MG DL_MG: Solver finished
MG Hartree energy from (\int phi*rho dr):              1406.145781
MG Hartree energy from (\int eps (grad phi)^2 dr):     1405.480288
MG Discrepancy due to finite box and discretization:     -0.665494 (  -0.04733%)
MG Correction to account for finite box:                  0.475944
MG Remaining discrepancy, due to discretization:         -0.189550 (  -0.01348%)
============ Calculation of NGWF S^-1 using Hotelling algorithm ================ 
         Iteration  |  Frobenius norm and Maximum abs value    (of I-S*S_n^-1)   
               1       0.18387700E+01     0.45159444E-01
               2       0.70430356E-01     0.27271835E-02
               3       0.14446917E-03     0.13050865E-04
               4       0.14461456E-08     0.36315971E-09
               5       0.11187116E-12     0.51070259E-14
================================================================================
------------------------------- NGWF line search -------------------------------
RMS gradient                =       0.00163340288368
Trial step length           =               0.122474
Gradient along search dir.  =       -285.68039516539
Functional at step 0        =  -11594.58187261573039
Functional at step 1        =  -11626.82302064029500
Functional predicted        =  -11705.97755931489701
Selected quadratic step     =               0.779862
--------------------------- NGWF line search finished --------------------------
                                               
Writing NGWFs to file "complex_26701.vacuum_tightbox_ngwfs"....  done

>>> Optimising kernel for current NGWFs:
   Initial electron number for spin 1:    7268.96673423
     Final electron number for spin 1:    7234.00000000

=================== Penalty functional idempotency correction ==================
 RMS occupancy error at iteration   1:  0.004368 (step -0.4853 Ne1=   7234.0000)
 RMS occupancy error at iteration   2:  0.000075 (step -0.5003 Ne1=   7234.0000)
            Final RMS occupancy error   :  0.000000 (Ne1=   7234.0000)
               Final occupancy bounds   : [  0.0000,  1.0000]
================================================================================

................................................................................
<<<<<<<<<<<<<< LNV (Original version) density kernel optimisation >>>>>>>>>>>>>>
~~~~~~~~~~~~~~~~~~~~~~~~~~~~~~~~~~~~~~~~~~~~~~~~~~~~~~~~~~~~~~~~~~~~~~~~~~~~~~~~
   iter  |      energy (Eh)       | rms gradient |  commutator  |   dE (Eh)
MG BCs: +ve charge blocks (gridpoints):     24423 (   16546169).
MG BCs: -ve charge blocks (gridpoints):      8361 (    1062288).
MG BCs:     Elided blocks (gridpoints):    172697 (  173168248).
MG BCs: Computational effort saved:  99.9828%.
MG BCs: Charge after coarse-graining:           -9.0006613.
MG DL_MG: Calling solver with defect correction order = 8
MG DL_MG: Solver finished
MG Hartree energy from (\int phi*rho dr):              1253.582507
MG Hartree energy from (\int eps (grad phi)^2 dr):     1252.917334
MG Discrepancy due to finite box and discretization:     -0.665173 (  -0.05306%)
MG Correction to account for finite box:                  0.475376
MG Remaining discrepancy, due to discretization:         -0.189797 (  -0.01514%)
      ideal mu1:      -0.713032256744
             Q0:  -11705.203208946041
             G0:      -9.791003798135
   RMS gradient:       0.000478156781
MG BCs: +ve charge blocks (gridpoints):     24481 (   16559618).
MG BCs: -ve charge blocks (gridpoints):      8350 (    1059118).
MG BCs:     Elided blocks (gridpoints):    172639 (  173157969).
MG BCs: Computational effort saved:  99.9828%.
MG BCs: Charge after coarse-graining:           -9.0006572.
MG DL_MG: Calling solver with defect correction order = 8
MG DL_MG: Solver finished
MG Hartree energy from (\int phi*rho dr):              1268.954475
MG Hartree energy from (\int eps (grad phi)^2 dr):     1268.284055
MG Discrepancy due to finite box and discretization:     -0.670420 (  -0.05283%)
MG Correction to account for finite box:                  0.474412
MG Remaining discrepancy, due to discretization:         -0.196008 (  -0.01545%)
     Trial step:       0.721354543809
             Q1:  -11704.611841200851
 Quadratic coef:       7.654152823425
 Linear coef   :      -7.062785078236
           Qmin:  -11706.832485699853
Quadratic minimum step length (  0.332810973707) accepted
    Initial Ne1:    7233.99951748
      Final Ne1:    7234.00000000

=================== Penalty functional idempotency correction ==================
 RMS occupancy error at iteration   1:  0.000357 (step -0.4986 Ne1=   7234.0000)
 RMS occupancy error at iteration   2:  0.000000 (step -0.5000 Ne1=   7234.0000)
            Final RMS occupancy error   :  0.000000 (Ne1=   7234.0000)
               Final occupancy bounds   : [  0.0000,  1.0000]
================================================================================

    1        -1.170520320895E+04     4.7816E-04     4.3255E-04
MG BCs: +ve charge blocks (gridpoints):     24449 (   16552481).
MG BCs: -ve charge blocks (gridpoints):      8350 (    1060918).
MG BCs:     Elided blocks (gridpoints):    172671 (  173163306).
MG BCs: Computational effort saved:  99.9828%.
MG BCs: Charge after coarse-graining:           -9.0006593.
MG DL_MG: Calling solver with defect correction order = 8
MG DL_MG: Solver finished
MG Hartree energy from (\int phi*rho dr):              1259.742707
MG Hartree energy from (\int eps (grad phi)^2 dr):     1259.075216
MG Discrepancy due to finite box and discretization:     -0.667491 (  -0.05299%)
MG Correction to account for finite box:                  0.474905
MG Remaining discrepancy, due to discretization:         -0.192586 (  -0.01529%)
      ideal mu1:      -0.720497623115
             Q0:  -11706.806935849017
             G0:      -1.077405125314
   RMS gradient:       0.000159292805
MG BCs: +ve charge blocks (gridpoints):     24454 (   16551483).
MG BCs: -ve charge blocks (gridpoints):      8358 (    1061933).
MG BCs:     Elided blocks (gridpoints):    172666 (  173163289).
MG BCs: Computational effort saved:  99.9828%.
MG BCs: Charge after coarse-graining:           -9.0006593.
MG DL_MG: Calling solver with defect correction order = 8
MG DL_MG: Solver finished
MG Hartree energy from (\int phi*rho dr):              1260.615167
MG Hartree energy from (\int eps (grad phi)^2 dr):     1259.947412
MG Discrepancy due to finite box and discretization:     -0.667755 (  -0.05297%)
MG Correction to account for finite box:                  0.474712
MG Remaining discrepancy, due to discretization:         -0.193043 (  -0.01531%)
     Trial step:       0.489974191272
             Q1:  -11707.042340497836
 Quadratic coef:       0.292496056130
 Linear coef   :      -0.527900704949
           Qmin:  -11707.045126371970
Quadratic minimum step length (  0.442155912119) accepted
    Initial Ne1:    7233.99992884
      Final Ne1:    7234.00000000

=================== Penalty functional idempotency correction ==================
 RMS occupancy error at iteration   1:  0.000183 (step -0.4981 Ne1=   7234.0000)
 RMS occupancy error at iteration   2:  0.000001 (step -0.5000 Ne1=   7234.0000)
            Final RMS occupancy error   :  0.000000 (Ne1=   7234.0000)
               Final occupancy bounds   : [  0.0000,  1.0000]
================================================================================

    2        -1.170680693585E+04     1.5929E-04     1.4410E-04    -1.6037E+00
MG BCs: +ve charge blocks (gridpoints):     24454 (   16551527).
MG BCs: -ve charge blocks (gridpoints):      8357 (    1061844).
MG BCs:     Elided blocks (gridpoints):    172666 (  173163334).
MG BCs: Computational effort saved:  99.9828%.
MG BCs: Charge after coarse-graining:           -9.0006593.
MG DL_MG: Calling solver with defect correction order = 8
MG DL_MG: Solver finished
MG Hartree energy from (\int phi*rho dr):              1260.529997
MG Hartree energy from (\int eps (grad phi)^2 dr):     1259.862269
MG Discrepancy due to finite box and discretization:     -0.667729 (  -0.05297%)
MG Correction to account for finite box:                  0.474732
MG Remaining discrepancy, due to discretization:         -0.192997 (  -0.01531%)
      ideal mu1:      -0.721317571634
             Q0:  -11707.045674138353
             G0:      -0.206617246789
   RMS gradient:       0.000069381975
MG BCs: +ve charge blocks (gridpoints):     24455 (   16550686).
MG BCs: -ve charge blocks (gridpoints):      8362 (    1062290).
MG BCs:     Elided blocks (gridpoints):    172665 (  173163729).
MG BCs: Computational effort saved:  99.9828%.
MG BCs: Charge after coarse-graining:           -9.0006594.
MG DL_MG: Calling solver with defect correction order = 8
MG DL_MG: Solver finished
MG Hartree energy from (\int phi*rho dr):              1259.900030
MG Hartree energy from (\int eps (grad phi)^2 dr):     1259.232533
MG Discrepancy due to finite box and discretization:     -0.667498 (  -0.05298%)
MG Correction to account for finite box:                  0.474519
MG Remaining discrepancy, due to discretization:         -0.192978 (  -0.01532%)
     Trial step:       0.465451378188
             Q1:  -11707.114777680137
 Quadratic coef:       0.027066740491
 Linear coef   :      -0.096170282275
           Qmin:  -11707.131099304304
Quadratic minimum step length (  0.826892887977) accepted
    Initial Ne1:    7233.99997460
      Final Ne1:    7234.00000000

=================== Penalty functional idempotency correction ==================
 RMS occupancy error at iteration   1:  0.000391 (step -0.4771 Ne1=   7234.0000)
 RMS occupancy error at iteration   2:  0.000006 (step -0.5000 Ne1=   7234.0000)
            Final RMS occupancy error   :  0.000000 (Ne1=   7234.0000)
               Final occupancy bounds   : [  0.0000,  1.0000]
================================================================================

    3        -1.170704567414E+04     6.9382E-05     6.2764E-05    -2.3874E-01
MG BCs: +ve charge blocks (gridpoints):     24457 (   16549955).
MG BCs: -ve charge blocks (gridpoints):      8361 (    1062642).
MG BCs:     Elided blocks (gridpoints):    172663 (  173164108).
MG BCs: Computational effort saved:  99.9828%.
MG BCs: Charge after coarse-graining:           -9.0006595.
MG DL_MG: Calling solver with defect correction order = 8
MG DL_MG: Solver finished
MG Hartree energy from (\int phi*rho dr):              1259.411081
MG Hartree energy from (\int eps (grad phi)^2 dr):     1258.743767
MG Discrepancy due to finite box and discretization:     -0.667313 (  -0.05299%)
MG Correction to account for finite box:                  0.474349
MG Remaining discrepancy, due to discretization:         -0.192965 (  -0.01532%)
      ideal mu1:      -0.720077840641
             Q0:  -11707.130725115305
             G0:      -0.120854921224
   RMS gradient:       0.000053204718
MG BCs: +ve charge blocks (gridpoints):     24455 (   16550009).
MG BCs: -ve charge blocks (gridpoints):      8363 (    1062609).
MG BCs:     Elided blocks (gridpoints):    172665 (  173164087).
MG BCs: Computational effort saved:  99.9828%.
MG BCs: Charge after coarse-graining:           -9.0006595.
MG DL_MG: Calling solver with defect correction order = 8
MG DL_MG: Solver finished
MG Hartree energy from (\int phi*rho dr):              1259.459237
MG Hartree energy from (\int eps (grad phi)^2 dr):     1258.792467
MG Discrepancy due to finite box and discretization:     -0.666769 (  -0.05294%)
MG Correction to account for finite box:                  0.473973
MG Remaining discrepancy, due to discretization:         -0.192797 (  -0.01531%)
     Trial step:       0.620385714151
             Q1:  -11707.180745272432
 Quadratic coef:       0.024956509485
 Linear coef   :      -0.074976666612
           Qmin:  -11707.187038083866
Quadratic minimum step length (  0.931910227430) accepted
    Initial Ne1:    7233.99998098
      Final Ne1:    7234.00000000

=================== Penalty functional idempotency correction ==================
 RMS occupancy error at iteration   1:  0.001164 (step -0.4331 Ne1=   7234.0000)
 RMS occupancy error at iteration   2:  0.000036 (step -0.4987 Ne1=   7234.0000)
            Final RMS occupancy error   :  0.000000 (Ne1=   7234.0000)
               Final occupancy bounds   : [ -0.0000,  1.0000]
================================================================================

    4        -1.170713072512E+04     5.3205E-05     4.8130E-05    -8.5051E-02
MG BCs: +ve charge blocks (gridpoints):     24455 (   16550062).
MG BCs: -ve charge blocks (gridpoints):      8363 (    1062571).
MG BCs:     Elided blocks (gridpoints):    172665 (  173164072).
MG BCs: Computational effort saved:  99.9828%.
MG BCs: Charge after coarse-graining:           -9.0006594.
MG DL_MG: Calling solver with defect correction order = 8
MG DL_MG: Solver finished
MG Hartree energy from (\int phi*rho dr):              1259.489024
MG Hartree energy from (\int eps (grad phi)^2 dr):     1258.822520
MG Discrepancy due to finite box and discretization:     -0.666505 (  -0.05292%)
MG Correction to account for finite box:                  0.473792
MG Remaining discrepancy, due to discretization:         -0.192713 (  -0.01530%)
      ideal mu1:      -0.720677656663
             Q0:  -11707.186235045199
             G0:      -0.154607889238
   RMS gradient:       0.000059932488
MG BCs: +ve charge blocks (gridpoints):     24453 (   16552478).
MG BCs: -ve charge blocks (gridpoints):      8363 (    1061676).
MG BCs:     Elided blocks (gridpoints):    172667 (  173162551).
MG BCs: Computational effort saved:  99.9828%.
MG BCs: Charge after coarse-graining:           -9.0006590.
MG DL_MG: Calling solver with defect correction order = 8
MG DL_MG: Solver finished
MG Hartree energy from (\int phi*rho dr):              1260.969746
MG Hartree energy from (\int eps (grad phi)^2 dr):     1260.304140
MG Discrepancy due to finite box and discretization:     -0.665606 (  -0.05279%)
MG Correction to account for finite box:                  0.473013
MG Remaining discrepancy, due to discretization:         -0.192594 (  -0.01527%)
     Trial step:       0.760357673709
             Q1:  -11707.240104340366
 Quadratic coef:       0.063687999831
 Linear coef   :      -0.117557294998
           Qmin:  -11707.240482774929
Quadratic minimum step length (  0.701745945779) accepted
    Initial Ne1:    7234.00079574
      Final Ne1:    7234.00000000

=================== Penalty functional idempotency correction ==================
 RMS occupancy error at iteration   1:  0.002832 (step -0.3658 Ne1=   7234.0000)
 RMS occupancy error at iteration   2:  0.000152 (step -0.4932 Ne1=   7234.0000)
 RMS occupancy error at iteration   3:  0.000002 (step -0.5000 Ne1=   7234.0000)
            Final RMS occupancy error   :  0.000000 (Ne1=   7234.0000)
               Final occupancy bounds   : [  0.0000,  1.0000]
================================================================================

    5        -1.170718623505E+04     5.9932E-05     5.4216E-05    -5.5510E-02
MG BCs: +ve charge blocks (gridpoints):     24453 (   16552265).
MG BCs: -ve charge blocks (gridpoints):      8362 (    1061742).
MG BCs:     Elided blocks (gridpoints):    172667 (  173162698).
MG BCs: Computational effort saved:  99.9828%.
MG BCs: Charge after coarse-graining:           -9.0006590.
MG DL_MG: Calling solver with defect correction order = 8
MG DL_MG: Solver finished
MG Hartree energy from (\int phi*rho dr):              1260.849871
MG Hartree energy from (\int eps (grad phi)^2 dr):     1260.184206
MG Discrepancy due to finite box and discretization:     -0.665665 (  -0.05279%)
MG Correction to account for finite box:                  0.473061
MG Remaining discrepancy, due to discretization:         -0.192604 (  -0.01528%)
      ideal mu1:      -0.722284973491
             Q0:  -11707.243753022165
             G0:      -0.117727709265
   RMS gradient:       0.000049078894
MG BCs: +ve charge blocks (gridpoints):     24456 (   16552297).
MG BCs: -ve charge blocks (gridpoints):      8360 (    1061802).
MG BCs:     Elided blocks (gridpoints):    172664 (  173162606).
MG BCs: Computational effort saved:  99.9828%.
MG BCs: Charge after coarse-graining:           -9.0006590.
MG DL_MG: Calling solver with defect correction order = 8
MG DL_MG: Solver finished
MG Hartree energy from (\int phi*rho dr):              1260.555472
MG Hartree energy from (\int eps (grad phi)^2 dr):     1259.890266
MG Discrepancy due to finite box and discretization:     -0.665206 (  -0.05277%)
MG Correction to account for finite box:                  0.472529
MG Remaining discrepancy, due to discretization:         -0.192677 (  -0.01529%)
     Trial step:       0.730464177676
             Q1:  -11707.291811367264
 Quadratic coef:       0.037937529240
 Linear coef   :      -0.085995874338
           Qmin:  -11707.292486364526
Quadratic minimum step length (  0.827899271390) accepted
    Initial Ne1:    7234.00062876
      Final Ne1:    7234.00000000

=================== Penalty functional idempotency correction ==================
 RMS occupancy error at iteration   1:  0.003829 (step -0.3374 Ne1=   7234.0000)
 RMS occupancy error at iteration   2:  0.000227 (step -0.4907 Ne1=   7234.0000)
 RMS occupancy error at iteration   3:  0.000005 (step -0.5000 Ne1=   7234.0000)
            Final RMS occupancy error   :  0.000000 (Ne1=   7234.0000)
               Final occupancy bounds   : [  0.0000,  1.0000]
================================================================================

    6        -1.170724375302E+04     4.9079E-05     4.4398E-05    -5.7518E-02
MG BCs: +ve charge blocks (gridpoints):     24456 (   16552310).
MG BCs: -ve charge blocks (gridpoints):      8360 (    1061820).
MG BCs:     Elided blocks (gridpoints):    172664 (  173162575).
MG BCs: Computational effort saved:  99.9828%.
MG BCs: Charge after coarse-graining:           -9.0006590.
MG DL_MG: Calling solver with defect correction order = 8
MG DL_MG: Solver finished
MG Hartree energy from (\int phi*rho dr):              1260.510845
MG Hartree energy from (\int eps (grad phi)^2 dr):     1259.845725
MG Discrepancy due to finite box and discretization:     -0.665120 (  -0.05277%)
MG Correction to account for finite box:                  0.472432
MG Remaining discrepancy, due to discretization:         -0.192688 (  -0.01529%)
      ideal mu1:      -0.721959332065
             Q0:  -11707.297387283295
             G0:      -0.078375832076
   RMS gradient:       0.000042780691
MG BCs: +ve charge blocks (gridpoints):     24455 (   16550113).
MG BCs: -ve charge blocks (gridpoints):      8363 (    1062481).
MG BCs:     Elided blocks (gridpoints):    172665 (  173164111).
MG BCs: Computational effort saved:  99.9828%.
MG BCs: Charge after coarse-graining:           -9.0006594.
MG DL_MG: Calling solver with defect correction order = 8
MG DL_MG: Solver finished
MG Hartree energy from (\int phi*rho dr):              1259.396497
MG Hartree energy from (\int eps (grad phi)^2 dr):     1258.731478
MG Discrepancy due to finite box and discretization:     -0.665019 (  -0.05280%)
MG Correction to account for finite box:                  0.472315
MG Remaining discrepancy, due to discretization:         -0.192704 (  -0.01530%)
     Trial step:       0.777657225566
             Q1:  -11707.317917430890
 Quadratic coef:       0.040419384530
 Linear coef   :      -0.060949532123
           Qmin:  -11707.320364163754
Quadratic minimum step length (  0.586325652926) accepted
    Initial Ne1:    7233.99999667
      Final Ne1:    7234.00000000

=================== Penalty functional idempotency correction ==================
 RMS occupancy error at iteration   1:  0.000043 (step -0.4972 Ne1=   7234.0000)
            Final RMS occupancy error   :  0.000000 (Ne1=   7234.0000)
               Final occupancy bounds   : [ -0.0000,  1.0000]
================================================================================

    7        -1.170729738728E+04     4.2781E-05     3.8700E-05    -5.3634E-02
MG BCs: +ve charge blocks (gridpoints):     24455 (   16550635).
MG BCs: -ve charge blocks (gridpoints):      8364 (    1062381).
MG BCs:     Elided blocks (gridpoints):    172665 (  173163689).
MG BCs: Computational effort saved:  99.9828%.
MG BCs: Charge after coarse-graining:           -9.0006593.
MG DL_MG: Calling solver with defect correction order = 8
MG DL_MG: Solver finished
MG Hartree energy from (\int phi*rho dr):              1259.668453
MG Hartree energy from (\int eps (grad phi)^2 dr):     1259.003408
MG Discrepancy due to finite box and discretization:     -0.665045 (  -0.05280%)
MG Correction to account for finite box:                  0.472345
MG Remaining discrepancy, due to discretization:         -0.192700 (  -0.01530%)
      ideal mu1:      -0.721092952992
             Q0:  -11707.320379650686
             G0:      -0.057915231078
   RMS gradient:       0.000036767413
MG BCs: +ve charge blocks (gridpoints):     24455 (   16550596).
MG BCs: -ve charge blocks (gridpoints):      8362 (    1062286).
MG BCs:     Elided blocks (gridpoints):    172665 (  173163823).
MG BCs: Computational effort saved:  99.9828%.
MG BCs: Charge after coarse-graining:           -9.0006593.
MG DL_MG: Calling solver with defect correction order = 8
MG DL_MG: Solver finished
MG Hartree energy from (\int phi*rho dr):              1259.567354
MG Hartree energy from (\int eps (grad phi)^2 dr):     1258.902485
[...]
MG DL_MG: Calling solver with defect correction order = 8
MG DL_MG: Solver finished
MG Hartree energy from (\int phi*rho dr):              1216.835599
MG Hartree energy from (\int eps (grad phi)^2 dr):     1216.637126
MG Discrepancy due to finite box and discretization:     -0.198473 (  -0.01631%)
MG Correction to account for finite box:                  0.006463
MG Remaining discrepancy, due to discretization:         -0.192010 (  -0.01578%)
             Q2:  -11742.492615962517
  Cubic LS coeff:       1.005764992941
Predicted energy:  -11742.492615962536
Cubic minimum step length accepted
    Initial Ne1:    7234.00000000
      Final Ne1:    7234.00000000

=================== Penalty functional idempotency correction ==================
 RMS occupancy error at iteration   1:  0.000000 (step -0.5000 Ne1=   7234.0000)
            Final RMS occupancy error   :  0.000000 (Ne1=   7234.0000)
               Final occupancy bounds   : [ -0.0000,  1.0000]
================================================================================

    7        -1.174249261596E+04     1.0554E-08     9.5475E-09    -3.3760E-09

Reusing previously generated solute cavity.
MG BCs: +ve charge blocks (gridpoints):     28812 (   18707587).
MG BCs: -ve charge blocks (gridpoints):      8346 (    1031551).
MG BCs:     Elided blocks (gridpoints):    168308 (  171037567).
MG BCs: Computational effort saved:  99.9805%.
MG BCs: Charge after coarse-graining:           -9.0009310.
MG DL_MG: Calling solver with defect correction order = 8
MG DL_MG: Solver finished
MG Hartree energy from (\int phi*rho dr):              1216.835599
MG Hartree energy from (\int eps (grad phi)^2 dr):     1216.637126
MG Discrepancy due to finite box and discretization:     -0.198473 (  -0.01631%)
MG Correction to account for finite box:                  0.006463
MG Remaining discrepancy, due to discretization:         -0.192010 (  -0.01578%)
      ideal mu1:      -0.481955414948
             Q0:  -11742.492615962401
             G0:      -0.000000006172
   RMS gradient:       0.000000012819

Reusing previously generated solute cavity.
MG BCs: +ve charge blocks (gridpoints):     28812 (   18707588).
MG BCs: -ve charge blocks (gridpoints):      8346 (    1031551).
MG BCs:     Elided blocks (gridpoints):    168308 (  171037566).
MG BCs: Computational effort saved:  99.9805%.
MG BCs: Charge after coarse-graining:           -9.0009310.
MG DL_MG: Calling solver with defect correction order = 8
MG DL_MG: Solver finished
MG Hartree energy from (\int phi*rho dr):              1216.835565
MG Hartree energy from (\int eps (grad phi)^2 dr):     1216.637092
MG Discrepancy due to finite box and discretization:     -0.198473 (  -0.01631%)
MG Correction to account for finite box:                  0.006463
MG Remaining discrepancy, due to discretization:         -0.192010 (  -0.01578%)
     Trial step:       0.721671095131
             Q1:  -11742.492615964962
 Quadratic coef:       0.000000001894
 Linear coef   :      -0.000000004454
           Qmin:  -11742.492615965020
Quadratic minimum step length (  0.848714945839) accepted
    Initial Ne1:    7234.00000000
      Final Ne1:    7234.00000000

=================== Penalty functional idempotency correction ==================
 RMS occupancy error at iteration   1:  0.000000 (step -0.5000 Ne1=   7234.0000)
            Final RMS occupancy error   :  0.000000 (Ne1=   7234.0000)
               Final occupancy bounds   : [ -0.0000,  1.0000]
================================================================================

    8        -1.174249261596E+04     1.2819E-08     1.1597E-08    -4.7730E-09

Reusing previously generated solute cavity.
MG BCs: +ve charge blocks (gridpoints):     28812 (   18707587).
MG BCs: -ve charge blocks (gridpoints):      8346 (    1031551).
MG BCs:     Elided blocks (gridpoints):    168308 (  171037567).
MG BCs: Computational effort saved:  99.9805%.
MG BCs: Charge after coarse-graining:           -9.0009310.
MG DL_MG: Calling solver with defect correction order = 8
MG DL_MG: Solver finished
MG Hartree energy from (\int phi*rho dr):              1216.835559
MG Hartree energy from (\int eps (grad phi)^2 dr):     1216.637086
MG Discrepancy due to finite box and discretization:     -0.198473 (  -0.01631%)
MG Correction to account for finite box:                  0.006463
MG Remaining discrepancy, due to discretization:         -0.192010 (  -0.01578%)
      ideal mu1:      -0.481955362866
             Q0:  -11742.492615965079
             G0:      -0.000000003964
   RMS gradient:       0.000000008969

Reusing previously generated solute cavity.
MG BCs: +ve charge blocks (gridpoints):     28812 (   18707588).
MG BCs: -ve charge blocks (gridpoints):      8346 (    1031551).
MG BCs:     Elided blocks (gridpoints):    168308 (  171037566).
MG BCs: Computational effort saved:  99.9805%.
MG BCs: Charge after coarse-graining:           -9.0009310.
MG DL_MG: Calling solver with defect correction order = 8
MG DL_MG: Solver finished
MG Hartree energy from (\int phi*rho dr):              1216.835567
MG Hartree energy from (\int eps (grad phi)^2 dr):     1216.637094
MG Discrepancy due to finite box and discretization:     -0.198473 (  -0.01631%)
MG Correction to account for finite box:                  0.006463
MG Remaining discrepancy, due to discretization:         -0.192010 (  -0.01578%)
     Trial step:       0.782619348354
             Q1:  -11742.492615965777
 Quadratic coef:       0.000000002403
 Linear coef   :      -0.000000003102
           Qmin:  -11742.492615966079
Quadratic minimum step length (  0.505206489983) accepted
    Initial Ne1:    7234.00000000
      Final Ne1:    7234.00000000

=================== Penalty functional idempotency correction ==================
 RMS occupancy error at iteration   1:  0.000000 (step -0.5000 Ne1=   7234.0000)
            Final RMS occupancy error   :  0.000000 (Ne1=   7234.0000)
               Final occupancy bounds   : [  0.0000,  1.0000]
================================================================================

    9        -1.174249261597E+04     8.9692E-09     8.1137E-09    -2.6776E-09

Reusing previously generated solute cavity.
MG BCs: +ve charge blocks (gridpoints):     28812 (   18707587).
MG BCs: -ve charge blocks (gridpoints):      8346 (    1031551).
MG BCs:     Elided blocks (gridpoints):    168308 (  171037567).
MG BCs: Computational effort saved:  99.9805%.
MG BCs: Charge after coarse-graining:           -9.0009310.
MG DL_MG: Calling solver with defect correction order = 8
MG DL_MG: Solver finished
MG Hartree energy from (\int phi*rho dr):              1216.835564
MG Hartree energy from (\int eps (grad phi)^2 dr):     1216.637091
MG Discrepancy due to finite box and discretization:     -0.198473 (  -0.01631%)
MG Correction to account for finite box:                  0.006463
MG Remaining discrepancy, due to discretization:         -0.192010 (  -0.01578%)
      ideal mu1:      -0.481955371068
   10        -1.174249261597E+04     5.3674E-09     4.8554E-09    -8.1491E-10
Finished density kernel iterations (  10)

Writing density kernel to file "complex_26701.dkn" ... done


>>> Density kernel optimised for the current NGWF basis:
     ~~~~~~~~~~~~~~~~~~~~~~~~~~~~~~~~~~~~~~~~~~~~~~~~~~~~~~~~~~~
     Total energy                =  -1.17424926159659E+04  Eh
     Estimated bandgap           =   8.6428E-02  Eh
     RMS occupancy error         =   7.5725E-16
     [H,K] commutator            =   4.8554E-09
     Occupancy bounds            = [  0.000:  1.000]
     ~~~~~~~~~~~~~~~~~~~~~~~~~~~~~~~~~~~~~~~~~~~~~~~~~~~~~~~~~~~




################################################################################
########################### NGWF CG iteration  004 #############################
################################################################################
****** Reciprocal space K.E. preconditioning with k_zero =  3.5000 a0^-1 *******

>>> Checking for convergence of NGWFs: 
           ........................................................
           |         *** NGWF optimisation converged ***          |
           | RMS NGWF gradient =    0.00000195503108              |
           | Criteria satisfied:                                  |
           | -> RMS NGWF gradient lower than set threshold.       |
           ========================================================

Reusing previously generated solute cavity.
MG BCs: +ve charge blocks (gridpoints):     28812 (   18707587).
MG BCs: -ve charge blocks (gridpoints):      8346 (    1031551).
MG BCs:     Elided blocks (gridpoints):    168308 (  171037567).
MG BCs: Computational effort saved:  99.9805%.
MG BCs: Charge after coarse-graining:           -9.0009310.
MG DL_MG: Calling solver with defect correction order = 8
MG DL_MG: Solver finished
MG Hartree energy from (\int phi*rho dr):              1216.835564
MG Hartree energy from (\int eps (grad phi)^2 dr):     1216.637091
MG Discrepancy due to finite box and discretization:     -0.198473 (  -0.01631%)
MG Correction to account for finite box:                  0.006463
MG Remaining discrepancy, due to discretization:         -0.192010 (  -0.01578%)

================================================================================
           ---------------- ENERGY COMPONENTS (Eh) ----------------
           | Kinetic                    :     8573.57787648483099 |
           | Pseudo. (local,OBC,corr'd) :    -5074.59823353424235 |
           | Pseudopotential (non-local):     1411.60396525884698 |
           | Hartree (molecular)        :     1216.83556425726761 |
           | Exchange-correlation       :    -3376.66099155632082 |
           | Ion-ion (open BC)          :   838694.17632258869708 |
           | Dispersion Correction      :       -3.30036444207219 |
           | Smeared ion non-self corr. :  -838645.82585660822224 |
           | Smeared ion self corr.     :   -14538.95273137971344 |
           | Solvent cavitation energy  :        2.31907129776113 |
           | Solute-solvent dis-rep en. :       -1.66723833274292 |
           | Total                      :   -11742.49261596597898 |
           --------------------------------------------------------
           ------ LOCAL ENERGY COMPONENTS FROM MATRIX TRACES ------
           | Pseudopotential (local)    :    -5074.59823353426964 |
           | Hartree                    :    -2005.49848848478609 |
           --------------------------------------------------------
           Integrated density           :     7233.99999999818101
           Integrated density tr(KS)    :     7234.00000000000000
================================================================================


                        <<<<< CALCULATION SUMMARY >>>>>                         
|ITER|    RMS GRADIENT   |     TOTAL ENERGY    |   step   |     Epredicted              
   0     0.00004263970440 -11742.42239025793970   0.625358 -11742.48326268030178        
   1     0.00000937286503 -11742.49219845992047   0.073087 -11742.49254221559022        
   2     0.00000425824612 -11742.49260018183850   0.014237 -11742.49261400286741        
   3     0.00000195503108 -11742.49261596589349  <-- CG                                 

=================== Finished the calculation in solvent ========================
= Adjusting the following parameters: 
= read_denskern: F
= read_tightbox_ngwfs: F
= maxit_pen: 0 (restored to user-specified value)
= restart read filename prefix: ""
= restart write filename prefix: ""
================================================================================

================================================================================
IS: Calculation in solvent completed (NGWFs converged).      

Individual components of total energy in solvent:     hartree           kcal/mol
- Usual non-electrostatic DFT terms:    -12959.98001318818024    -8132510.065508
- Electrostatic fixed charge energy:      1216.83556425726761      763575.828382
- Apolar cavitation energy:                  2.31907129776113        1455.239179
- Apolar dispersion-repulsion energy:       -1.66723833274292       -1046.207827
 -------------------------------------------------------------------------------
- Total energy in solvent:              -11742.49261596589349    -7368525.205774

Components of total energy in solvent:                hartree           kcal/mol
- Usual non-electrostatic DFT terms:    -12959.98001318818024    -8132510.065508
- Electrostatic energy:                   1216.83556425726761      763575.828382
- Apolar energy terms:                       0.65183296501821         409.031352
 -------------------------------------------------------------------------------
- Total energy in solvent:              -11742.49261596589349    -7368525.205774

Calculation of free energy of solvation:              hartree           kcal/mol
- Total energy in solvent:         (+)  -11742.49261596589349    -7368525.205774
- Total energy in vacuum:          (-)  -11738.54612046107650    -7366048.742509
 -------------------------------------------------------------------------------
- Total free energy of solvation:           -3.94649550481699       -2476.463265

Components of polar term in f.e. of solvation:        hartree           kcal/mol
- Electrostatic:                            -4.63073625149241       -2905.830807
- Change in nonelectrostatic DFT terms:      0.03240778165673          20.336190
 -------------------------------------------------------------------------------
- Polar term in f.e. of solvation:          -4.59832846983568       -2885.494617

Components of free energy of solvation:               hartree           kcal/mol
- Polar term in f.e. of solvation: (+)      -4.59832846983568       -2885.494617
- Apolar (cavitation, dis., rep.): (+)       0.65183296501821         409.031352
 -------------------------------------------------------------------------------
- Total free energy of solvation:           -3.94649550481747       -2476.463265
================================================================================


------------------------------ TIMING INFORMATION ------------------------------
AVERAGE TIME:   26586.479s on     40 node(s)                                    
TOTAL TIME:     26586.480s on     40 node(s)                                    
================= AVERAGE TIMINGS FROM ALL NODES (CUMULATIVE) ==================
|| TAG                                    #calls    cpu time   %total  Gflops ||
|| work_imbalance                       :     1        0.00s   0.000%  ------ ||
|| parallel_prepare_fd_halos_request    :  1953        0.02s   0.000%  ------ ||
|| sparse_set_to_garbage                :   182        0.04s   0.000%  ------ ||
|| parallel_prepare_fd_halos_satisfy    :  1953        0.06s   0.000%  ------ ||
|| ngwfs_initialise_from_radial         :     1        0.15s   0.001%  ------ ||
|| parallel_prepare_fd_halos_alloc      :  1953        0.19s   0.001%  ------ ||
|| basis_extract_function_from_box      :  5398        0.21s   0.001%  ------ ||
|| restart_ngwfs_tightbox_input         :     1        1.03s   0.004%  ------ ||
|| pseudopotentials_nonlocal_mat        :    31        1.38s   0.005%  ------ ||
|| parallel_prepare_fd_halos_comms_imbal:  1953        3.06s   0.011%  ------ ||
|| openbc_locps_radial                  :     1        5.27s   0.020%  ------ ||
|| density_init_guess_real              :     1        6.32s   0.024%  ------ ||
|| restart_kernel_read                  :     1        8.49s   0.032%  ------ ||
|| parallel_prepare_fd_halos_clear      :  1953       14.16s   0.053%  ------ ||
|| sparse_init                          :     2       23.37s   0.088%  ------ ||
|| parallel_prepare_fd_halos_comms_wait :  1953       24.23s   0.091%  ------ ||
|| projectors_func_ovlp_box             :    31       24.49s   0.092%  ------ ||
|| projectors_init_fftbox_recip         :   207       26.39s   0.099%  ------ ||
|| function_ops_brappd_ketppd           :    31       31.97s   0.120%  ------ ||
|| restart_kernel_write                 :    17       39.86s   0.150%  ------ ||
|| parallel_prepare_fd_halos            :  1953       41.72s   0.157%  ------ ||
|| palser_mano_kernel_optimise          :     1       47.21s   0.178%  ------ ||
|| pseudo_make_structure_factor         :     2       52.80s   0.199%  ------ ||
|| fourier_apply_box_pair               :  7777       53.85s   0.203% 557.449 ||
|| basis_copy_function_to_box           : 88016       55.55s   0.209%  ------ ||
|| ngwf_gradient_coeffs                 :    16       64.65s   0.243%  ------ ||
|| sparse_embed_hotelling_invert_embed  :    31       97.58s   0.367%  ------ ||
|| finite_difference_derivative         :  1953      103.46s   0.389%  ------ ||
|| restart_ngwfs_tightbox_output        :    14      139.87s   0.526%  ------ ||
|| openbc_locps_on_grid                 :     2      182.70s   0.687%  ------ ||
|| integrals_kinetic                    :    31      183.16s   0.689%  ------ ||
|| projectors_gradient_batch            :   176      207.27s   0.780%  ------ ||
|| fourier_apply_cell_backward          :  1303      211.47s   0.795%  83.872 ||
|| fourier_apply_cell_forward           :  1301      213.30s   0.802%  83.024 ||
|| sparse_trace                         :  5529      283.38s   1.066%  ------ ||
|| basis_dot_function_with_box          : 13.53M     314.68s   1.184%  ------ ||
|| kernel_purify                        :   496      355.93s   1.339%  ------ ||
|| hamiltonian_energy_components        :     4      419.78s   1.579%  ------ ||
|| xc_energy_potential                  :   325      499.28s   1.878%  ------ ||
|| lnv_gradient_norm                    :   160      587.05s   2.208%  ------ ||
|| basis_add_function_to_box            : 28.19M     589.10s   2.216%  ------ ||
|| kernel_fix                           :   160      718.37s   2.702%  ------ ||
|| ngwf_gradient_build_batch            :   176      758.65s   2.854%  ------ ||
|| cell_grid_deposit_box_real           : 55154      866.60s   3.260%  ------ ||
|| cell_grid_extract_box_real           : 51140      990.77s   3.727%  ------ ||
|| integrals_locpot_mat_els_batch       :  1859     1025.53s   3.857%  ------ ||
|| ngwf_gradient_batch                  :   176     1068.50s   4.019%  ------ ||
|| ngwf_gradient_lnv                    :    16     1238.39s   4.658%  ------ ||
|| density_batch_row_sums               :  3564     1351.53s   5.084%  ------ ||
|| density_fftbox_deposit_to_cell       : 53136     1478.86s   5.562%  ------ ||
|| sparse_product                       :  6806     2258.98s   8.497%  ------ ||
|| multigrid_prepare_bound_cond         :   325     2402.68s   9.037%  ------ ||
|| potential_apply_to_ngwf_batch        :  1859     3278.84s  12.333%  ------ ||
|| density_fftbox_interpolate_multiply  : 53136     3684.98s  13.860%  ------ ||
|| fourier_apply_box                    : 183.3k    3690.04s  13.879% 929.589 ||
|| integrals_locpot_dbl_grid            :   169     4323.56s  16.262%  ------ ||
|| density_batch_interp_deposit         :  3564     5793.81s  21.792%  ------ ||
|| dl_mg_solver_calls                   :   325     6328.10s  23.802%  ------ ||
|| density_on_dbl_grid                  :   324     7547.74s  28.389%  ------ ||
|| multigrid_calculate_hartree          :   325     8876.23s  33.386%  ------ ||
|| hamiltonian_lhxc_calculate           :   320    16950.21s  63.755%  ------ ||
|| lnv_denskernel_optimise_cg           :    16    22722.66s  85.467%  ------ ||
|| ngwf_cg_optimise                     :     2    25787.60s  96.995%  ------ ||
|| total_time                           :     1    26586.48s 100.000%  ------ ||
================================================================================
Overhead of generating timer report: 
- 0 ms averaging over threads,
- 5 ms ensuring consistency across MPI ranks,
- 2 ms printing in order.

Job completed: 27-05-2020 23:42 (+0100)

