 +---------------------------------------------------------------+
 |                                                               |
 |        ####### #     # ####### ####### ####### ######         |
 |        #     # ##    # #          #    #       #     #        |
 |        #     # # #   # #          #    #       #     #        |
 |        #     # #  #  # #####      #    #####   ######         |
 |        #     # #   # # #          #    #       #              |
 |        #     # #    ## #          #    #       #              |
 |        ####### #     # #######    #    ####### #              |
 |                                                               |
 |        Linear-Scaling Ab Initio Total Energy Program          |
 |                                                               |
 |          Release for academic collaborators of ODG            |
 |                                             Version 5.3.2.6.  |
 |                                                               |
 +---------------------------------------------------------------+
 |                                                               |
 |  Authors:                                                     |
 |  Jacek Dziedzic, Peter D. Haynes, Nicholas D. M. Hine,        |
 |  Arash. A. Mostofi, Mike C. Payne and Chris-Kriton Skylaris   |
 |                                                               |
 |  Contributors:                                                |
 |  J. Aarons, L. Andrinopoulos, P. W. Avraam, R. A. Bell,       |
 |  A. Bhandari, G. A. Bramley, R. J. Charlton, S. J. Clark,     |
 |  R. J. Clements, G. C. Constantinescu, F. Corsetti,           |
 |  N. Corsini, O. Dieguez, S. M. M. Dubois, K. K. B. Duff,      |
 |  J. M. Escartin, A. Greco, H. Helal, Q. O. Hill, L. P. Lee,   |
 |  J.-H. Li, E. B. Linscott, G. Moynihan, D. D. O`Regan,        |
 |  O. K. Okan, M. J. S. Phipps, C. J. Pickard,                  |
 |  J. C. A. Prentice, M. I. J. Probert, L. E. Ratcliff,         |
 |  M. Robinson, A. Ruiz Serrano, J. S. Spencer, E. W. Tait,     |
 |  G. Teobaldi, D. Turban, V. Vitale, K. A. Wilkinson,          |
 |  C. Weber, J. C. Womack, N. Yeung and T. J. Zuehlsdorff       |
 |                                                               |
 |                                   Copyright (c) 2004-2019     |
 |                                                               |
 |  Please cite:                                                 |
 |  "Introducing ONETEP: Linear-scaling density functional       |
 |   simulations on parallel computers".                         |
 |   C.-K. Skylaris, P. D. Haynes, A. A. Mostofi, M. C. Payne.   |
 |   J. Chem. Phys. 122 084119 (2005).                           |
 |                                                               |
 |          in all publications arising from your use of ONETEP. |
 |                                                               |
 +---------------------------------------------------------------+
 |                                                               |
 |   ONETEP is based on developments described in the following  |
 |   publications:                                               |
 |                                                               |
 |  "Nonorthogonal generalized Wannier function pseudopotential  |
 |   plane-wave method".                                         |
 |   C.-K. Skylaris, A. A. Mostofi, P. D. Haynes, O. Dieguez,    |
 |   M. C. Payne.                                                |
 |   Phys. Rev. B 66 035119 (2002).                              |
 |                                                               |
 |  "Preconditioned iterative minimization for linear-scaling    |
 |   electronic structure calculations".                         |
 |   A. A. Mostofi, P. D. Haynes, C.-K. Skylaris, M. C. Payne.   |
 |   J. Chem. Phys. 119(17), pp.8842-8848 (2003).                |
 |                                                               |
 |  "Total-energy calculations on a real space grid with         |
 |   localized functions and a plane-wave basis".                |
 |   A. A. Mostofi, C.-K. Skylaris, P. D. Haynes, M. C. Payne.   |
 |   Comput. Phys. Commun. 147, pp.788-802 (2002).               |
 |                                                               |
 |  "Accurate kinetic energy evaluation in electronic structure  |
 |   calculations with localized functions on real space grids"  |
 |   C.-K. Skylaris, A. A. Mostofi, P. D. Haynes, C. J. Pickard, |
 |   M. C. Payne.                                                |
 |   Comput. Phys. Commun. 140, pp.315-322 (2001).               |
 |                                                               |
 |  "Accurate ionic forces and geometry optimization in linear-  |
 |   scaling density-functional theory with local orbitals"      |
 |   N. D. M. Hine, M. Robinson, P. D. Haynes, C.-K. Skylaris,   |
 |   M. C. Payne, and A. A. Mostofi.                             |
 |   Phys. Rev. B 83 195102 (2011).                              |
 |                                                               |
 +---------------------------------------------------------------+

Job started: 09-03-2020 07:32 (-0000)
 
Reading parameters from file "complex_2761.dat" ...... done

If your calculation crashes here, before "Checking processes and threads..."
is displayed, then your stack size is insufficient.
If so, use "ulimit -s unlimited" at runtime.
You can disable this check with "check_stack_size F".

Checking processes and threads...
   Determining the default number of threads...
      No default threads set at compilation time: defaulting to 1.
      OpenMP library call suggests 4 threads.
      Hybrid MPI-OpenMP compilation detected.
      Number of MPI processes > 1.
      OMP_NUM_THREADS environment variable present and
      its value matches the one obtained from the OpenMP library call.
      Using this value as default.
      Default threads: 4
      Default applies to threads_max and threads_num_fftboxes.
      Settings in the input file override this default.
   ... done

   Running with 60 MPI processes.
   There are 6 MPI processes running on the same node as the root process.
   Each MPI process is using: 
               1 threads for simulation cell FFTs.
               1 threads for parallel FFT box operations.
               4 threads for loops over batched FFT box operations.
               4 threads in other parallel regions.
... done

Basic input checks...... done

Reading geometry and species blocks from file "complex_2761.dat" ...
  <species_atomic_set> block not found: NGWF initialisation set to SOLVE
IS: Dielectric excluded regions:
    - NONE.
    
  Number of PPD points along a3 set to 1.  This is 
  the default value, it may have been provided also in the input file.
... done
 Writing xyz coordinates to file "complex_2761.xyz" ... done


--------------------------------------------------------------------------------
---------------------------------- INPUT FILE ----------------------------------
--------------------------------------------------------------------------------

cutoff_energy       : 800 eV                                                    
xc_functional PBE                                                               
task SINGLEPOINT                                                                
write_xyz true                                                                  
output_detail VERBOSE                                                           
ngwf_threshold_orig : 0.000002                                                  
kernel_cutoff       : 1000                                                      
k_zero              : 3.5                                                       
elec_cg_max 0                                                                   
occ_mix 1.0                                                                     
dispersion 1                                                                    
maxit_ngwf_cg 40                                                                
minit_lnv 10                                                                    
maxit_lnv 10                                                                    
write_denskern T                                                                
write_tightbox_ngwfs T                                                          
charge 9                                                                        
is_implicit_solvent T                                                           
is_auto_solvation T                                                             
is_include_apolar T                                                             
is_smeared_ion_rep T                                                            
is_solvent_surf_tension 4.7624E-5 Ha/bohr**2                                    
is_apolar_scaling_factor 0.281075                                               
is_solvation_beta 1.3                                                           
is_density_threshold 0.00035                                                    
is_bulk_permittivity 78.54                                                      
is_dielectric_model fix_initial                                                 
is_smeared_ion_width 0.8                                                        
mg_defco_fd_order 8                                                             
is_bc_coarseness 10                                                             
is_bc_surface_coarseness 1                                                      
fine_grid_scale 2.0                                                             
%block species                                                                  
N   N   7 4 8.0                                                                 
H   H   1 1 8.0                                                                 
C   C   6 4 8.0                                                                 
S   S  16 9 8.0                                                                 
O   O   8 4 8.0                                                                 
%endblock species                                                               
%block species_pot                                                              
N   N_00.recpot                                                                 
H   H_04.recpot                                                                 
C   C_01.recpot                                                                 
S   S_00.recpot                                                                 
O   O_02.recpot                                                                 
%endblock species_pot                                                           
%block lattice_cart                                                             
139.252   0.000   0.000                                                         
0.000 142.425   0.000                                                           
0.000   0.000   162.84                                                          
%endblock lattice_cart                                                          
%block positions_abs                                                            
     Hash =   000002727622080608043923
%endblock positions_abs                                                         

--------------------------------------------------------------------------------
-------------------------------- END INPUT FILE --------------------------------
--------------------------------------------------------------------------------


 
 ESDF WARNING(1): "kernelcutoff" (esdf_physical) has no units. Assume "bohr".
 ESDF WARNING(2): "kzero" (esdf_physical) has no units. Assume "1/bohr".
 ESDF WARNING(3
 ): "issmearedionwidth" (esdf_physical) has no units. Assume "bohr".
<<<<<<<<<<<<<<<<<<<<<<<<<<<<<<<<< Full system >>>>>>>>>>>>>>>>>>>>>>>>>>>>>>>>>>
<<<<<<<<<<<<<<<<<<<<<<<<< Pseudopotential information >>>>>>>>>>>>>>>>>>>>>>>>>>
File: N_00.recpot [ 2001 points up to Gmax=  52.9 (1/bohr)]
  Atomic number:  7;  ionic charge:  5.000000
    Shell 1: l = 0; rc = 1.48 bohr
File: H_04.recpot [ 2001 points up to Gmax=  52.9 (1/bohr)]
  Atomic number:  1;  ionic charge:  1.000000
    Local potential
File: C_01.recpot [ 2001 points up to Gmax=  52.9 (1/bohr)]
  Atomic number:  6;  ionic charge:  4.000000
    Shell 1: l = 0; rc = 1.48 bohr
File: S_00.recpot [ 2001 points up to Gmax=  52.9 (1/bohr)]
  Atomic number: 16;  ionic charge:  6.000000
    Shell 1: l = 0; rc = 1.90 bohr
    Shell 2: l = 2; rc = 1.84 bohr
File: O_02.recpot [ 2001 points up to Gmax=  52.9 (1/bohr)]
  Atomic number:  8;  ionic charge:  6.000000
    Shell 1: l = 0; rc = 1.31 bohr
<<<<<<<<<<<<<<<<<<<<<<<<<<<<<<<<<<<<<<<<>>>>>>>>>>>>>>>>>>>>>>>>>>>>>>>>>>>>>>>>

-------------------------- Atom counting information ---------------------------
Symbol    Natoms    Nngwfs    Nprojs
  N        237       948       237
  H       1318      1318         0
  C        816      3264       816
  S          6        54        36
  O        240       960       240
.......   ......    ......    ......
Totals:   2617      6544      1329
--------------------------------------------------------------------------------

=============================== PSINC grid sizes ===============================
                      Simulation cell:  275 x 280 x 320
                              FFT-box:   99 x  99 x  99
                                  PPD:    5 x   5 x   1
Grid space d1=  0.506370909091a0 (KE cutoff=  29.62556Eh = 806.15239eV)
Grid space d2=  0.508660714286a0 (KE cutoff=  29.35943Eh = 798.91072eV)
Grid space d3=  0.508875000000a0 (KE cutoff=  29.33471Eh = 798.23802eV)
================================================================================

********************* Fourier parallelisation information **********************
       Coarse grid (whole simulation cell) dimensions:    275   280   320
          Real-space ('12') slabs/node (min max mean):      5     6     5
         Recip-space ('23') slabs/node (min max mean):      2     3     2
********************************************************************************

********************* Fourier parallelisation information **********************
       Double grid (whole simulation cell) dimensions:    550   560   640
          Real-space ('12') slabs/node (min max mean):     10    11    10
         Recip-space ('23') slabs/node (min max mean):      4     5     4
********************************************************************************
ONETEP fine grid is 550 x 560 x 640 gridpoints, 139.2520 x 142.4250 x 162.8400 bohr.
FD multigrid is     545 x 553 x 633 gridpoints, 137.9861 x 140.6447 x 161.0589 bohr.


Calculating local pseudopotential in open BC on a radial grid ...
Discrepancy between calculated realspace psloc and -Z/x on [5a0,257.280a0]:
max |rel. diff| # avg |rel. diff| #  avg rel. diff #  f # pseudopotential file
 0.000256370913    0.000003612608   0.000000072509   55  'N_00.recpot'
 0.000395389207    0.000016224277  -0.000000076597   55  'H_04.recpot'
 0.000377360759    0.000017565724   0.000000149252   55  'C_01.recpot'
 0.000469715301    0.000020587835   0.000000455518   55  'S_00.recpot'
 0.000665442002    0.000026079317   0.000000158685   55  'O_02.recpot'
... done

Atom SCF Calculation for N  : Z (AE atom) =   7 : Z (PS atom) =   5
Config String:
Orbitals (num,occ):  2     2.00 3.00
Orbitals   (num,l):  2        0    1
Real-space Grid (nr,dr,rmax): 1203    0.0066555740    8.0000000000
Spherical Bessel Basis (nsws,lmax,cutoff):   47    1  176.3951722778
Confining potential (l,width,scale):  0    3.0000000000  100.0000000000
Confining potential (l,width,scale):  1    3.0000000000  100.0000000000
  1         -4.7312375307   -3.4155304497    7.0523828109   -1.9351020946
  2         -9.7309464766   -2.0532547791    8.2966052865   -2.2494486027
  3         -9.6627394379   -2.1124926340    8.2327997121   -2.2369778124
  4         -9.6814993499   -2.1215521045    8.2229805960   -2.2365178421
  5         -9.6843326483   -2.1250939529    8.2191374534   -2.2362718126
  6         -9.6859628709   -2.1267894855    8.2172963573   -2.2362066344
  7         -9.6867347035   -2.1276425665    8.2163697352   -2.2361903369
  8         -9.6870802100   -2.1280764625    8.2158983890   -2.2361891460
  9         -9.6872290423   -2.1282977424    8.2156580222   -2.2361920435
 10         -9.6872901988   -2.1284107021    8.2155353368   -2.2361953393
 11         -9.6873135296   -2.1284684031    8.2154726809   -2.2361979819
 12         -9.6873212476   -2.1284978948    8.2154406648   -2.2361998431
 13         -9.6873229586   -2.1285129774    8.2154242957   -2.2362010676
 14         -9.6873226456   -2.1285206957    8.2154159216   -2.2362018403
 15         -9.6873218534   -2.1285246479    8.2154116349   -2.2362023142
 16         -9.6873212599   -2.1285262679    8.2154098784   -2.2362025420
 17         -9.6873207834   -2.1285272564    8.2154088068   -2.2362026955
 18         -9.6873204210   -2.1285278596    8.2154081529   -2.2362027982
 19         -9.6873201550   -2.1285282280    8.2154077538   -2.2362028667
 20         -9.6873199645   -2.1285284529    8.2154075102   -2.2362029121
 21         -9.6873198305   -2.1285285903    8.2154073614   -2.2362029421
 22         -9.6873197377   -2.1285286742    8.2154072705   -2.2362029618
Atom SCF converged after  22 iterations to a total energy of     -9.68731974

Atom SCF Calculation for H  : Z (AE atom) =   1 : Z (PS atom) =   1
Config String:
Orbitals (num,occ):  1     1.00
Orbitals   (num,l):  1        0
Real-space Grid (nr,dr,rmax): 1203    0.0066555740    8.0000000000
Spherical Bessel Basis (nsws,lmax,cutoff):   47    0  176.3951722778
Confining potential (l,width,scale):  0    3.0000000000  100.0000000000
  1         -0.3194257691   -0.2393854593    0.2820953124   -0.2424203209
  2         -0.3951823392   -0.2377116493    0.2886404059   -0.2475147891
  3         -0.4317044583   -0.2352244387    0.2921333887   -0.2514046172
  4         -0.4470703708   -0.2341892222    0.2934391879   -0.2531009782
  5         -0.4532132900   -0.2338556667    0.2938388426   -0.2537313520
  6         -0.4556579251   -0.2337612552    0.2939448584   -0.2539550462
  7         -0.4566418315   -0.2337377355    0.2939680120   -0.2540342273
  8         -0.4570437922   -0.2337331116    0.2939708287   -0.2540627372
  9         -0.4572102946   -0.2337328328    0.2939698291   -0.2540732650
 10         -0.4572800424   -0.2337332404    0.2939687193   -0.2540772588
 11         -0.4573095100   -0.2337335791    0.2939680317   -0.2540788122
 12         -0.4573220379   -0.2337337762    0.2939676699   -0.2540794294
 13         -0.4573273880   -0.2337338775    0.2939674931   -0.2540796787
 14         -0.4573296803   -0.2337339266    0.2939674099   -0.2540797808
 15         -0.4573306647   -0.2337339495    0.2939673718   -0.2540798230
 16         -0.4573310882   -0.2337339601    0.2939673545   -0.2540798406
 17         -0.4573312706   -0.2337339649    0.2939673467   -0.2540798479
 18         -0.4573313493   -0.2337339670    0.2939673433   -0.2540798510
Atom SCF converged after  18 iterations to a total energy of     -0.45733135

Atom SCF Calculation for C  : Z (AE atom) =   6 : Z (PS atom) =   4
Config String:
Orbitals (num,occ):  2     2.00 2.00
Orbitals   (num,l):  2        0    1
Real-space Grid (nr,dr,rmax): 1203    0.0066555740    8.0000000000
Spherical Bessel Basis (nsws,lmax,cutoff):   47    1  176.3951722778
Confining potential (l,width,scale):  0    3.0000000000  100.0000000000
Confining potential (l,width,scale):  1    3.0000000000  100.0000000000
  1         -5.2976922011   -1.3069684169    4.5135249990   -1.4493313817
  2         -5.3721716256   -1.3429755895    4.4750154450   -1.4361613026
  3         -5.3809959565   -1.3617365618    4.4541655428   -1.4305930207
  4         -5.3918938866   -1.3667928461    4.4484735100   -1.4294652294
  5         -5.3956096428   -1.3688539142    4.4461376126   -1.4290734646
  6         -5.3968271862   -1.3696852393    4.4451910874   -1.4289366866
  7         -5.3972028401   -1.3700178062    4.4448112275   -1.4288900460
  8         -5.3973067903   -1.3701500158    4.4446598370   -1.4288749220
  9         -5.3973286940   -1.3702023868    4.4445997329   -1.4288704293
 10         -5.3973289850   -1.3702230869    4.4445759233   -1.4288693188
 11         -5.3973254264   -1.3702312560    4.4445665049   -1.4288691775
 12         -5.3973224003   -1.3702344755    4.4445627836   -1.4288692549
 13         -5.3973208708   -1.3702354890    4.4445616088   -1.4288693270
 14         -5.3973198783   -1.3702360102    4.4445610034   -1.4288693814
 15         -5.3973192535   -1.3702362780    4.4445606917   -1.4288694190
 16         -5.3973188684   -1.3702364155    4.4445605313   -1.4288694437
 17         -5.3973186349   -1.3702364860    4.4445604489   -1.4288694595
 18         -5.3973184951   -1.3702365221    4.4445604065   -1.4288694693
 19         -5.3973184122   -1.3702365405    4.4445603848   -1.4288694753
Atom SCF converged after  19 iterations to a total energy of     -5.39731841

Atom SCF Calculation for S  : Z (AE atom) =  16 : Z (PS atom) =   6
Config String:
Orbitals (num,occ):  3     2.00 4.00 0.00
Orbitals   (num,l):  3        0    1    2
Real-space Grid (nr,dr,rmax): 1203    0.0066555740    8.0000000000
Spherical Bessel Basis (nsws,lmax,cutoff):   47    2  176.3951722778
Confining potential (l,width,scale):  0    3.0000000000  100.0000000000
Confining potential (l,width,scale):  1    3.0000000000  100.0000000000
Confining potential (l,width,scale):  2    3.0000000000  100.0000000000
  1        -12.4735062396   -1.0328741412   10.1554312477   -2.4512393157
  2         -9.9458301913   -2.4607392455    8.3041325857   -2.0306994528
  3        -10.1450417646   -2.2931184565    8.4831893826   -2.0812538287
  4        -10.1528335592   -2.2733105793    8.5050388867   -2.0896035179
  5        -10.1571940363   -2.2633716629    8.5160794258   -2.0939370707
  6        -10.1594380571   -2.2584938667    8.5215163935   -2.0961289008
  7        -10.1605856507   -2.2561081821    8.5241804044   -2.0972291378
  8        -10.1611799191   -2.2549395235    8.5254868240   -2.0977806248
  9        -10.1614918752   -2.2543658586    8.5261285885   -2.0980571586
 10        -10.1616572884   -2.2540839121    8.5264441898   -2.0981959233
 11        -10.1617455602   -2.2539453058    8.5265994231   -2.0982656006
 12        -10.1617928447   -2.2538772062    8.5266757320   -2.0983006047
 13        -10.1618182292   -2.2538437891    8.5267131983   -2.0983181961
 14        -10.1618318741   -2.2538274201    8.5267315620   -2.0983270391
 15        -10.1618392144   -2.2538194197    8.5267405433   -2.0983314852
 16        -10.1618431651   -2.2538155200    8.5267449245   -2.0983337210
 17        -10.1618452923   -2.2538136252    8.5267470551   -2.0983348455
 18        -10.1618464380   -2.2538127080    8.5267480875   -2.0983354110
 19        -10.1618470552   -2.2538122659    8.5267485856   -2.0983356955
 20        -10.1618473878   -2.2538120540    8.5267488248   -2.0983358386
 21        -10.1618475670   -2.2538119530    8.5267489389   -2.0983359106
 22        -10.1618476637   -2.2538119053    8.5267489929   -2.0983359468
Atom SCF converged after  22 iterations to a total energy of    -10.16184766

Atom SCF Calculation for O  : Z (AE atom) =   8 : Z (PS atom) =   6
Config String:
Orbitals (num,occ):  2     2.00 4.00
Orbitals   (num,l):  2        0    1
Real-space Grid (nr,dr,rmax): 1203    0.0066555740    8.0000000000
Spherical Bessel Basis (nsws,lmax,cutoff):   47    1  176.3951722778
Confining potential (l,width,scale):  0    3.0000000000  100.0000000000
Confining potential (l,width,scale):  1    3.0000000000  100.0000000000
  1         -1.8735052164   -7.5539365035   10.1554312477   -2.4512393157
  2        -16.0318313751   -3.1285771268   13.6395848164   -3.2358799643
  3        -15.9524020423   -3.0762819706   13.6967272503   -3.2536856837
  4        -15.8521515939   -3.0781493909   13.6951909330   -3.2561700440
  5        -15.8357139793   -3.0748501933   13.6988803334   -3.2580493133
  6        -15.8246052853   -3.0740779781   13.6997881576   -3.2588327446
  7        -15.8189019501   -3.0737449687   13.7001869911   -3.2592378801
  8        -15.8159785510   -3.0736026016   13.7003615168   -3.2594475790
  9        -15.8144776168   -3.0735437994   13.7004360379   -3.2595560735
 10        -15.8137058024   -3.0735207882   13.7004667348   -3.2596122456
 11        -15.8133083127   -3.0735125946   13.7004786868   -3.2596413656
 12        -15.8131032938   -3.0735102195   13.7004828997   -3.2596564858
 13        -15.8129973902   -3.0735099286   13.7004840891   -3.2596643505
 14        -15.8129426040   -3.0735102506   13.7004842061   -3.2596684489
 15        -15.8129142203   -3.0735106556   13.7004840157   -3.2596705887
 16        -15.8128994940   -3.0735109855   13.7004837906   -3.2596717080
 17        -15.8128918425   -3.0735112169   13.7004836103   -3.2596722946
 18        -15.8128878614   -3.0735113674   13.7004834848   -3.2596726026
 19        -15.8128857871   -3.0735114608   13.7004834035   -3.2596727646
 20        -15.8128847048   -3.0735115170   13.7004833533   -3.2596728500
 21        -15.8128841394   -3.0735115501   13.7004833231   -3.2596728951
 22        -15.8128838436   -3.0735115693   13.7004833054   -3.2596729190
 23        -15.8128836887   -3.0735115802   13.7004832951   -3.2596729316
 24        -15.8128836074   -3.0735115864   13.7004832893   -3.2596729383
Atom SCF converged after  24 iterations to a total energy of    -15.81288361

========================== Calculation in vacuum ==============================
= Adjusting the following parameters: 
= is_implicit_solvent: F
= is_include_apolar: F
= write_denskern: T
= write_tightbox_ngwfs: T
= restart read filename prefix: ""
= restart write filename prefix: "vacuum_"
===============================================================================

Determining parallel strategy ...
... using space-filling curve
... NGWF load balancing: max    110;  min    109;  average    109
... Projector load balancing: max     26;  min     21;  average     22
... done
Calculating direct Ion-Ion energy ...
Ion-Ion Energy        :    834736.30473094666377
======================= Empirical dispersion information =======================
Model : Elstner
Dispersion Correction Energy: -0.32849478E+01 Hartree
================================================================================
Basis initialisation ...... NGWF spheres initialised
... Projector spheres initialised
... NGWF tight boxes initialised
... Tight-boxes gathered
... NGWF basis size (local,global):    1386171  83250176
... Nonlocal pseudopotential projector initialisation
... done

========================== Sparse matrix information ===========================
                        Overlap matrix filling:   6.75%
                        Density kernel filling: 100.00%
              NGWF-Proj overlap matrix filling:   1.76%
                    Hamiltonian matrix filling:   7.61%
                  NGWF diagonal matrix filling:   0.05%
                             KS matrix filling: 100.00% 
                           KSKS matrix filling: 100.00% 
================================================================================

Sparse matrix initialisation ... done

Generating smeared ion density ... done
Smeared ion self correction:     -14538.952731
Smeared ion non-self correction: -834687.992185
NGWF initialisation ...... done
============ Calculation of NGWF S^-1 using Hotelling algorithm ================ 
         Iteration  |  Frobenius norm and Maximum abs value    (of I-S*S_n^-1)   
               1       0.78710777E+02     0.98259614E+00
               2       0.76850763E+02     0.96564247E+00
               3       0.73839199E+02     0.93300142E+00
               4       0.69559305E+02     0.87254792E+00
               5       0.64229888E+02     0.76826431E+00
               6       0.58243232E+02     0.70415509E+00
               7       0.52226846E+02     0.66877486E+00
               8       0.46665957E+02     0.64406271E+00
               9       0.40579296E+02     0.60400240E+00
              10       0.32284917E+02     0.53415572E+00
              11       0.21683545E+02     0.42071078E+00
              12       0.11064571E+02     0.27834707E+00
              13       0.36368497E+01     0.12498399E+00
              14       0.57324906E+00     0.32149945E-01
              15       0.27634818E-01     0.26317014E-02
              16       0.15687755E-03     0.19878148E-04
              17       0.88314581E-08     0.12545083E-08
              18       0.93615369E-13     0.53290705E-14
================================================================================
Calculating local pseudopotential in open BC on the fine real space grid ...
... done

MG BCs: +ve charge blocks (gridpoints):     20052 (   15729241).
MG BCs: -ve charge blocks (gridpoints):      7955 (    1062729).
MG BCs:     Elided blocks (gridpoints):    177068 (  173984735).
MG BCs: Computational effort saved:  99.9853%.
MG BCs: Charge after coarse-graining:           -9.0002225.
MG DL_MG: Calling solver with defect correction order = 8
MG DL_MG: Solver finished
MG Hartree energy from (\int phi*rho dr):              1471.837720
MG Hartree energy from (\int eps (grad phi)^2 dr):     1471.213706
MG Discrepancy due to finite box and discretization:     -0.624014 (  -0.04240%)
MG Correction to account for finite box:                  0.463453
MG Remaining discrepancy, due to discretization:         -0.160561 (  -0.01091%)
Up spin density kernel initialisation ... 
======= Optimisation of K by Palser-Manolopoulos canonical purification ======== 
         Iteration  |  Band structure energy |    c_n   
               1       -2598.10016155992344    0.5262319
               2       -2774.87984492404121    0.5166278
               3       -2955.34315260259882    0.5153437
               4       -3105.10825376334697    0.5291972
               5       -3196.41744358122105    0.5653551
               6       -3234.28058560458157    0.6100876
               7       -3247.13432020889104    0.6217978
               8       -3252.73028477837852    0.6214306
               9       -3255.43613439906130    0.6362031
              10       -3256.56237428918575    0.6595998
              11       -3257.00941199878434    0.6757408
              12       -3257.20557970896789    0.6747326
              13       -3257.30429201157585    0.6438685
              14       -3257.36133619738166    0.5759754
              15       -3257.39555088788893    0.4942001
              16       -3257.40884984518061    0.4626914
              17       -3257.40979433313851    0.4881460
              18       -3257.41057427107307    0.4989474
              19       -3257.41129506415973    0.4999951
              20       -3257.41177968893999    0.5000033
              21       -3257.41192219684308    0.5000008
              22       -3257.41193115890701    0.5000001
              23       -3257.41193119115542    0.5000001
Termination criterion satisfied: band energy change below threshold.
Final occupancy bounds: [    0.00000000000001:    0.99999999999998]
Closest occupancy to 0.5:     1.00000000000000
================================================================================
... done

Writing density kernel to file "complex_2761.vacuum_dkn" ... done

>>> Optimising kernel for current NGWFs:
   Initial electron number for spin 1:    7234.00000000
     Final electron number for spin 1:    7234.00000000

=================== Penalty functional idempotency correction ==================
 RMS occupancy error at iteration   1:  0.000000 (step -0.5000 Ne1=   7234.0000)
            Final RMS occupancy error   :  0.000000 (Ne1=   7234.0000)
               Final occupancy bounds   : [  0.0000,  1.0000]
================================================================================

................................................................................
<<<<<<<<<<<<<< LNV (Original version) density kernel optimisation >>>>>>>>>>>>>>
~~~~~~~~~~~~~~~~~~~~~~~~~~~~~~~~~~~~~~~~~~~~~~~~~~~~~~~~~~~~~~~~~~~~~~~~~~~~~~~~
   iter  |      energy (Eh)       | rms gradient |  commutator  |   dE (Eh)
MG BCs: +ve charge blocks (gridpoints):     30445 (   16930747).
MG BCs: -ve charge blocks (gridpoints):      8250 (    1095556).
MG BCs:     Elided blocks (gridpoints):    166666 (  172750402).
MG BCs: Computational effort saved:  99.9797%.
MG BCs: Charge after coarse-graining:           -9.0009415.
MG DL_MG: Calling solver with defect correction order = 8
MG DL_MG: Solver finished
MG Hartree energy from (\int phi*rho dr):              1426.917447
MG Hartree energy from (\int eps (grad phi)^2 dr):     1426.239720
MG Discrepancy due to finite box and discretization:     -0.677727 (  -0.04750%)
MG Correction to account for finite box:                  0.471472
MG Remaining discrepancy, due to discretization:         -0.206255 (  -0.01445%)
      ideal mu1:      -0.704175121901
             Q0:  -11569.082456587232
             G0:    -143.245824165933
   RMS gradient:       0.001828932572
MG BCs: +ve charge blocks (gridpoints):     30413 (   17013987).
MG BCs: -ve charge blocks (gridpoints):      8149 (    1075502).
MG BCs:     Elided blocks (gridpoints):    166700 (  172687216).
MG BCs: Computational effort saved:  99.9798%.
MG BCs: Charge after coarse-graining:           -9.0009604.
MG DL_MG: Calling solver with defect correction order = 8
MG DL_MG: Solver finished
MG Hartree energy from (\int phi*rho dr):              1453.172851
MG Hartree energy from (\int eps (grad phi)^2 dr):     1452.512848
MG Discrepancy due to finite box and discretization:     -0.660003 (  -0.04542%)
MG Correction to account for finite box:                  0.470527
MG Remaining discrepancy, due to discretization:         -0.189476 (  -0.01304%)
     Trial step:       0.500000000000
             Q1:  -11580.452933929628
 Quadratic coef:      60.252434740571
 Linear coef   :     -71.622912082966
           Qmin:  -11590.367245979278
Quadratic minimum step length (  0.297178497397) accepted
    Initial Ne1:    7234.00000000
      Final Ne1:    7234.00000000

=================== Penalty functional idempotency correction ==================
 RMS occupancy error at iteration   1:  0.003342 (step -0.4887 Ne1=   7234.0000)
 RMS occupancy error at iteration   2:  0.000027 (step -0.5001 Ne1=   7234.0000)
            Final RMS occupancy error   :  0.000000 (Ne1=   7234.0000)
               Final occupancy bounds   : [  0.0000,  1.0000]
================================================================================

    1        -1.156908245659E+04     1.8289E-03     1.6545E-03
MG BCs: +ve charge blocks (gridpoints):     30418 (   16981983).
MG BCs: -ve charge blocks (gridpoints):      8200 (    1084127).
MG BCs:     Elided blocks (gridpoints):    166694 (  172710595).
MG BCs: Computational effort saved:  99.9798%.
MG BCs: Charge after coarse-graining:           -9.0009523.
MG DL_MG: Calling solver with defect correction order = 8
MG DL_MG: Solver finished
MG Hartree energy from (\int phi*rho dr):              1434.666187
MG Hartree energy from (\int eps (grad phi)^2 dr):     1433.999969
MG Discrepancy due to finite box and discretization:     -0.666217 (  -0.04644%)
MG Correction to account for finite box:                  0.470818
MG Remaining discrepancy, due to discretization:         -0.195399 (  -0.01362%)
      ideal mu1:      -0.749995182032
             Q0:  -11590.752350882743
             G0:     -11.958785884152
   RMS gradient:       0.000524979370
MG BCs: +ve charge blocks (gridpoints):     30418 (   16998425).
MG BCs: -ve charge blocks (gridpoints):      8178 (    1079082).
MG BCs:     Elided blocks (gridpoints):    166694 (  172699198).
MG BCs: Computational effort saved:  99.9798%.
MG BCs: Charge after coarse-graining:           -9.0009564.
MG DL_MG: Calling solver with defect correction order = 8
MG DL_MG: Solver finished
MG Hartree energy from (\int phi*rho dr):              1439.867471
MG Hartree energy from (\int eps (grad phi)^2 dr):     1439.205315
MG Discrepancy due to finite box and discretization:     -0.662156 (  -0.04599%)
MG Correction to account for finite box:                  0.470087
MG Remaining discrepancy, due to discretization:         -0.192069 (  -0.01334%)
     Trial step:       0.385472759996
             Q1:  -11593.552937395638
 Quadratic coef:       1.809199688068
 Linear coef   :      -4.609786200962
           Qmin:  -11593.688749910270
Quadratic minimum step length (  0.491086479175) accepted
    Initial Ne1:    7233.99987648
      Final Ne1:    7234.00000000

=================== Penalty functional idempotency correction ==================
 RMS occupancy error at iteration   1:  0.001779 (step -0.4929 Ne1=   7234.0000)
 RMS occupancy error at iteration   2:  0.000014 (step -0.5003 Ne1=   7234.0000)
            Final RMS occupancy error   :  0.000000 (Ne1=   7234.0000)
               Final occupancy bounds   : [  0.0000,  1.0000]
================================================================================

    2        -1.159075235088E+04     5.2498E-04     4.7491E-04    -2.1670E+01
MG BCs: +ve charge blocks (gridpoints):     30420 (   17003138).
MG BCs: -ve charge blocks (gridpoints):      8171 (    1077637).
MG BCs:     Elided blocks (gridpoints):    166692 (  172695930).
MG BCs: Computational effort saved:  99.9798%.
MG BCs: Charge after coarse-graining:           -9.0009574.
MG DL_MG: Calling solver with defect correction order = 8
MG DL_MG: Solver finished
MG Hartree energy from (\int phi*rho dr):              1441.341025
MG Hartree energy from (\int eps (grad phi)^2 dr):     1440.679904
MG Discrepancy due to finite box and discretization:     -0.661120 (  -0.04587%)
MG Correction to account for finite box:                  0.469899
MG Remaining discrepancy, due to discretization:         -0.191221 (  -0.01327%)
      ideal mu1:      -0.774650377410
             Q0:  -11593.724468554952
             G0:      -1.916437075384
   RMS gradient:       0.000210216489
MG BCs: +ve charge blocks (gridpoints):     30425 (   17002537).
MG BCs: -ve charge blocks (gridpoints):      8174 (    1078552).
MG BCs:     Elided blocks (gridpoints):    166687 (  172695616).
MG BCs: Computational effort saved:  99.9798%.
MG BCs: Charge after coarse-graining:           -9.0009569.
MG DL_MG: Calling solver with defect correction order = 8
MG DL_MG: Solver finished
MG Hartree energy from (\int phi*rho dr):              1439.025911
MG Hartree energy from (\int eps (grad phi)^2 dr):     1438.365251
MG Discrepancy due to finite box and discretization:     -0.660660 (  -0.04591%)
MG Correction to account for finite box:                  0.469645
MG Remaining discrepancy, due to discretization:         -0.191015 (  -0.01327%)
     Trial step:       0.435086727589
             Q1:  -11594.214760675561
 Quadratic coef:       0.343524215150
 Linear coef   :      -0.833816335759
           Qmin:  -11594.230437021743
Quadratic minimum step length (  0.528030346823) accepted
    Initial Ne1:    7233.99988517
      Final Ne1:    7234.00000000

=================== Penalty functional idempotency correction ==================
 RMS occupancy error at iteration   1:  0.000645 (step -0.4963 Ne1=   7234.0000)
 RMS occupancy error at iteration   2:  0.000005 (step -0.5003 Ne1=   7234.0000)
            Final RMS occupancy error   :  0.000000 (Ne1=   7234.0000)
               Final occupancy bounds   : [  0.0000,  1.0000]
================================================================================

    3        -1.159372446855E+04     2.1022E-04     1.9017E-04    -2.9721E+00
MG BCs: +ve charge blocks (gridpoints):     30424 (   17002439).
MG BCs: -ve charge blocks (gridpoints):      8175 (    1078729).
MG BCs:     Elided blocks (gridpoints):    166688 (  172695537).
MG BCs: Computational effort saved:  99.9798%.
MG BCs: Charge after coarse-graining:           -9.0009568.
MG DL_MG: Calling solver with defect correction order = 8
MG DL_MG: Solver finished
MG Hartree energy from (\int phi*rho dr):              1438.541146
MG Hartree energy from (\int eps (grad phi)^2 dr):     1437.880573
MG Discrepancy due to finite box and discretization:     -0.660573 (  -0.04592%)
MG Correction to account for finite box:                  0.469591
MG Remaining discrepancy, due to discretization:         -0.190982 (  -0.01328%)
      ideal mu1:      -0.775370426776
             Q0:  -11594.235083286883
             G0:      -0.500005115290
   RMS gradient:       0.000107515326
MG BCs: +ve charge blocks (gridpoints):     30421 (   17003296).
MG BCs: -ve charge blocks (gridpoints):      8172 (    1078543).
MG BCs:     Elided blocks (gridpoints):    166691 (  172694866).
MG BCs: Computational effort saved:  99.9798%.
MG BCs: Charge after coarse-graining:           -9.0009568.
MG DL_MG: Calling solver with defect correction order = 8
MG DL_MG: Solver finished
MG Hartree energy from (\int phi*rho dr):              1439.827271
MG Hartree energy from (\int eps (grad phi)^2 dr):     1439.166724
MG Discrepancy due to finite box and discretization:     -0.660547 (  -0.04588%)
MG Correction to account for finite box:                  0.469445
MG Remaining discrepancy, due to discretization:         -0.191101 (  -0.01327%)
     Trial step:       0.479310959260
             Q1:  -11594.360901873792
 Quadratic coef:       0.113839344536
 Linear coef   :      -0.239657931445
           Qmin:  -11594.361217015821
Quadratic minimum step length (  0.504529754116) accepted
    Initial Ne1:    7233.99994427
      Final Ne1:    7234.00000000

=================== Penalty functional idempotency correction ==================
 RMS occupancy error at iteration   1:  0.000310 (step -0.4928 Ne1=   7234.0000)
 RMS occupancy error at iteration   2:  0.000005 (step -0.5000 Ne1=   7234.0000)
            Final RMS occupancy error   :  0.000000 (Ne1=   7234.0000)
               Final occupancy bounds   : [  0.0000,  1.0000]
================================================================================

    4        -1.159423508329E+04     1.0752E-04     9.7260E-05    -5.1061E-01
MG BCs: +ve charge blocks (gridpoints):     30421 (   17003317).
MG BCs: -ve charge blocks (gridpoints):      8171 (    1078540).
MG BCs:     Elided blocks (gridpoints):    166691 (  172694848).
MG BCs: Computational effort saved:  99.9798%.
MG BCs: Charge after coarse-graining:           -9.0009569.
MG DL_MG: Calling solver with defect correction order = 8
MG DL_MG: Solver finished
MG Hartree energy from (\int phi*rho dr):              1439.895636
MG Hartree energy from (\int eps (grad phi)^2 dr):     1439.235090
MG Discrepancy due to finite box and discretization:     -0.660546 (  -0.04587%)
MG Correction to account for finite box:                  0.469438
MG Remaining discrepancy, due to discretization:         -0.191108 (  -0.01327%)
      ideal mu1:      -0.775655203641
             Q0:  -11594.361803757842
             G0:      -0.192769359783
   RMS gradient:       0.000066943609
MG BCs: +ve charge blocks (gridpoints):     30422 (   17003445).
MG BCs: -ve charge blocks (gridpoints):      8171 (    1078333).
MG BCs:     Elided blocks (gridpoints):    166690 (  172694927).
MG BCs: Computational effort saved:  99.9798%.
MG BCs: Charge after coarse-graining:           -9.0009569.
MG DL_MG: Calling solver with defect correction order = 8
MG DL_MG: Solver finished
MG Hartree energy from (\int phi*rho dr):              1440.303384
MG Hartree energy from (\int eps (grad phi)^2 dr):     1439.642712
MG Discrepancy due to finite box and discretization:     -0.660672 (  -0.04587%)
MG Correction to account for finite box:                  0.469402
MG Remaining discrepancy, due to discretization:         -0.191270 (  -0.01328%)
     Trial step:       0.491758721753
             Q1:  -11594.424176533124
 Quadratic coef:       0.032423238677
 Linear coef   :      -0.094796013960
           Qmin:  -11594.431092673982
Quadratic minimum step length (  0.718878936126) accepted
    Initial Ne1:    7233.99996863
      Final Ne1:    7234.00000000

=================== Penalty functional idempotency correction ==================
 RMS occupancy error at iteration   1:  0.000580 (step -0.4625 Ne1=   7234.0000)
 RMS occupancy error at iteration   2:  0.000016 (step -0.4999 Ne1=   7234.0000)
            Final RMS occupancy error   :  0.000000 (Ne1=   7234.0000)
               Final occupancy bounds   : [ -0.0000,  1.0000]
================================================================================

    5        -1.159436180376E+04     6.6944E-05     6.0558E-05    -1.2672E-01
MG BCs: +ve charge blocks (gridpoints):     30424 (   17003428).
MG BCs: -ve charge blocks (gridpoints):      8171 (    1078273).
MG BCs:     Elided blocks (gridpoints):    166688 (  172695004).
MG BCs: Computational effort saved:  99.9798%.
MG BCs: Charge after coarse-graining:           -9.0009569.
MG DL_MG: Calling solver with defect correction order = 8
MG DL_MG: Solver finished
MG Hartree energy from (\int phi*rho dr):              1440.490817
MG Hartree energy from (\int eps (grad phi)^2 dr):     1439.830087
MG Discrepancy due to finite box and discretization:     -0.660730 (  -0.04587%)
MG Correction to account for finite box:                  0.469384
MG Remaining discrepancy, due to discretization:         -0.191345 (  -0.01328%)
      ideal mu1:      -0.775895771524
             Q0:  -11594.430147589184
             G0:      -0.185056937054
   RMS gradient:       0.000066281794
MG BCs: +ve charge blocks (gridpoints):     30425 (   17002543).
MG BCs: -ve charge blocks (gridpoints):      8174 (    1078762).
MG BCs:     Elided blocks (gridpoints):    166687 (  172695400).
MG BCs: Computational effort saved:  99.9798%.
MG BCs: Charge after coarse-graining:           -9.0009567.
MG DL_MG: Calling solver with defect correction order = 8
MG DL_MG: Solver finished
MG Hartree energy from (\int phi*rho dr):              1439.156558
MG Hartree energy from (\int eps (grad phi)^2 dr):     1438.495935
MG Discrepancy due to finite box and discretization:     -0.660623 (  -0.04590%)
MG Correction to account for finite box:                  0.469306
MG Remaining discrepancy, due to discretization:         -0.191317 (  -0.01329%)
     Trial step:       0.594571262949
             Q1:  -11594.509188004537
 Quadratic coef:       0.030989121429
 Linear coef   :      -0.110029536781
           Qmin:  -11594.527814918927
Quadratic minimum step length (  1.055538163534) accepted
    Initial Ne1:    7233.99997305
      Final Ne1:    7234.00000000

=================== Penalty functional idempotency correction ==================
 RMS occupancy error at iteration   1:  0.003744 (step -0.3166 Ne1=   7234.0000)
 RMS occupancy error at iteration   2:  0.000239 (step -0.4911 Ne1=   7234.0000)
 RMS occupancy error at iteration   3:  0.000003 (step -0.5000 Ne1=   7234.0000)
            Final RMS occupancy error   :  0.000000 (Ne1=   7234.0000)
               Final occupancy bounds   : [  0.0000,  1.0000]
================================================================================

    6        -1.159443014759E+04     6.6282E-05     5.9960E-05    -6.8344E-02
MG BCs: +ve charge blocks (gridpoints):     30422 (   17001900).
MG BCs: -ve charge blocks (gridpoints):      8177 (    1079066).
MG BCs:     Elided blocks (gridpoints):    166690 (  172695739).
MG BCs: Computational effort saved:  99.9798%.
MG BCs: Charge after coarse-graining:           -9.0009566.
MG DL_MG: Calling solver with defect correction order = 8
MG DL_MG: Solver finished
MG Hartree energy from (\int phi*rho dr):              1438.138757
MG Hartree energy from (\int eps (grad phi)^2 dr):     1437.478201
MG Discrepancy due to finite box and discretization:     -0.660556 (  -0.04593%)
MG Correction to account for finite box:                  0.469257
MG Remaining discrepancy, due to discretization:         -0.191299 (  -0.01330%)
      ideal mu1:      -0.775766021684
             Q0:  -11594.516409668722
             G0:      -0.280464062839
   RMS gradient:       0.000080927350
MG BCs: +ve charge blocks (gridpoints):     30422 (   17004100).
MG BCs: -ve charge blocks (gridpoints):      8172 (    1077988).
MG BCs:     Elided blocks (gridpoints):    166690 (  172694617).
MG BCs: Computational effort saved:  99.9798%.
MG BCs: Charge after coarse-graining:           -9.0009571.
MG DL_MG: Calling solver with defect correction order = 8
MG DL_MG: Solver finished
MG Hartree energy from (\int phi*rho dr):              1440.708155
MG Hartree energy from (\int eps (grad phi)^2 dr):     1440.047887
MG Discrepancy due to finite box and discretization:     -0.660268 (  -0.04583%)
MG Correction to account for finite box:                  0.469166
MG Remaining discrepancy, due to discretization:         -0.191103 (  -0.01326%)
     Trial step:       0.792207459560
             Q1:  -11594.603968213894
 Quadratic coef:       0.134627177547
 Linear coef   :      -0.222185722720
           Qmin:  -11594.608082272054
Quadratic minimum step length (  0.653720853965) accepted
    Initial Ne1:    7233.99999871
      Final Ne1:    7234.00000000

=================== Penalty functional idempotency correction ==================
 RMS occupancy error at iteration   1:  0.000188 (step -0.4868 Ne1=   7234.0000)
 RMS occupancy error at iteration   2:  0.000001 (step -0.5000 Ne1=   7234.0000)
            Final RMS occupancy error   :  0.000000 (Ne1=   7234.0000)
               Final occupancy bounds   : [  0.0000,  1.0000]
================================================================================

    7        -1.159451640967E+04     8.0927E-05     7.3208E-05    -8.6262E-02
MG BCs: +ve charge blocks (gridpoints):     30423 (   17003743).
MG BCs: -ve charge blocks (gridpoints):      8173 (    1078150).
MG BCs:     Elided blocks (gridpoints):    166689 (  172694812).
MG BCs: Computational effort saved:  99.9798%.
MG BCs: Charge after coarse-graining:           -9.0009570.
MG DL_MG: Calling solver with defect correction order = 8
MG DL_MG: Solver finished
MG Hartree energy from (\int phi*rho dr):              1440.257354
MG Hartree energy from (\int eps (grad phi)^2 dr):     1439.597035
MG Discrepancy due to finite box and discretization:     -0.660319 (  -0.04585%)
MG Correction to account for finite box:                  0.469182
MG Remaining discrepancy, due to discretization:         -0.191136 (  -0.01327%)
      ideal mu1:      -0.776863023167
             Q0:  -11594.608239187044
             G0:      -0.215556070388
   RMS gradient:       0.000070911423
MG BCs: +ve charge blocks (gridpoints):     30425 (   17003627).
MG BCs: -ve charge blocks (gridpoints):      8175 (    1078142).
MG BCs:     Elided blocks (gridpoints):    166687 (  172694936).
MG BCs: Computational effort saved:  99.9798%.
MG BCs: Charge after coarse-graining:           -9.0009571.
MG DL_MG: Calling solver with defect correction order = 8
MG DL_MG: Solver finished
MG Hartree energy from (\int phi*rho dr):              1440.122709
MG Hartree energy from (\int eps (grad phi)^2 dr):     1439.462590
MG Discrepancy due to finite box and discretization:     -0.660119 (  -0.04584%)
MG Correction to account for finite box:                  0.469146
MG Remaining discrepancy, due to discretization:         -0.190973 (  -0.01326%)
     Trial step:       0.719640560962
             Q1:  -11594.696369562531
 Quadratic coef:       0.066992515925
 Linear coef   :      -0.155122891413
           Qmin:  -11594.698036946942
Quadratic minimum step length (  0.833173101892) accepted
    Initial Ne1:    7233.99999845
      Final Ne1:    7234.00000000

=================== Penalty functional idempotency correction ==================
 RMS occupancy error at iteration   1:  0.001333 (step -0.4196 Ne1=   7234.0000)
 RMS occupancy error at iteration   2:  0.000051 (step -0.4975 Ne1=   7234.0000)
 RMS occupancy error at iteration   3:  0.000000 (step -0.5000 Ne1=   7234.0000)
            Final RMS occupancy error   :  0.000000 (Ne1=   7234.0000)
               Final occupancy bounds   : [  0.0000,  1.0000]
================================================================================

    8        -1.159460823919E+04     7.0911E-05     6.4148E-05    -9.1830E-02
MG BCs: +ve charge blocks (gridpoints):     30425 (   17003563).
MG BCs: -ve charge blocks (gridpoints):      8176 (    1078194).
MG BCs:     Elided blocks (gridpoints):    166687 (  172694948).
MG BCs: Computational effort saved:  99.9798%.
MG BCs: Charge after coarse-graining:           -9.0009571.
MG DL_MG: Calling solver with defect correction order = 8
MG DL_MG: Solver finished
MG Hartree energy from (\int phi*rho dr):              1440.104777
MG Hartree energy from (\int eps (grad phi)^2 dr):     1439.444689
MG Discrepancy due to finite box and discretization:     -0.660088 (  -0.04584%)
MG Correction to account for finite box:                  0.469140
MG Remaining discrepancy, due to discretization:         -0.190948 (  -0.01326%)
      ideal mu1:      -0.776381378387
             Q0:  -11594.697561211535
             G0:      -0.221809743491
   RMS gradient:       0.000071842660
MG BCs: +ve charge blocks (gridpoints):     30423 (   17002518).
MG BCs: -ve charge blocks (gridpoints):      8176 (    1078712).
MG BCs:     Elided blocks (gridpoints):    166689 (  172695475).
MG BCs: Computational effort saved:  99.9798%.
MG BCs: Charge after coarse-graining:           -9.0009570.
MG DL_MG: Calling solver with defect correction order = 8
MG DL_MG: Solver finished
MG Hartree energy from (\int phi*rho dr):              1438.822030
MG Hartree energy from (\int eps (grad phi)^2 dr):     1438.162133
MG Discrepancy due to finite box and discretization:     -0.659897 (  -0.04586%)
MG Correction to account for finite box:                  0.469032
MG Remaining discrepancy, due to discretization:         -0.190865 (  -0.01327%)
     Trial step:       0.774328843854
             Q1:  -11594.769601226784
 Quadratic coef:       0.099713666983
 Linear coef   :      -0.171753682233
           Qmin:  -11594.771521302095
Quadratic minimum step length (  0.666878644697) accepted
    Initial Ne1:    7233.99999872
      Final Ne1:    7234.00000000

=================== Penalty functional idempotency correction ==================
 RMS occupancy error at iteration   1:  0.003012 (step -0.3550 Ne1=   7234.0000)
 RMS occupancy error at iteration   2:  0.000197 (step -0.4903 Ne1=   7234.0000)
 RMS occupancy error at iteration   3:  0.000003 (step -0.5000 Ne1=   7234.0000)
            Final RMS occupancy error   :  0.000000 (Ne1=   7234.0000)
               Final occupancy bounds   : [  0.0000,  1.0000]
================================================================================

    9        -1.159469756121E+04     7.1843E-05     6.4990E-05    -8.9322E-02
MG BCs: +ve charge blocks (gridpoints):     30424 (   17002652).
MG BCs: -ve charge blocks (gridpoints):      8176 (    1078635).
MG BCs:     Elided blocks (gridpoints):    166688 (  172695418).
MG BCs: Computational effort saved:  99.9798%.
MG BCs: Charge after coarse-graining:           -9.0009571.
MG DL_MG: Calling solver with defect correction order = 8
MG DL_MG: Solver finished
MG Hartree energy from (\int phi*rho dr):              1438.998038
MG Hartree energy from (\int eps (grad phi)^2 dr):     1438.338104
MG Discrepancy due to finite box and discretization:     -0.659934 (  -0.04586%)
MG Correction to account for finite box:                  0.469065
MG Remaining discrepancy, due to discretization:         -0.190869 (  -0.01326%)
      ideal mu1:      -0.775413028814
   10        -1.159477862237E+04     6.1394E-05     5.5538E-05    -8.1061E-02
Finished density kernel iterations (  10)

Writing density kernel to file "complex_2761.vacuum_dkn" ... done


>>> Density kernel optimised for the current NGWF basis:
     ~~~~~~~~~~~~~~~~~~~~~~~~~~~~~~~~~~~~~~~~~~~~~~~~~~~~~~~~~~~
     Total energy                =  -1.15947786223727E+04  Eh
     Estimated bandgap           =  -4.0667E-01  Eh
     RMS occupancy error         =   1.0177E-09
     [H,K] commutator            =   5.5538E-05
     Occupancy bounds            = [  0.000:  1.000]
     ~~~~~~~~~~~~~~~~~~~~~~~~~~~~~~~~~~~~~~~~~~~~~~~~~~~~~~~~~~~




################################################################################
########################### NGWF CG iteration  001 #############################
################################################################################
****** Reciprocal space K.E. preconditioning with k_zero =  3.5000 a0^-1 *******

>>> Checking for convergence of NGWFs:   NOT CONVERGED
  ========================================================================
         NGWF RMS gradient =  1.6341E-03 >  2.0000E-06  | above tolerance
  ========================================================================

>>> Improving NGWFs using line search:
============ Calculation of NGWF S^-1 using Hotelling algorithm ================ 
         Iteration  |  Frobenius norm and Maximum abs value    (of I-S*S_n^-1)   
               1       0.20574512E+00     0.61576783E-02
               2       0.99737885E-03     0.58479236E-04
               3       0.41204231E-07     0.51388979E-08
               4       0.12609501E-12     0.62172489E-14
================================================================================
MG BCs: +ve charge blocks (gridpoints):     29973 (   16945410).
MG BCs: -ve charge blocks (gridpoints):      8184 (    1078512).
MG BCs:     Elided blocks (gridpoints):    167140 (  172752783).
MG BCs: Computational effort saved:  99.9800%.
MG BCs: Charge after coarse-graining:           -9.0009611.
MG DL_MG: Calling solver with defect correction order = 8
MG DL_MG: Solver finished
MG Hartree energy from (\int phi*rho dr):              1406.512693
MG Hartree energy from (\int eps (grad phi)^2 dr):     1405.853829
MG Discrepancy due to finite box and discretization:     -0.658864 (  -0.04684%)
MG Correction to account for finite box:                  0.469016
MG Remaining discrepancy, due to discretization:         -0.189848 (  -0.01350%)
============ Calculation of NGWF S^-1 using Hotelling algorithm ================ 
         Iteration  |  Frobenius norm and Maximum abs value    (of I-S*S_n^-1)   
               1       0.18433476E+01     0.48609156E-01
               2       0.70909179E-01     0.32683741E-02
               3       0.14692540E-03     0.15929163E-04
               4       0.13244126E-08     0.38405612E-09
               5       0.10813914E-12     0.42743586E-14
================================================================================
------------------------------- NGWF line search -------------------------------
RMS gradient                =       0.00163406600626
Trial step length           =               0.122474
Gradient along search dir.  =       -285.91240109114
Functional at step 0        =  -11594.77862237265799
Functional at step 1        =  -11627.04508835275192
Functional predicted        =  -11706.22968885063347
Selected quadratic step     =               0.779617
--------------------------- NGWF line search finished --------------------------
                                               
Writing NGWFs to file "complex_2761.vacuum_tightbox_ngwfs"....  done

>>> Optimising kernel for current NGWFs:
   Initial electron number for spin 1:    7269.23772193
     Final electron number for spin 1:    7234.00000000

=================== Penalty functional idempotency correction ==================
 RMS occupancy error at iteration   1:  0.004414 (step -0.4849 Ne1=   7234.0000)
 RMS occupancy error at iteration   2:  0.000078 (step -0.5003 Ne1=   7234.0000)
            Final RMS occupancy error   :  0.000000 (Ne1=   7234.0000)
               Final occupancy bounds   : [  0.0000,  1.0000]
================================================================================

................................................................................
<<<<<<<<<<<<<< LNV (Original version) density kernel optimisation >>>>>>>>>>>>>>
~~~~~~~~~~~~~~~~~~~~~~~~~~~~~~~~~~~~~~~~~~~~~~~~~~~~~~~~~~~~~~~~~~~~~~~~~~~~~~~~
   iter  |      energy (Eh)       | rms gradient |  commutator  |   dE (Eh)
MG BCs: +ve charge blocks (gridpoints):     24410 (   16623156).
MG BCs: -ve charge blocks (gridpoints):      8285 (    1061967).
MG BCs:     Elided blocks (gridpoints):    172710 (  173091582).
MG BCs: Computational effort saved:  99.9829%.
MG BCs: Charge after coarse-graining:           -9.0006793.
MG DL_MG: Calling solver with defect correction order = 8
MG DL_MG: Solver finished
MG Hartree energy from (\int phi*rho dr):              1253.996880
MG Hartree energy from (\int eps (grad phi)^2 dr):     1253.338636
MG Discrepancy due to finite box and discretization:     -0.658243 (  -0.05249%)
MG Correction to account for finite box:                  0.468816
MG Remaining discrepancy, due to discretization:         -0.189427 (  -0.01511%)
      ideal mu1:      -0.716455068766
             Q0:  -11705.460380558390
             G0:      -9.749412212038
   RMS gradient:       0.000477140109
MG BCs: +ve charge blocks (gridpoints):     24458 (   16636361).
MG BCs: -ve charge blocks (gridpoints):      8276 (    1059013).
MG BCs:     Elided blocks (gridpoints):    172662 (  173081331).
MG BCs: Computational effort saved:  99.9828%.
MG BCs: Charge after coarse-graining:           -9.0006749.
MG DL_MG: Calling solver with defect correction order = 8
MG DL_MG: Solver finished
MG Hartree energy from (\int phi*rho dr):              1269.197780
MG Hartree energy from (\int eps (grad phi)^2 dr):     1268.534068
MG Discrepancy due to finite box and discretization:     -0.663713 (  -0.05229%)
MG Correction to account for finite box:                  0.468156
MG Remaining discrepancy, due to discretization:         -0.195557 (  -0.01541%)
     Trial step:       0.718598197840
             Q1:  -11704.885855482309
 Quadratic coef:       7.580435121654
 Linear coef   :      -7.005910045573
           Qmin:  -11707.079112688503
Quadratic minimum step length (  0.332067635445) accepted
    Initial Ne1:    7233.99948396
      Final Ne1:    7234.00000000

=================== Penalty functional idempotency correction ==================
 RMS occupancy error at iteration   1:  0.000354 (step -0.4986 Ne1=   7234.0000)
 RMS occupancy error at iteration   2:  0.000000 (step -0.5000 Ne1=   7234.0000)
            Final RMS occupancy error   :  0.000000 (Ne1=   7234.0000)
               Final occupancy bounds   : [  0.0000,  1.0000]
================================================================================

    1        -1.170546038056E+04     4.7714E-04     4.3163E-04
MG BCs: +ve charge blocks (gridpoints):     24435 (   16629439).
MG BCs: -ve charge blocks (gridpoints):      8280 (    1060588).
MG BCs:     Elided blocks (gridpoints):    172685 (  173086678).
MG BCs: Computational effort saved:  99.9829%.
MG BCs: Charge after coarse-graining:           -9.0006771.
MG DL_MG: Calling solver with defect correction order = 8
MG DL_MG: Solver finished
MG Hartree energy from (\int phi*rho dr):              1260.102708
MG Hartree energy from (\int eps (grad phi)^2 dr):     1259.442036
MG Discrepancy due to finite box and discretization:     -0.660671 (  -0.05243%)
MG Correction to account for finite box:                  0.468488
MG Remaining discrepancy, due to discretization:         -0.192184 (  -0.01525%)
      ideal mu1:      -0.722532806937
             Q0:  -11707.054359016009
             G0:      -1.014943453213
   RMS gradient:       0.000154585455
MG BCs: +ve charge blocks (gridpoints):     24434 (   16628940).
MG BCs: -ve charge blocks (gridpoints):      8281 (    1061434).
MG BCs:     Elided blocks (gridpoints):    172686 (  173086331).
MG BCs: Computational effort saved:  99.9829%.
MG BCs: Charge after coarse-graining:           -9.0006771.
MG DL_MG: Calling solver with defect correction order = 8
MG DL_MG: Solver finished
MG Hartree energy from (\int phi*rho dr):              1261.093781
MG Hartree energy from (\int eps (grad phi)^2 dr):     1260.432794
MG Discrepancy due to finite box and discretization:     -0.660987 (  -0.05241%)
MG Correction to account for finite box:                  0.468390
MG Remaining discrepancy, due to discretization:         -0.192597 (  -0.01527%)
     Trial step:       0.488490741357
             Q1:  -11707.268650515703
 Quadratic coef:       0.281498980201
 Linear coef   :      -0.495790479896
           Qmin:  -11707.272661938261
Quadratic minimum step length (  0.430177507054) accepted
    Initial Ne1:    7233.99992982
      Final Ne1:    7234.00000000

=================== Penalty functional idempotency correction ==================
 RMS occupancy error at iteration   1:  0.000156 (step -0.4990 Ne1=   7234.0000)
 RMS occupancy error at iteration   2:  0.000000 (step -0.5000 Ne1=   7234.0000)
            Final RMS occupancy error   :  0.000000 (Ne1=   7234.0000)
               Final occupancy bounds   : [  0.0000,  1.0000]
================================================================================

    2        -1.170705435902E+04     1.5459E-04     1.3984E-04    -1.5940E+00
MG BCs: +ve charge blocks (gridpoints):     24435 (   16628956).
MG BCs: -ve charge blocks (gridpoints):      8282 (    1061334).
MG BCs:     Elided blocks (gridpoints):    172685 (  173086415).
MG BCs: Computational effort saved:  99.9829%.
MG BCs: Charge after coarse-graining:           -9.0006771.
MG DL_MG: Calling solver with defect correction order = 8
MG DL_MG: Solver finished
MG Hartree energy from (\int phi*rho dr):              1260.975311
MG Hartree energy from (\int eps (grad phi)^2 dr):     1260.314362
MG Discrepancy due to finite box and discretization:     -0.660948 (  -0.05242%)
MG Correction to account for finite box:                  0.468402
MG Remaining discrepancy, due to discretization:         -0.192546 (  -0.01527%)
      ideal mu1:      -0.723370935308
             Q0:  -11707.273134993273
             G0:      -0.177788954789
   RMS gradient:       0.000064364420
MG BCs: +ve charge blocks (gridpoints):     24432 (   16628391).
MG BCs: -ve charge blocks (gridpoints):      8281 (    1061667).
MG BCs:     Elided blocks (gridpoints):    172688 (  173086647).
MG BCs: Computational effort saved:  99.9829%.
MG BCs: Charge after coarse-graining:           -9.0006771.
MG DL_MG: Calling solver with defect correction order = 8
MG DL_MG: Solver finished
MG Hartree energy from (\int phi*rho dr):              1260.462005
MG Hartree energy from (\int eps (grad phi)^2 dr):     1259.801163
MG Discrepancy due to finite box and discretization:     -0.660842 (  -0.05243%)
MG Correction to account for finite box:                  0.468312
MG Remaining discrepancy, due to discretization:         -0.192530 (  -0.01527%)
     Trial step:       0.458407819890
             Q1:  -11707.330692469142
 Quadratic coef:       0.023942371296
 Linear coef   :      -0.081499847165
           Qmin:  -11707.342491376210
Quadratic minimum step length (  0.780210255682) accepted
    Initial Ne1:    7233.99997792
      Final Ne1:    7234.00000000

=================== Penalty functional idempotency correction ==================
 RMS occupancy error at iteration   1:  0.000226 (step -0.4880 Ne1=   7234.0000)
 RMS occupancy error at iteration   2:  0.000003 (step -0.5000 Ne1=   7234.0000)
            Final RMS occupancy error   :  0.000000 (Ne1=   7234.0000)
               Final occupancy bounds   : [  0.0000,  1.0000]
================================================================================

    3        -1.170727313499E+04     6.4364E-05     5.8225E-05    -2.1878E-01
MG BCs: +ve charge blocks (gridpoints):     24431 (   16627976).
MG BCs: -ve charge blocks (gridpoints):      8282 (    1061929).
MG BCs:     Elided blocks (gridpoints):    172689 (  173086800).
MG BCs: Computational effort saved:  99.9829%.
MG BCs: Charge after coarse-graining:           -9.0006771.
MG DL_MG: Calling solver with defect correction order = 8
MG DL_MG: Solver finished
MG Hartree energy from (\int phi*rho dr):              1260.101424
MG Hartree energy from (\int eps (grad phi)^2 dr):     1259.440657
MG Discrepancy due to finite box and discretization:     -0.660767 (  -0.05244%)
MG Correction to account for finite box:                  0.468248
MG Remaining discrepancy, due to discretization:         -0.192519 (  -0.01528%)
      ideal mu1:      -0.722328910406
             Q0:  -11707.342408177792
             G0:      -0.089722439849
   RMS gradient:       0.000045791074
MG BCs: +ve charge blocks (gridpoints):     24430 (   16627855).
MG BCs: -ve charge blocks (gridpoints):      8283 (    1061940).
MG BCs:     Elided blocks (gridpoints):    172690 (  173086910).
MG BCs: Computational effort saved:  99.9829%.
MG BCs: Charge after coarse-graining:           -9.0006772.
MG DL_MG: Calling solver with defect correction order = 8
MG DL_MG: Solver finished
MG Hartree energy from (\int phi*rho dr):              1260.112129
MG Hartree energy from (\int eps (grad phi)^2 dr):     1259.451610
MG Discrepancy due to finite box and discretization:     -0.660520 (  -0.05242%)
MG Correction to account for finite box:                  0.468150
MG Remaining discrepancy, due to discretization:         -0.192369 (  -0.01527%)
     Trial step:       0.598042207844
             Q1:  -11707.377986410051
 Quadratic coef:       0.018079573761
 Linear coef   :      -0.053657806020
           Qmin:  -11707.382220512211
Quadratic minimum step length (  0.887455456743) accepted
    Initial Ne1:    7233.99998633
      Final Ne1:    7234.00000000

=================== Penalty functional idempotency correction ==================
 RMS occupancy error at iteration   1:  0.000632 (step -0.4591 Ne1=   7234.0000)
 RMS occupancy error at iteration   2:  0.000013 (step -0.4995 Ne1=   7234.0000)
            Final RMS occupancy error   :  0.000000 (Ne1=   7234.0000)
               Final occupancy bounds   : [ -0.0000,  1.0000]
================================================================================

    4        -1.170734240818E+04     4.5791E-05     4.1423E-05    -6.9273E-02
MG BCs: +ve charge blocks (gridpoints):     24426 (   16627825).
MG BCs: -ve charge blocks (gridpoints):      8282 (    1061912).
MG BCs:     Elided blocks (gridpoints):    172694 (  173086968).
MG BCs: Computational effort saved:  99.9829%.
MG BCs: Charge after coarse-graining:           -9.0006772.
MG DL_MG: Calling solver with defect correction order = 8
MG DL_MG: Solver finished
MG Hartree energy from (\int phi*rho dr):              1260.120017
MG Hartree energy from (\int eps (grad phi)^2 dr):     1259.459617
MG Discrepancy due to finite box and discretization:     -0.660400 (  -0.05241%)
MG Correction to account for finite box:                  0.468102
MG Remaining discrepancy, due to discretization:         -0.192297 (  -0.01526%)
      ideal mu1:      -0.722611709626
             Q0:  -11707.381541961688
             G0:      -0.114959848639
   RMS gradient:       0.000052212279
MG BCs: +ve charge blocks (gridpoints):     24428 (   16629755).
MG BCs: -ve charge blocks (gridpoints):      8279 (    1061233).
MG BCs:     Elided blocks (gridpoints):    172692 (  173085717).
MG BCs: Computational effort saved:  99.9829%.
MG BCs: Charge after coarse-graining:           -9.0006768.
MG DL_MG: Calling solver with defect correction order = 8
MG DL_MG: Solver finished
MG Hartree energy from (\int phi*rho dr):              1261.283531
MG Hartree energy from (\int eps (grad phi)^2 dr):     1260.623504
MG Discrepancy due to finite box and discretization:     -0.660026 (  -0.05233%)
MG Correction to account for finite box:                  0.467852
MG Remaining discrepancy, due to discretization:         -0.192174 (  -0.01524%)
     Trial step:       0.728516177386
             Q1:  -11707.424523898517
 Quadratic coef:       0.040768172654
 Linear coef   :      -0.083750109483
           Qmin:  -11707.424553951078
Quadratic minimum step length (  0.748295859795) accepted
    Initial Ne1:    7234.00013441
      Final Ne1:    7234.00000000

=================== Penalty functional idempotency correction ==================
 RMS occupancy error at iteration   1:  0.002107 (step -0.3831 Ne1=   7234.0000)
 RMS occupancy error at iteration   2:  0.000108 (step -0.4936 Ne1=   7234.0000)
 RMS occupancy error at iteration   3:  0.000001 (step -0.5000 Ne1=   7234.0000)
            Final RMS occupancy error   :  0.000000 (Ne1=   7234.0000)
               Final occupancy bounds   : [  0.0000,  1.0000]
================================================================================

    5        -1.170738154196E+04     5.2212E-05     4.7232E-05    -3.9134E-02
MG BCs: +ve charge blocks (gridpoints):     24428 (   16629801).
MG BCs: -ve charge blocks (gridpoints):      8279 (    1061228).
MG BCs:     Elided blocks (gridpoints):    172692 (  173085676).
MG BCs: Computational effort saved:  99.9829%.
MG BCs: Charge after coarse-graining:           -9.0006767.
MG DL_MG: Calling solver with defect correction order = 8
MG DL_MG: Solver finished
MG Hartree energy from (\int phi*rho dr):              1261.317321
MG Hartree energy from (\int eps (grad phi)^2 dr):     1260.657293
MG Discrepancy due to finite box and discretization:     -0.660028 (  -0.05233%)
MG Correction to account for finite box:                  0.467859
MG Remaining discrepancy, due to discretization:         -0.192170 (  -0.01524%)
      ideal mu1:      -0.723696162057
             Q0:  -11707.425693274476
             G0:      -0.094657658063
   RMS gradient:       0.000045395851
MG BCs: +ve charge blocks (gridpoints):     24430 (   16629877).
MG BCs: -ve charge blocks (gridpoints):      8280 (    1061322).
MG BCs:     Elided blocks (gridpoints):    172690 (  173085506).
MG BCs: Computational effort saved:  99.9829%.
MG BCs: Charge after coarse-graining:           -9.0006768.
MG DL_MG: Calling solver with defect correction order = 8
MG DL_MG: Solver finished
MG Hartree energy from (\int phi*rho dr):              1261.202537
MG Hartree energy from (\int eps (grad phi)^2 dr):     1260.542620
MG Discrepancy due to finite box and discretization:     -0.659917 (  -0.05232%)
MG Correction to account for finite box:                  0.467676
MG Remaining discrepancy, due to discretization:         -0.192241 (  -0.01524%)
     Trial step:       0.738339785825
             Q1:  -11707.458837589598
 Quadratic coef:       0.036745199859
 Linear coef   :      -0.069889514981
           Qmin:  -11707.458925807725
Quadratic minimum step length (  0.702162591581) accepted
    Initial Ne1:    7234.00009529
      Final Ne1:    7234.00000000

=================== Penalty functional idempotency correction ==================
 RMS occupancy error at iteration   1:  0.002700 (step -0.3594 Ne1=   7234.0000)
 RMS occupancy error at iteration   2:  0.000161 (step -0.4899 Ne1=   7234.0000)
 RMS occupancy error at iteration   3:  0.000002 (step -0.5000 Ne1=   7234.0000)
            Final RMS occupancy error   :  0.000000 (Ne1=   7234.0000)
               Final occupancy bounds   : [  0.0000,  1.0000]
================================================================================

    6        -1.170742569327E+04     4.5396E-05     4.1066E-05    -4.4151E-02
MG BCs: +ve charge blocks (gridpoints):     24430 (   16629884).
MG BCs: -ve charge blocks (gridpoints):      8280 (    1061308).
MG BCs:     Elided blocks (gridpoints):    172690 (  173085513).
MG BCs: Computational effort saved:  99.9829%.
MG BCs: Charge after coarse-graining:           -9.0006768.
MG DL_MG: Calling solver with defect correction order = 8
MG DL_MG: Solver finished
MG Hartree energy from (\int phi*rho dr):              1261.206487
MG Hartree energy from (\int eps (grad phi)^2 dr):     1260.546555
MG Discrepancy due to finite box and discretization:     -0.659931 (  -0.05233%)
MG Correction to account for finite box:                  0.467696
MG Remaining discrepancy, due to discretization:         -0.192235 (  -0.01524%)
      ideal mu1:      -0.723593901606
             Q0:  -11707.462739285664
             G0:      -0.060750872855
   RMS gradient:       0.000037664566
MG BCs: +ve charge blocks (gridpoints):     24430 (   16627994).
MG BCs: -ve charge blocks (gridpoints):      8282 (    1061830).
MG BCs:     Elided blocks (gridpoints):    172690 (  173086881).
MG BCs: Computational effort saved:  99.9829%.
MG BCs: Charge after coarse-graining:           -9.0006772.
MG DL_MG: Calling solver with defect correction order = 8
MG DL_MG: Solver finished
MG Hartree energy from (\int phi*rho dr):              1260.104807
MG Hartree energy from (\int eps (grad phi)^2 dr):     1259.444803
MG Discrepancy due to finite box and discretization:     -0.660004 (  -0.05238%)
MG Correction to account for finite box:                  0.467726
MG Remaining discrepancy, due to discretization:         -0.192278 (  -0.01526%)
     Trial step:       0.720024011740
             Q1:  -11707.480331998318
 Quadratic coef:       0.026149374535
 Linear coef   :      -0.043742087190
           Qmin:  -11707.481031981242
Quadratic minimum step length (  0.602220008333) accepted
    Initial Ne1:    7233.99999982
      Final Ne1:    7234.00000000

=================== Penalty functional idempotency correction ==================
 RMS occupancy error at iteration   1:  0.000025 (step -0.4984 Ne1=   7234.0000)
            Final RMS occupancy error   :  0.000000 (Ne1=   7234.0000)
               Final occupancy bounds   : [ -0.0000,  1.0000]
================================================================================

    7        -1.170746273929E+04     3.7665E-05     3.4072E-05    -3.7046E-02
MG BCs: +ve charge blocks (gridpoints):     24430 (   16628247).
MG BCs: -ve charge blocks (gridpoints):      8282 (    1061750).
MG BCs:     Elided blocks (gridpoints):    172690 (  173086708).
MG BCs: Computational effort saved:  99.9829%.
MG BCs: Charge after coarse-graining:           -9.0006772.
MG DL_MG: Calling solver with defect correction order = 8
MG DL_MG: Solver finished
MG Hartree energy from (\int phi*rho dr):              1260.283955
MG Hartree energy from (\int eps (grad phi)^2 dr):     1259.623963
MG Discrepancy due to finite box and discretization:     -0.659992 (  -0.05237%)
MG Correction to account for finite box:                  0.467722
MG Remaining discrepancy, due to discretization:         -0.192271 (  -0.01526%)
      ideal mu1:      -0.722747777269
             Q0:  -11707.481034697732
             G0:      -0.047500060818
   RMS gradient:       0.000033301195
MG BCs: +ve charge blocks (gridpoints):     24430 (   16628173).
MG BCs: -ve charge blocks (gridpoints):      8282 (    1061687).
MG BCs:     Elided blocks (gridpoints):    172690 (  173086845).
MG BCs: Computational effort saved:  99.9829%.
MG BCs: Charge after coarse-graining:           -9.0006772.
MG DL_MG: Calling solver with defect correction order = 8
MG DL_MG: Solver finished
MG Hartree energy from (\int phi*rho dr):              1260.131200
MG Hartree energy from (\int eps (grad phi)^2 dr):     1259.471131
MG Discrepancy due to finite box and discretization:     -0.660069 (  -0.05238%)
MG Correction to account for finite box:                  0.467692
MG Remaining discrepancy, due to discretization:         -0.192378 (  -0.01527%)
[...]
MG Correction to account for finite box:                  0.006424
MG Remaining discrepancy, due to discretization:         -0.191752 (  -0.01575%)
     Trial step:       0.366181980882
             Q1:  -11742.443833544501
 Quadratic coef:       0.000000000804
 Linear coef   :      -0.000000000455
           Qmin:  -11742.443833544914
Quadratic minimum step length (  0.103594309486) accepted
    Initial Ne1:    7234.00000000
      Final Ne1:    7234.00000000

=================== Penalty functional idempotency correction ==================
 RMS occupancy error at iteration   1:  0.000000 (step -0.5000 Ne1=   7234.0000)
            Final RMS occupancy error   :  0.000000 (Ne1=   7234.0000)
               Final occupancy bounds   : [ -0.0000,  1.0000]
================================================================================

    7        -1.174244383354E+04     5.3860E-09     4.8723E-09     1.1642E-10

Reusing previously generated solute cavity.
MG BCs: +ve charge blocks (gridpoints):     28906 (   18826494).
MG BCs: -ve charge blocks (gridpoints):      8290 (    1031245).
MG BCs:     Elided blocks (gridpoints):    168214 (  170918966).
MG BCs: Computational effort saved:  99.9805%.
MG BCs: Charge after coarse-graining:           -9.0009363.
MG DL_MG: Calling solver with defect correction order = 8
MG DL_MG: Solver finished
MG Hartree energy from (\int phi*rho dr):              1217.215812
MG Hartree energy from (\int eps (grad phi)^2 dr):     1217.017636
MG Discrepancy due to finite box and discretization:     -0.198176 (  -0.01628%)
MG Correction to account for finite box:                  0.006424
MG Remaining discrepancy, due to discretization:         -0.191752 (  -0.01575%)
      ideal mu1:      -0.481033179656
             Q0:  -11742.443833544850
             G0:      -0.000000001685
   RMS gradient:       0.000000004610

Reusing previously generated solute cavity.
MG BCs: +ve charge blocks (gridpoints):     28906 (   18826494).
MG BCs: -ve charge blocks (gridpoints):      8290 (    1031245).
MG BCs:     Elided blocks (gridpoints):    168214 (  170918966).
MG BCs: Computational effort saved:  99.9805%.
MG BCs: Charge after coarse-graining:           -9.0009363.
MG DL_MG: Calling solver with defect correction order = 8
MG DL_MG: Solver finished
MG Hartree energy from (\int phi*rho dr):              1217.215809
MG Hartree energy from (\int eps (grad phi)^2 dr):     1217.017633
MG Discrepancy due to finite box and discretization:     -0.198176 (  -0.01628%)
MG Correction to account for finite box:                  0.006424
MG Remaining discrepancy, due to discretization:         -0.191752 (  -0.01575%)
     Trial step:       0.194767475354
             Q1:  -11742.443833544618
 Quadratic coef:       0.000000000560
 Linear coef   :      -0.000000000328
           Qmin:  -11742.443833544898
Quadratic minimum step length (  0.057035174927) accepted
    Initial Ne1:    7234.00000000
      Final Ne1:    7234.00000000

=================== Penalty functional idempotency correction ==================
 RMS occupancy error at iteration   1:  0.000000 (step -0.5000 Ne1=   7234.0000)
            Final RMS occupancy error   :  0.000000 (Ne1=   7234.0000)
               Final occupancy bounds   : [  0.0000,  1.0000]
================================================================================

    8        -1.174244383354E+04     4.6104E-09     4.1707E-09     0.0000E+00

Reusing previously generated solute cavity.
MG BCs: +ve charge blocks (gridpoints):     28906 (   18826494).
MG BCs: -ve charge blocks (gridpoints):      8290 (    1031245).
MG BCs:     Elided blocks (gridpoints):    168214 (  170918966).
MG BCs: Computational effort saved:  99.9805%.
MG BCs: Charge after coarse-graining:           -9.0009363.
MG DL_MG: Calling solver with defect correction order = 8
MG DL_MG: Solver finished
MG Hartree energy from (\int phi*rho dr):              1217.215811
MG Hartree energy from (\int eps (grad phi)^2 dr):     1217.017635
MG Discrepancy due to finite box and discretization:     -0.198176 (  -0.01628%)
MG Correction to account for finite box:                  0.006424
MG Remaining discrepancy, due to discretization:         -0.191752 (  -0.01575%)
      ideal mu1:      -0.481033177628
             Q0:  -11742.443833544734
             G0:      -0.000000001781
   RMS gradient:       0.000000004008

Reusing previously generated solute cavity.
MG BCs: +ve charge blocks (gridpoints):     28906 (   18826494).
MG BCs: -ve charge blocks (gridpoints):      8290 (    1031245).
MG BCs:     Elided blocks (gridpoints):    168214 (  170918966).
MG BCs: Computational effort saved:  99.9805%.
MG BCs: Charge after coarse-graining:           -9.0009363.
MG DL_MG: Calling solver with defect correction order = 8
MG DL_MG: Solver finished
MG Hartree energy from (\int phi*rho dr):              1217.215809
MG Hartree energy from (\int eps (grad phi)^2 dr):     1217.017633
MG Discrepancy due to finite box and discretization:     -0.198176 (  -0.01628%)
MG Correction to account for finite box:                  0.006424
MG Remaining discrepancy, due to discretization:         -0.191752 (  -0.01575%)
     Trial step:       0.105397329316
             Q1:  -11742.443833544501
 Quadratic coef:       0.000000000420
 Linear coef   :      -0.000000000188
           Qmin:  -11742.443833544756
Quadratic minimum step length (  0.023540483718) accepted
    Initial Ne1:    7234.00000000
      Final Ne1:    7234.00000000

=================== Penalty functional idempotency correction ==================
 RMS occupancy error at iteration   1:  0.000000 (step -0.5000 Ne1=   7234.0000)
            Final RMS occupancy error   :  0.000000 (Ne1=   7234.0000)
               Final occupancy bounds   : [ -0.0000,  1.0000]
================================================================================

    9        -1.174244383354E+04     4.0076E-09     3.6253E-09     1.1642E-10

Reusing previously generated solute cavity.
MG BCs: +ve charge blocks (gridpoints):     28906 (   18826494).
MG BCs: -ve charge blocks (gridpoints):      8290 (    1031245).
MG BCs:     Elided blocks (gridpoints):    168214 (  170918966).
MG BCs: Computational effort saved:  99.9805%.
MG BCs: Charge after coarse-graining:           -9.0009363.
MG DL_MG: Calling solver with defect correction order = 8
MG DL_MG: Solver finished
MG Hartree energy from (\int phi*rho dr):              1217.215811
MG Hartree energy from (\int eps (grad phi)^2 dr):     1217.017635
MG Discrepancy due to finite box and discretization:     -0.198176 (  -0.01628%)
MG Correction to account for finite box:                  0.006424
MG Remaining discrepancy, due to discretization:         -0.191752 (  -0.01575%)
      ideal mu1:      -0.481033176676
   10        -1.174244383354E+04     3.7334E-09     3.3773E-09     1.1642E-10
Finished density kernel iterations (  10)

Writing density kernel to file "complex_2761.dkn" ... done


>>> Density kernel optimised for the current NGWF basis:
     ~~~~~~~~~~~~~~~~~~~~~~~~~~~~~~~~~~~~~~~~~~~~~~~~~~~~~~~~~~~
     Total energy                =  -1.17424438335446E+04  Eh
     Estimated bandgap           =   9.2195E-02  Eh
     RMS occupancy error         =   2.6803E-16
     [H,K] commutator            =   3.3773E-09
     Occupancy bounds            = [ -0.000:  1.000]
     ~~~~~~~~~~~~~~~~~~~~~~~~~~~~~~~~~~~~~~~~~~~~~~~~~~~~~~~~~~~




################################################################################
########################### NGWF CG iteration  005 #############################
################################################################################
****** Reciprocal space K.E. preconditioning with k_zero =  3.5000 a0^-1 *******

>>> Checking for convergence of NGWFs: 
           ........................................................
           |         *** NGWF optimisation converged ***          |
           | RMS NGWF gradient =    0.00000092932982              |
           | Criteria satisfied:                                  |
           | -> RMS NGWF gradient lower than set threshold.       |
           ========================================================

Reusing previously generated solute cavity.
MG BCs: +ve charge blocks (gridpoints):     28906 (   18826494).
MG BCs: -ve charge blocks (gridpoints):      8290 (    1031245).
MG BCs:     Elided blocks (gridpoints):    168214 (  170918966).
MG BCs: Computational effort saved:  99.9805%.
MG BCs: Charge after coarse-graining:           -9.0009363.
MG DL_MG: Calling solver with defect correction order = 8
MG DL_MG: Solver finished
MG Hartree energy from (\int phi*rho dr):              1217.215811
MG Hartree energy from (\int eps (grad phi)^2 dr):     1217.017635
MG Discrepancy due to finite box and discretization:     -0.198176 (  -0.01628%)
MG Correction to account for finite box:                  0.006424
MG Remaining discrepancy, due to discretization:         -0.191752 (  -0.01575%)

================================================================================
           ---------------- ENERGY COMPONENTS (Eh) ----------------
           | Kinetic                    :     8572.31354997802919 |
           | Pseudo. (local,OBC,corr'd) :    -5074.07242583343941 |
           | Pseudopotential (non-local):     1411.66142652673125 |
           | Hartree (molecular)        :     1217.21581061397569 |
           | Exchange-correlation       :    -3376.29045336947092 |
           | Ion-ion (open BC)          :   834736.30473094666377 |
           | Dispersion Correction      :       -3.28494776565535 |
           | Smeared ion non-self corr. :  -834687.99218496924732 |
           | Smeared ion self corr.     :   -14538.95273137971526 |
           | Solvent cavitation energy  :        2.32461694343369 |
           | Solute-solvent dis-rep en. :       -1.67122523605806 |
           | Total                      :   -11742.44383354482670 |
           --------------------------------------------------------
           ------ LOCAL ENERGY COMPONENTS FROM MATRIX TRACES ------
           | Pseudopotential (local)    :    -5074.07242583344032 |
           | Hartree                    :    -2002.07066161397324 |
           --------------------------------------------------------
           Integrated density           :     7233.99999999899228
           Integrated density tr(KS)    :     7234.00000000000000
================================================================================


                        <<<<< CALCULATION SUMMARY >>>>>                         
|ITER|    RMS GRADIENT   |     TOTAL ENERGY    |   step   |     Epredicted              
   0     0.00004116726489 -11742.37947509216610   0.613534 -11742.43514322071132        
   1     0.00001014745863 -11742.44326005934272   0.086257 -11742.44373558594452        
   2     0.00000453941850 -11742.44381224026438   0.016193 -11742.44383010442834        
   3     0.00000205671451 -11742.44383264065254   0.003375 -11742.44383340500099        
   4     0.00000092932982 -11742.44383354461752  <-- CG                                 

=================== Finished the calculation in solvent ========================
= Adjusting the following parameters: 
= read_denskern: F
= read_tightbox_ngwfs: F
= maxit_pen: 0 (restored to user-specified value)
= restart read filename prefix: ""
= restart write filename prefix: ""
================================================================================

================================================================================
IS: Calculation in solvent completed (NGWFs converged).      

Individual components of total energy in solvent:     hartree           kcal/mol
- Usual non-electrostatic DFT terms:    -12960.31303586596914    -8132719.040389
- Electrostatic fixed charge energy:      1217.21581061397569      763814.436569
- Apolar cavitation energy:                  2.32461694343369        1458.719124
- Apolar dispersion-repulsion energy:       -1.67122523605806       -1048.709646
 -------------------------------------------------------------------------------
- Total energy in solvent:              -11742.44383354461752    -7368494.594343

Components of total energy in solvent:                hartree           kcal/mol
- Usual non-electrostatic DFT terms:    -12960.31303586596914    -8132719.040389
- Electrostatic energy:                   1217.21581061397569      763814.436569
- Apolar energy terms:                       0.65339170737562         410.009478
 -------------------------------------------------------------------------------
- Total energy in solvent:              -11742.44383354461752    -7368494.594343

Calculation of free energy of solvation:              hartree           kcal/mol
- Total energy in solvent:         (+)  -11742.44383354461752    -7368494.594343
- Total energy in vacuum:          (-)  -11738.50492978945840    -7366022.894973
 -------------------------------------------------------------------------------
- Total free energy of solvation:           -3.93890375515912       -2471.699370

Components of polar term in f.e. of solvation:        hartree           kcal/mol
- Electrostatic:                            -4.78235795821888       -3000.974862
- Change in nonelectrostatic DFT terms:      0.19006249568338         119.266014
 -------------------------------------------------------------------------------
- Polar term in f.e. of solvation:          -4.59229546253550       -2881.708848

Components of free energy of solvation:               hartree           kcal/mol
- Polar term in f.e. of solvation: (+)      -4.59229546253550       -2881.708848
- Apolar (cavitation, dis., rep.): (+)       0.65339170737562         410.009478
 -------------------------------------------------------------------------------
- Total free energy of solvation:           -3.93890375515988       -2471.699370
================================================================================


------------------------------ TIMING INFORMATION ------------------------------
AVERAGE TIME:   34273.481s on     60 node(s)                                    
TOTAL TIME:     34273.482s on     60 node(s)                                    
================= AVERAGE TIMINGS FROM ALL NODES (CUMULATIVE) ==================
|| TAG                                    #calls    cpu time   %total  Gflops ||
|| work_imbalance                       :     1        0.00s   0.000%  ------ ||
|| sparse_set_to_garbage                :   206        0.04s   0.000%  ------ ||
|| parallel_prepare_fd_halos_request    :  2193        0.04s   0.000%  ------ ||
|| ngwfs_initialise_from_radial         :     1        0.09s   0.000%  ------ ||
|| basis_extract_function_from_box      :  4035        0.18s   0.001%  ------ ||
|| parallel_prepare_fd_halos_satisfy    :  2193        0.76s   0.002%  ------ ||
|| parallel_prepare_fd_halos_alloc      :  2193        1.89s   0.006%  ------ ||
|| pseudopotentials_nonlocal_mat        :    35        2.52s   0.007%  ------ ||
|| density_init_guess_real              :     1        3.54s   0.010%  ------ ||
|| openbc_locps_radial                  :     1        4.81s   0.014%  ------ ||
|| restart_ngwfs_tightbox_input         :     1        7.89s   0.023%  ------ ||
|| restart_kernel_read                  :     1       10.40s   0.030%  ------ ||
|| parallel_prepare_fd_halos_comms_imbal:  2193       10.93s   0.032%  ------ ||
|| parallel_prepare_fd_halos_clear      :  2193       22.56s   0.066%  ------ ||
|| sparse_init                          :     2       23.59s   0.069%  ------ ||
|| projectors_func_ovlp_box             :    35       30.44s   0.089%  ------ ||
|| parallel_prepare_fd_halos_comms_wait :  2193       30.95s   0.090%  ------ ||
|| palser_mano_kernel_optimise          :     1       31.86s   0.093%  ------ ||
|| function_ops_brappd_ketppd           :    35       32.61s   0.095%  ------ ||
|| projectors_init_fftbox_recip         :   161       36.10s   0.105%  ------ ||
|| basis_copy_function_to_box           : 65876       45.97s   0.134%  ------ ||
|| ngwf_gradient_coeffs                 :    18       52.68s   0.154%  ------ ||
|| pseudo_make_structure_factor         :     2       57.85s   0.169%  ------ ||
|| fourier_apply_box_pair               :  5851       60.13s   0.175% 563.391 ||
|| parallel_prepare_fd_halos            :  2193       67.13s   0.196%  ------ ||
|| sparse_embed_hotelling_invert_embed  :    35       85.89s   0.251%  ------ ||
|| restart_kernel_write                 :    19      118.07s   0.344%  ------ ||
|| finite_difference_derivative         :  2193      151.37s   0.442%  ------ ||
|| projectors_gradient_batch            :   126      167.89s   0.490%  ------ ||
|| integrals_kinetic                    :    35      172.56s   0.503%  ------ ||
|| fourier_apply_cell_backward          :  1463      194.16s   0.566% 102.568 ||
|| sparse_trace                         :  5912      217.51s   0.635%  ------ ||
|| basis_dot_function_with_box          : 10.04M     221.30s   0.646%  ------ ||
|| fourier_apply_cell_forward           :  1461      253.89s   0.741%  78.330 ||
|| openbc_locps_on_grid                 :     2      270.36s   0.789%  ------ ||
|| kernel_purify                        :   558      325.59s   0.950%  ------ ||
|| lnv_gradient_norm                    :   180      461.92s   1.348%  ------ ||
|| hamiltonian_energy_components        :     4      477.32s   1.393%  ------ ||
|| basis_add_function_to_box            : 21.01M     485.85s   1.418%  ------ ||
|| xc_energy_potential                  :   365      521.00s   1.520%  ------ ||
|| kernel_fix                           :   180      566.73s   1.654%  ------ ||
|| integrals_locpot_mat_els_batch       :  1323      813.86s   2.375%  ------ ||
|| ngwf_gradient_build_batch            :   126      851.51s   2.484%  ------ ||
|| restart_ngwfs_tightbox_output        :    16     1097.34s   3.202%  ------ ||
|| density_batch_row_sums               :  2548     1126.04s   3.285%  ------ ||
|| ngwf_gradient_batch                  :   126     1191.79s   3.477%  ------ ||
|| ngwf_gradient_lnv                    :    18     1362.67s   3.976%  ------ ||
|| cell_grid_deposit_box_real           : 42276     1525.12s   4.450%  ------ ||
|| cell_grid_extract_box_real           : 46130     1765.88s   5.152%  ------ ||
|| sparse_product                       :  7447     2004.63s   5.849%  ------ ||
|| density_fftbox_deposit_to_cell       : 40040     2260.79s   6.596%  ------ ||
|| density_fftbox_interpolate_multiply  : 40040     4099.72s  11.962%  ------ ||
|| potential_apply_to_ngwf_batch        :  1323     4102.19s  11.969%  ------ ||
|| integrals_locpot_dbl_grid            :   189     4936.17s  14.402%  ------ ||
|| multigrid_prepare_bound_cond         :   365     5028.87s  14.673%  ------ ||
|| fourier_apply_box                    : 137.4k    5059.66s  14.763% 762.136 ||
|| density_batch_interp_deposit         :  2548     7406.56s  21.610%  ------ ||
|| dl_mg_solver_calls                   :   365     8282.00s  24.164%  ------ ||
|| density_on_dbl_grid                  :   364     8959.09s  26.140%  ------ ||
|| multigrid_calculate_hartree          :   365    13525.44s  39.463%  ------ ||
|| hamiltonian_lhxc_calculate           :   360    22972.11s  67.026%  ------ ||
|| lnv_denskernel_optimise_cg           :    18    28825.87s  84.105%  ------ ||
|| ngwf_cg_optimise                     :     2    33308.73s  97.185%  ------ ||
|| total_time                           :     1    34273.48s 100.000%  ------ ||
================================================================================
Overhead of generating timer report: 
- 0 ms averaging over threads,
- 15 ms ensuring consistency across MPI ranks,
- 1 ms printing in order.

Job completed: 09-03-2020 17:03 (-0000)

Application 39596503 resources: utime ~7203170s, stime ~243441s, Rss ~3634320, inblocks ~345445692, outblocks ~75203667
