 +---------------------------------------------------------------+
 |                                                               |
 |        ####### #     # ####### ####### ####### ######         |
 |        #     # ##    # #          #    #       #     #        |
 |        #     # # #   # #          #    #       #     #        |
 |        #     # #  #  # #####      #    #####   ######         |
 |        #     # #   # # #          #    #       #              |
 |        #     # #    ## #          #    #       #              |
 |        ####### #     # #######    #    ####### #              |
 |                                                               |
 |        Linear-Scaling Ab Initio Total Energy Program          |
 |                                                               |
 |          Release for academic collaborators of ODG            |
 |                                             Version 5.3.2.6.  |
 |                                                               |
 +---------------------------------------------------------------+
 |                                                               |
 |  Authors:                                                     |
 |  Jacek Dziedzic, Peter D. Haynes, Nicholas D. M. Hine,        |
 |  Arash. A. Mostofi, Mike C. Payne and Chris-Kriton Skylaris   |
 |                                                               |
 |  Contributors:                                                |
 |  J. Aarons, L. Andrinopoulos, P. W. Avraam, R. A. Bell,       |
 |  A. Bhandari, G. A. Bramley, R. J. Charlton, S. J. Clark,     |
 |  R. J. Clements, G. C. Constantinescu, F. Corsetti,           |
 |  N. Corsini, O. Dieguez, S. M. M. Dubois, K. K. B. Duff,      |
 |  J. M. Escartin, A. Greco, H. Helal, Q. O. Hill, L. P. Lee,   |
 |  J.-H. Li, E. B. Linscott, G. Moynihan, D. D. O`Regan,        |
 |  O. K. Okan, M. J. S. Phipps, C. J. Pickard,                  |
 |  J. C. A. Prentice, M. I. J. Probert, L. E. Ratcliff,         |
 |  M. Robinson, A. Ruiz Serrano, J. S. Spencer, E. W. Tait,     |
 |  G. Teobaldi, D. Turban, V. Vitale, K. A. Wilkinson,          |
 |  C. Weber, J. C. Womack, N. Yeung and T. J. Zuehlsdorff       |
 |                                                               |
 |                                   Copyright (c) 2004-2019     |
 |                                                               |
 |  Please cite:                                                 |
 |  "Introducing ONETEP: Linear-scaling density functional       |
 |   simulations on parallel computers".                         |
 |   C.-K. Skylaris, P. D. Haynes, A. A. Mostofi, M. C. Payne.   |
 |   J. Chem. Phys. 122 084119 (2005).                           |
 |                                                               |
 |          in all publications arising from your use of ONETEP. |
 |                                                               |
 +---------------------------------------------------------------+
 |                                                               |
 |   ONETEP is based on developments described in the following  |
 |   publications:                                               |
 |                                                               |
 |  "Nonorthogonal generalized Wannier function pseudopotential  |
 |   plane-wave method".                                         |
 |   C.-K. Skylaris, A. A. Mostofi, P. D. Haynes, O. Dieguez,    |
 |   M. C. Payne.                                                |
 |   Phys. Rev. B 66 035119 (2002).                              |
 |                                                               |
 |  "Preconditioned iterative minimization for linear-scaling    |
 |   electronic structure calculations".                         |
 |   A. A. Mostofi, P. D. Haynes, C.-K. Skylaris, M. C. Payne.   |
 |   J. Chem. Phys. 119(17), pp.8842-8848 (2003).                |
 |                                                               |
 |  "Total-energy calculations on a real space grid with         |
 |   localized functions and a plane-wave basis".                |
 |   A. A. Mostofi, C.-K. Skylaris, P. D. Haynes, M. C. Payne.   |
 |   Comput. Phys. Commun. 147, pp.788-802 (2002).               |
 |                                                               |
 |  "Accurate kinetic energy evaluation in electronic structure  |
 |   calculations with localized functions on real space grids"  |
 |   C.-K. Skylaris, A. A. Mostofi, P. D. Haynes, C. J. Pickard, |
 |   M. C. Payne.                                                |
 |   Comput. Phys. Commun. 140, pp.315-322 (2001).               |
 |                                                               |
 |  "Accurate ionic forces and geometry optimization in linear-  |
 |   scaling density-functional theory with local orbitals"      |
 |   N. D. M. Hine, M. Robinson, P. D. Haynes, C.-K. Skylaris,   |
 |   M. C. Payne, and A. A. Mostofi.                             |
 |   Phys. Rev. B 83 195102 (2011).                              |
 |                                                               |
 +---------------------------------------------------------------+

Job started: 27-05-2020 07:41 (+0100)
 
Reading parameters from file "complex_31261.dat" ...... done

If your calculation crashes here, before "Checking processes and threads..."
is displayed, then your stack size is insufficient.
If so, use "ulimit -s unlimited" at runtime.
You can disable this check with "check_stack_size F".

Checking processes and threads...
   Determining the default number of threads...
      No default threads set at compilation time: defaulting to 1.
      OpenMP library call suggests 4 threads.
      Hybrid MPI-OpenMP compilation detected.
      Number of MPI processes > 1.
      OMP_NUM_THREADS environment variable present and
      its value matches the one obtained from the OpenMP library call.
      Using this value as default.
      Default threads: 4
      Default applies to threads_max and threads_num_fftboxes.
      Settings in the input file override this default.
   ... done

   Running with 60 MPI processes.
   There are 6 MPI processes running on the same node as the root process.
   Each MPI process is using: 
               1 threads for simulation cell FFTs.
               1 threads for parallel FFT box operations.
               4 threads for loops over batched FFT box operations.
               4 threads in other parallel regions.
... done

Basic input checks...... done

Reading geometry and species blocks from file "complex_31261.dat" ...
  <species_atomic_set> block not found: NGWF initialisation set to SOLVE
IS: Dielectric excluded regions:
    - NONE.
    
  Number of PPD points along a3 set to 1.  This is 
  the default value, it may have been provided also in the input file.
... done
 Writing xyz coordinates to file "complex_31261.xyz" ... done


--------------------------------------------------------------------------------
---------------------------------- INPUT FILE ----------------------------------
--------------------------------------------------------------------------------

cutoff_energy       : 800 eV                                                    
xc_functional PBE                                                               
task SINGLEPOINT                                                                
write_xyz true                                                                  
output_detail VERBOSE                                                           
ngwf_threshold_orig : 0.000002                                                  
kernel_cutoff       : 1000                                                      
k_zero              : 3.5                                                       
elec_cg_max 0                                                                   
occ_mix 1.0                                                                     
dispersion 1                                                                    
maxit_ngwf_cg 40                                                                
minit_lnv 10                                                                    
maxit_lnv 10                                                                    
write_denskern T                                                                
write_tightbox_ngwfs T                                                          
charge 9                                                                        
is_implicit_solvent T                                                           
is_auto_solvation T                                                             
is_include_apolar T                                                             
is_smeared_ion_rep T                                                            
is_solvent_surf_tension 4.7624E-5 Ha/bohr**2                                    
is_apolar_scaling_factor 0.281075                                               
is_solvation_beta 1.3                                                           
is_density_threshold 0.00035                                                    
is_bulk_permittivity 78.54                                                      
is_dielectric_model fix_initial                                                 
is_smeared_ion_width 0.8                                                        
mg_defco_fd_order 8                                                             
is_bc_coarseness 10                                                             
is_bc_surface_coarseness 1                                                      
fine_grid_scale 2.0                                                             
%block species                                                                  
N   N   7 4 8.0                                                                 
H   H   1 1 8.0                                                                 
C   C   6 4 8.0                                                                 
S   S  16 9 8.0                                                                 
O   O   8 4 8.0                                                                 
%endblock species                                                               
%block species_pot                                                              
N   N_00.recpot                                                                 
H   H_04.recpot                                                                 
C   C_01.recpot                                                                 
S   S_00.recpot                                                                 
O   O_02.recpot                                                                 
%endblock species_pot                                                           
%block lattice_cart                                                             
139.252   0.000   0.000                                                         
0.000 142.425   0.000                                                           
0.000   0.000   162.84                                                          
%endblock lattice_cart                                                          
%block positions_abs                                                            
     Hash =   000001216772450314232840
%endblock positions_abs                                                         

--------------------------------------------------------------------------------
-------------------------------- END INPUT FILE --------------------------------
--------------------------------------------------------------------------------


 
 ESDF WARNING(1): "kernelcutoff" (esdf_physical) has no units. Assume "bohr".
 ESDF WARNING(2): "kzero" (esdf_physical) has no units. Assume "1/bohr".
 ESDF WARNING(3
 ): "issmearedionwidth" (esdf_physical) has no units. Assume "bohr".
<<<<<<<<<<<<<<<<<<<<<<<<<<<<<<<<< Full system >>>>>>>>>>>>>>>>>>>>>>>>>>>>>>>>>>
<<<<<<<<<<<<<<<<<<<<<<<<< Pseudopotential information >>>>>>>>>>>>>>>>>>>>>>>>>>
File: N_00.recpot [ 2001 points up to Gmax=  52.9 (1/bohr)]
  Atomic number:  7;  ionic charge:  5.000000
    Shell 1: l = 0; rc = 1.48 bohr
File: H_04.recpot [ 2001 points up to Gmax=  52.9 (1/bohr)]
  Atomic number:  1;  ionic charge:  1.000000
    Local potential
File: C_01.recpot [ 2001 points up to Gmax=  52.9 (1/bohr)]
  Atomic number:  6;  ionic charge:  4.000000
    Shell 1: l = 0; rc = 1.48 bohr
File: S_00.recpot [ 2001 points up to Gmax=  52.9 (1/bohr)]
  Atomic number: 16;  ionic charge:  6.000000
    Shell 1: l = 0; rc = 1.90 bohr
    Shell 2: l = 2; rc = 1.84 bohr
File: O_02.recpot [ 2001 points up to Gmax=  52.9 (1/bohr)]
  Atomic number:  8;  ionic charge:  6.000000
    Shell 1: l = 0; rc = 1.31 bohr
<<<<<<<<<<<<<<<<<<<<<<<<<<<<<<<<<<<<<<<<>>>>>>>>>>>>>>>>>>>>>>>>>>>>>>>>>>>>>>>>

-------------------------- Atom counting information ---------------------------
Symbol    Natoms    Nngwfs    Nprojs
  N        237       948       237
  H       1318      1318         0
  C        816      3264       816
  S          6        54        36
  O        240       960       240
.......   ......    ......    ......
Totals:   2617      6544      1329
--------------------------------------------------------------------------------

=============================== PSINC grid sizes ===============================
                      Simulation cell:  275 x 280 x 320
                              FFT-box:   99 x  99 x  99
                                  PPD:    5 x   5 x   1
Grid space d1=  0.506370909091a0 (KE cutoff=  29.62556Eh = 806.15239eV)
Grid space d2=  0.508660714286a0 (KE cutoff=  29.35943Eh = 798.91072eV)
Grid space d3=  0.508875000000a0 (KE cutoff=  29.33471Eh = 798.23802eV)
================================================================================

********************* Fourier parallelisation information **********************
       Coarse grid (whole simulation cell) dimensions:    275   280   320
          Real-space ('12') slabs/node (min max mean):      5     6     5
         Recip-space ('23') slabs/node (min max mean):      2     3     2
********************************************************************************

********************* Fourier parallelisation information **********************
       Double grid (whole simulation cell) dimensions:    550   560   640
          Real-space ('12') slabs/node (min max mean):     10    11    10
         Recip-space ('23') slabs/node (min max mean):      4     5     4
********************************************************************************
ONETEP fine grid is 550 x 560 x 640 gridpoints, 139.2520 x 142.4250 x 162.8400 bohr.
FD multigrid is     545 x 553 x 633 gridpoints, 137.9861 x 140.6447 x 161.0589 bohr.


Calculating local pseudopotential in open BC on a radial grid ...
Discrepancy between calculated realspace psloc and -Z/x on [5a0,257.280a0]:
max |rel. diff| # avg |rel. diff| #  avg rel. diff #  f # pseudopotential file
 0.000256370913    0.000003612608   0.000000072509   55  'N_00.recpot'
 0.000395389207    0.000016224277  -0.000000076597   55  'H_04.recpot'
 0.000377360759    0.000017565724   0.000000149252   55  'C_01.recpot'
 0.000469715301    0.000020587835   0.000000455518   55  'S_00.recpot'
 0.000665442002    0.000026079317   0.000000158685   55  'O_02.recpot'
... done

Atom SCF Calculation for N  : Z (AE atom) =   7 : Z (PS atom) =   5
Config String:
Orbitals (num,occ):  2     2.00 3.00
Orbitals   (num,l):  2        0    1
Real-space Grid (nr,dr,rmax): 1203    0.0066555740    8.0000000000
Spherical Bessel Basis (nsws,lmax,cutoff):   47    1  176.3951722778
Confining potential (l,width,scale):  0    3.0000000000  100.0000000000
Confining potential (l,width,scale):  1    3.0000000000  100.0000000000
  1         -4.7312375307   -3.4155304497    7.0523828109   -1.9351020946
  2         -9.7309464766   -2.0532547791    8.2966052865   -2.2494486027
  3         -9.6627394379   -2.1124926340    8.2327997121   -2.2369778124
  4         -9.6814993499   -2.1215521045    8.2229805960   -2.2365178421
  5         -9.6843326483   -2.1250939529    8.2191374534   -2.2362718126
  6         -9.6859628709   -2.1267894855    8.2172963573   -2.2362066344
  7         -9.6867347035   -2.1276425665    8.2163697352   -2.2361903369
  8         -9.6870802100   -2.1280764625    8.2158983890   -2.2361891460
  9         -9.6872290423   -2.1282977424    8.2156580222   -2.2361920435
 10         -9.6872901988   -2.1284107021    8.2155353368   -2.2361953393
 11         -9.6873135296   -2.1284684031    8.2154726809   -2.2361979819
 12         -9.6873212476   -2.1284978948    8.2154406648   -2.2361998431
 13         -9.6873229586   -2.1285129774    8.2154242957   -2.2362010676
 14         -9.6873226456   -2.1285206957    8.2154159216   -2.2362018403
 15         -9.6873218534   -2.1285246479    8.2154116349   -2.2362023142
 16         -9.6873212599   -2.1285262679    8.2154098784   -2.2362025420
 17         -9.6873207834   -2.1285272564    8.2154088068   -2.2362026955
 18         -9.6873204210   -2.1285278596    8.2154081529   -2.2362027982
 19         -9.6873201550   -2.1285282280    8.2154077538   -2.2362028667
 20         -9.6873199645   -2.1285284529    8.2154075102   -2.2362029121
 21         -9.6873198305   -2.1285285903    8.2154073614   -2.2362029421
 22         -9.6873197377   -2.1285286742    8.2154072705   -2.2362029618
Atom SCF converged after  22 iterations to a total energy of     -9.68731974

Atom SCF Calculation for H  : Z (AE atom) =   1 : Z (PS atom) =   1
Config String:
Orbitals (num,occ):  1     1.00
Orbitals   (num,l):  1        0
Real-space Grid (nr,dr,rmax): 1203    0.0066555740    8.0000000000
Spherical Bessel Basis (nsws,lmax,cutoff):   47    0  176.3951722778
Confining potential (l,width,scale):  0    3.0000000000  100.0000000000
  1         -0.3194257691   -0.2393854593    0.2820953124   -0.2424203209
  2         -0.3951823392   -0.2377116493    0.2886404059   -0.2475147891
  3         -0.4317044583   -0.2352244387    0.2921333887   -0.2514046172
  4         -0.4470703708   -0.2341892222    0.2934391879   -0.2531009782
  5         -0.4532132900   -0.2338556667    0.2938388426   -0.2537313520
  6         -0.4556579251   -0.2337612552    0.2939448584   -0.2539550462
  7         -0.4566418315   -0.2337377355    0.2939680120   -0.2540342273
  8         -0.4570437922   -0.2337331116    0.2939708287   -0.2540627372
  9         -0.4572102946   -0.2337328328    0.2939698291   -0.2540732650
 10         -0.4572800424   -0.2337332404    0.2939687193   -0.2540772588
 11         -0.4573095100   -0.2337335791    0.2939680317   -0.2540788122
 12         -0.4573220379   -0.2337337762    0.2939676699   -0.2540794294
 13         -0.4573273880   -0.2337338775    0.2939674931   -0.2540796787
 14         -0.4573296803   -0.2337339266    0.2939674099   -0.2540797808
 15         -0.4573306647   -0.2337339495    0.2939673718   -0.2540798230
 16         -0.4573310882   -0.2337339601    0.2939673545   -0.2540798406
 17         -0.4573312706   -0.2337339649    0.2939673467   -0.2540798479
 18         -0.4573313493   -0.2337339670    0.2939673433   -0.2540798510
Atom SCF converged after  18 iterations to a total energy of     -0.45733135

Atom SCF Calculation for C  : Z (AE atom) =   6 : Z (PS atom) =   4
Config String:
Orbitals (num,occ):  2     2.00 2.00
Orbitals   (num,l):  2        0    1
Real-space Grid (nr,dr,rmax): 1203    0.0066555740    8.0000000000
Spherical Bessel Basis (nsws,lmax,cutoff):   47    1  176.3951722778
Confining potential (l,width,scale):  0    3.0000000000  100.0000000000
Confining potential (l,width,scale):  1    3.0000000000  100.0000000000
  1         -5.2976922011   -1.3069684169    4.5135249990   -1.4493313817
  2         -5.3721716256   -1.3429755895    4.4750154450   -1.4361613026
  3         -5.3809959565   -1.3617365618    4.4541655428   -1.4305930207
  4         -5.3918938866   -1.3667928461    4.4484735100   -1.4294652294
  5         -5.3956096428   -1.3688539142    4.4461376126   -1.4290734646
  6         -5.3968271862   -1.3696852393    4.4451910874   -1.4289366866
  7         -5.3972028401   -1.3700178062    4.4448112275   -1.4288900460
  8         -5.3973067903   -1.3701500158    4.4446598370   -1.4288749220
  9         -5.3973286940   -1.3702023868    4.4445997329   -1.4288704293
 10         -5.3973289850   -1.3702230869    4.4445759233   -1.4288693188
 11         -5.3973254264   -1.3702312560    4.4445665049   -1.4288691775
 12         -5.3973224003   -1.3702344755    4.4445627836   -1.4288692549
 13         -5.3973208708   -1.3702354890    4.4445616088   -1.4288693270
 14         -5.3973198783   -1.3702360102    4.4445610034   -1.4288693814
 15         -5.3973192535   -1.3702362780    4.4445606917   -1.4288694190
 16         -5.3973188684   -1.3702364155    4.4445605313   -1.4288694437
 17         -5.3973186349   -1.3702364860    4.4445604489   -1.4288694595
 18         -5.3973184951   -1.3702365221    4.4445604065   -1.4288694693
 19         -5.3973184122   -1.3702365405    4.4445603848   -1.4288694753
Atom SCF converged after  19 iterations to a total energy of     -5.39731841

Atom SCF Calculation for S  : Z (AE atom) =  16 : Z (PS atom) =   6
Config String:
Orbitals (num,occ):  3     2.00 4.00 0.00
Orbitals   (num,l):  3        0    1    2
Real-space Grid (nr,dr,rmax): 1203    0.0066555740    8.0000000000
Spherical Bessel Basis (nsws,lmax,cutoff):   47    2  176.3951722778
Confining potential (l,width,scale):  0    3.0000000000  100.0000000000
Confining potential (l,width,scale):  1    3.0000000000  100.0000000000
Confining potential (l,width,scale):  2    3.0000000000  100.0000000000
  1        -12.4735062396   -1.0328741412   10.1554312477   -2.4512393157
  2         -9.9458301913   -2.4607392455    8.3041325857   -2.0306994528
  3        -10.1450417646   -2.2931184565    8.4831893826   -2.0812538287
  4        -10.1528335592   -2.2733105793    8.5050388867   -2.0896035179
  5        -10.1571940363   -2.2633716629    8.5160794258   -2.0939370707
  6        -10.1594380571   -2.2584938667    8.5215163935   -2.0961289008
  7        -10.1605856507   -2.2561081821    8.5241804044   -2.0972291378
  8        -10.1611799191   -2.2549395235    8.5254868240   -2.0977806248
  9        -10.1614918752   -2.2543658586    8.5261285885   -2.0980571586
 10        -10.1616572884   -2.2540839121    8.5264441898   -2.0981959233
 11        -10.1617455602   -2.2539453058    8.5265994231   -2.0982656006
 12        -10.1617928447   -2.2538772062    8.5266757320   -2.0983006047
 13        -10.1618182292   -2.2538437891    8.5267131983   -2.0983181961
 14        -10.1618318741   -2.2538274201    8.5267315620   -2.0983270391
 15        -10.1618392144   -2.2538194197    8.5267405433   -2.0983314852
 16        -10.1618431651   -2.2538155200    8.5267449245   -2.0983337210
 17        -10.1618452923   -2.2538136252    8.5267470551   -2.0983348455
 18        -10.1618464380   -2.2538127080    8.5267480875   -2.0983354110
 19        -10.1618470552   -2.2538122659    8.5267485856   -2.0983356955
 20        -10.1618473878   -2.2538120540    8.5267488248   -2.0983358386
 21        -10.1618475670   -2.2538119530    8.5267489389   -2.0983359106
 22        -10.1618476637   -2.2538119053    8.5267489929   -2.0983359468
Atom SCF converged after  22 iterations to a total energy of    -10.16184766

Atom SCF Calculation for O  : Z (AE atom) =   8 : Z (PS atom) =   6
Config String:
Orbitals (num,occ):  2     2.00 4.00
Orbitals   (num,l):  2        0    1
Real-space Grid (nr,dr,rmax): 1203    0.0066555740    8.0000000000
Spherical Bessel Basis (nsws,lmax,cutoff):   47    1  176.3951722778
Confining potential (l,width,scale):  0    3.0000000000  100.0000000000
Confining potential (l,width,scale):  1    3.0000000000  100.0000000000
  1         -1.8735052164   -7.5539365035   10.1554312477   -2.4512393157
  2        -16.0318313751   -3.1285771268   13.6395848164   -3.2358799643
  3        -15.9524020423   -3.0762819706   13.6967272503   -3.2536856837
  4        -15.8521515939   -3.0781493909   13.6951909330   -3.2561700440
  5        -15.8357139793   -3.0748501933   13.6988803334   -3.2580493133
  6        -15.8246052853   -3.0740779781   13.6997881576   -3.2588327446
  7        -15.8189019501   -3.0737449687   13.7001869911   -3.2592378801
  8        -15.8159785510   -3.0736026016   13.7003615168   -3.2594475790
  9        -15.8144776168   -3.0735437994   13.7004360379   -3.2595560735
 10        -15.8137058024   -3.0735207882   13.7004667348   -3.2596122456
 11        -15.8133083127   -3.0735125946   13.7004786868   -3.2596413656
 12        -15.8131032938   -3.0735102195   13.7004828997   -3.2596564858
 13        -15.8129973902   -3.0735099286   13.7004840891   -3.2596643505
 14        -15.8129426040   -3.0735102506   13.7004842061   -3.2596684489
 15        -15.8129142203   -3.0735106556   13.7004840157   -3.2596705887
 16        -15.8128994940   -3.0735109855   13.7004837906   -3.2596717080
 17        -15.8128918425   -3.0735112169   13.7004836103   -3.2596722946
 18        -15.8128878614   -3.0735113674   13.7004834848   -3.2596726026
 19        -15.8128857871   -3.0735114608   13.7004834035   -3.2596727646
 20        -15.8128847048   -3.0735115170   13.7004833533   -3.2596728500
 21        -15.8128841394   -3.0735115501   13.7004833231   -3.2596728951
 22        -15.8128838436   -3.0735115693   13.7004833054   -3.2596729190
 23        -15.8128836887   -3.0735115802   13.7004832951   -3.2596729316
 24        -15.8128836074   -3.0735115864   13.7004832893   -3.2596729383
Atom SCF converged after  24 iterations to a total energy of    -15.81288361

========================== Calculation in vacuum ==============================
= Adjusting the following parameters: 
= is_implicit_solvent: F
= is_include_apolar: F
= write_denskern: T
= write_tightbox_ngwfs: T
= restart read filename prefix: ""
= restart write filename prefix: "vacuum_"
===============================================================================

Determining parallel strategy ...
... using space-filling curve
... NGWF load balancing: max    110;  min    109;  average    109
... Projector load balancing: max     26;  min     21;  average     22
... done
Calculating direct Ion-Ion energy ...
Ion-Ion Energy        :    840531.43960858834907
======================= Empirical dispersion information =======================
Model : Elstner
Dispersion Correction Energy: -0.33142388E+01 Hartree
================================================================================
Basis initialisation ...... NGWF spheres initialised
... Projector spheres initialised
... NGWF tight boxes initialised
... Tight-boxes gathered
... NGWF basis size (local,global):    1386819  83210256
... Nonlocal pseudopotential projector initialisation
... done

========================== Sparse matrix information ===========================
                        Overlap matrix filling:   6.78%
                        Density kernel filling: 100.00%
              NGWF-Proj overlap matrix filling:   1.79%
                    Hamiltonian matrix filling:   7.70%
                  NGWF diagonal matrix filling:   0.05%
                             KS matrix filling: 100.00% 
                           KSKS matrix filling: 100.00% 
================================================================================

Sparse matrix initialisation ... done

Generating smeared ion density ... done
Smeared ion self correction:     -14538.952731
Smeared ion non-self correction: -840482.989419
NGWF initialisation ...... done
============ Calculation of NGWF S^-1 using Hotelling algorithm ================ 
         Iteration  |  Frobenius norm and Maximum abs value    (of I-S*S_n^-1)   
               1       0.78751743E+02     0.98285989E+00
               2       0.76921685E+02     0.96616460E+00
               3       0.73949512E+02     0.93402286E+00
               4       0.69709363E+02     0.87477490E+00
               5       0.64411519E+02     0.77211433E+00
               6       0.58442056E+02     0.70748492E+00
               7       0.52419048E+02     0.67289263E+00
               8       0.46851485E+02     0.64517750E+00
               9       0.40816328E+02     0.60640742E+00
              10       0.32620109E+02     0.53972582E+00
              11       0.22086936E+02     0.43192632E+00
              12       0.11422631E+02     0.28588866E+00
              13       0.38416992E+01     0.13076234E+00
              14       0.62944934E+00     0.35512371E-01
              15       0.31791678E-01     0.34465999E-02
              16       0.19259089E-03     0.34074722E-04
              17       0.13584831E-07     0.33631469E-08
              18       0.10113385E-12     0.59952043E-14
================================================================================
Calculating local pseudopotential in open BC on the fine real space grid ...
... done

MG BCs: +ve charge blocks (gridpoints):     19946 (   15654384).
MG BCs: -ve charge blocks (gridpoints):      7876 (    1061920).
MG BCs:     Elided blocks (gridpoints):    177174 (  174060401).
MG BCs: Computational effort saved:  99.9854%.
MG BCs: Charge after coarse-graining:           -9.0002217.
MG DL_MG: Calling solver with defect correction order = 8
MG DL_MG: Solver finished
MG Hartree energy from (\int phi*rho dr):              1471.598729
MG Hartree energy from (\int eps (grad phi)^2 dr):     1470.974865
MG Discrepancy due to finite box and discretization:     -0.623864 (  -0.04239%)
MG Correction to account for finite box:                  0.463454
MG Remaining discrepancy, due to discretization:         -0.160410 (  -0.01090%)
Up spin density kernel initialisation ... 
======= Optimisation of K by Palser-Manolopoulos canonical purification ======== 
         Iteration  |  Band structure energy |    c_n   
               1       -2595.29211057904467    0.5275062
               2       -2772.13484755125000    0.5175095
               3       -2954.04829860086511    0.5154845
               4       -3106.74726424729533    0.5285568
               5       -3201.41429811913304    0.5637797
               6       -3241.42669914277758    0.6088619
               7       -3255.07366244387049    0.6226341
               8       -3260.94254764476682    0.6227622
               9       -3263.79364522422838    0.6383380
              10       -3264.99211623933843    0.6660648
              11       -3265.46568260431923    0.6935452
              12       -3265.66828522774540    0.7097218
              13       -3265.76745934070550    0.6922676
              14       -3265.82856088892549    0.6397331
              15       -3265.87120950581630    0.5603920
              16       -3265.89756186479735    0.4720986
              17       -3265.90557475031937    0.4413192
              18       -3265.90642762578864    0.4402680
              19       -3265.90707820966236    0.4287418
              20       -3265.90747957769736    0.4465755
              21       -3265.90775501612552    0.4799420
              22       -3265.90792371469252    0.4972499
              23       -3265.90797219068099    0.4999503
              24       -3265.90797533893328    0.5000003
              25       -3265.90797535144975    0.5000003
Termination criterion satisfied: band energy change below threshold.
Final occupancy bounds: [    0.00000000000000:    1.00000000000000]
Closest occupancy to 0.5:     1.00000000000000
================================================================================
... done

Writing density kernel to file "complex_31261.vacuum_dkn" ... done

>>> Optimising kernel for current NGWFs:
   Initial electron number for spin 1:    7234.00000000
     Final electron number for spin 1:    7234.00000000

=================== Penalty functional idempotency correction ==================
 RMS occupancy error at iteration   1:  0.000000 (step -0.5000 Ne1=   7234.0000)
            Final RMS occupancy error   :  0.000000 (Ne1=   7234.0000)
               Final occupancy bounds   : [  0.0000,  1.0000]
================================================================================

................................................................................
<<<<<<<<<<<<<< LNV (Original version) density kernel optimisation >>>>>>>>>>>>>>
~~~~~~~~~~~~~~~~~~~~~~~~~~~~~~~~~~~~~~~~~~~~~~~~~~~~~~~~~~~~~~~~~~~~~~~~~~~~~~~~
   iter  |      energy (Eh)       | rms gradient |  commutator  |   dE (Eh)
MG BCs: +ve charge blocks (gridpoints):     30651 (   16875517).
MG BCs: -ve charge blocks (gridpoints):      8239 (    1093595).
MG BCs:     Elided blocks (gridpoints):    166458 (  172807593).
MG BCs: Computational effort saved:  99.9796%.
MG BCs: Charge after coarse-graining:           -9.0009460.
MG DL_MG: Calling solver with defect correction order = 8
MG DL_MG: Solver finished
MG Hartree energy from (\int phi*rho dr):              1424.544942
MG Hartree energy from (\int eps (grad phi)^2 dr):     1423.871515
MG Discrepancy due to finite box and discretization:     -0.673426 (  -0.04727%)
MG Correction to account for finite box:                  0.468261
MG Remaining discrepancy, due to discretization:         -0.205165 (  -0.01440%)
      ideal mu1:      -0.723251330114
             Q0:  -11571.005610208376
             G0:    -140.236399664715
   RMS gradient:       0.001809618744
MG BCs: +ve charge blocks (gridpoints):     30615 (   16956623).
MG BCs: -ve charge blocks (gridpoints):      8128 (    1074356).
MG BCs:     Elided blocks (gridpoints):    166494 (  172745726).
MG BCs: Computational effort saved:  99.9797%.
MG BCs: Charge after coarse-graining:           -9.0009674.
MG DL_MG: Calling solver with defect correction order = 8
MG DL_MG: Solver finished
MG Hartree energy from (\int phi*rho dr):              1451.350173
MG Hartree energy from (\int eps (grad phi)^2 dr):     1450.693818
MG Discrepancy due to finite box and discretization:     -0.656355 (  -0.04522%)
MG Correction to account for finite box:                  0.467459
MG Remaining discrepancy, due to discretization:         -0.188896 (  -0.01302%)
     Trial step:       0.500000000000
             Q1:  -11581.746622404549
 Quadratic coef:      59.377187636184
 Linear coef   :     -70.118199832358
           Qmin:  -11591.706160973155
Quadratic minimum step length (  0.295223648272) accepted
    Initial Ne1:    7234.00000000
      Final Ne1:    7234.00000000

=================== Penalty functional idempotency correction ==================
 RMS occupancy error at iteration   1:  0.003231 (step -0.4891 Ne1=   7234.0000)
 RMS occupancy error at iteration   2:  0.000024 (step -0.5000 Ne1=   7234.0000)
            Final RMS occupancy error   :  0.000000 (Ne1=   7234.0000)
               Final occupancy bounds   : [  0.0000,  1.0000]
================================================================================

    1        -1.157100561021E+04     1.8096E-03     1.6370E-03
MG BCs: +ve charge blocks (gridpoints):     30621 (   16924853).
MG BCs: -ve charge blocks (gridpoints):      8198 (    1082751).
MG BCs:     Elided blocks (gridpoints):    166486 (  172769101).
MG BCs: Computational effort saved:  99.9797%.
MG BCs: Charge after coarse-graining:           -9.0009586.
MG DL_MG: Calling solver with defect correction order = 8
MG DL_MG: Solver finished
MG Hartree energy from (\int phi*rho dr):              1432.597691
MG Hartree energy from (\int eps (grad phi)^2 dr):     1431.935325
MG Discrepancy due to finite box and discretization:     -0.662366 (  -0.04624%)
MG Correction to account for finite box:                  0.467670
MG Remaining discrepancy, due to discretization:         -0.194696 (  -0.01359%)
      ideal mu1:      -0.761768853622
             Q0:  -11592.075828829082
             G0:     -11.352245247363
   RMS gradient:       0.000511567198
MG BCs: +ve charge blocks (gridpoints):     30632 (   16941526).
MG BCs: -ve charge blocks (gridpoints):      8160 (    1077689).
MG BCs:     Elided blocks (gridpoints):    166475 (  172757490).
MG BCs: Computational effort saved:  99.9797%.
MG BCs: Charge after coarse-graining:           -9.0009629.
MG DL_MG: Calling solver with defect correction order = 8
MG DL_MG: Solver finished
MG Hartree energy from (\int phi*rho dr):              1438.168816
MG Hartree energy from (\int eps (grad phi)^2 dr):     1437.510176
MG Discrepancy due to finite box and discretization:     -0.658640 (  -0.04580%)
MG Correction to account for finite box:                  0.467246
MG Remaining discrepancy, due to discretization:         -0.191394 (  -0.01331%)
     Trial step:       0.384202842436
             Q1:  -11594.735641542706
 Quadratic coef:       1.701752178446
 Linear coef   :      -4.361564892070
           Qmin:  -11594.870484911895
Quadratic minimum step length (  0.492353014213) accepted
    Initial Ne1:    7233.99992300
      Final Ne1:    7234.00000000

=================== Penalty functional idempotency correction ==================
 RMS occupancy error at iteration   1:  0.001674 (step -0.4937 Ne1=   7234.0000)
 RMS occupancy error at iteration   2:  0.000008 (step -0.5000 Ne1=   7234.0000)
            Final RMS occupancy error   :  0.000000 (Ne1=   7234.0000)
               Final occupancy bounds   : [  0.0000,  1.0000]
================================================================================

    2        -1.159207582883E+04     5.1157E-04     4.6277E-04    -2.1070E+01
MG BCs: +ve charge blocks (gridpoints):     30636 (   16946183).
MG BCs: -ve charge blocks (gridpoints):      8154 (    1076265).
MG BCs:     Elided blocks (gridpoints):    166471 (  172754257).
MG BCs: Computational effort saved:  99.9797%.
MG BCs: Charge after coarse-graining:           -9.0009642.
MG DL_MG: Calling solver with defect correction order = 8
MG DL_MG: Solver finished
MG Hartree energy from (\int phi*rho dr):              1439.775747
MG Hartree energy from (\int eps (grad phi)^2 dr):     1439.118085
MG Discrepancy due to finite box and discretization:     -0.657662 (  -0.04568%)
MG Correction to account for finite box:                  0.467137
MG Remaining discrepancy, due to discretization:         -0.190525 (  -0.01323%)
      ideal mu1:      -0.782945047013
             Q0:  -11594.902561639436
             G0:      -1.802527559613
   RMS gradient:       0.000203966139
MG BCs: +ve charge blocks (gridpoints):     30636 (   16945645).
MG BCs: -ve charge blocks (gridpoints):      8157 (    1077167).
MG BCs:     Elided blocks (gridpoints):    166471 (  172753893).
MG BCs: Computational effort saved:  99.9797%.
MG BCs: Charge after coarse-graining:           -9.0009639.
MG DL_MG: Calling solver with defect correction order = 8
MG DL_MG: Solver finished
MG Hartree energy from (\int phi*rho dr):              1437.574877
MG Hartree energy from (\int eps (grad phi)^2 dr):     1436.917576
MG Discrepancy due to finite box and discretization:     -0.657300 (  -0.04572%)
MG Correction to account for finite box:                  0.467000
MG Remaining discrepancy, due to discretization:         -0.190300 (  -0.01324%)
     Trial step:       0.434929221302
             Q1:  -11595.352395738242
 Quadratic coef:       0.334137809072
 Linear coef   :      -0.783971907879
           Qmin:  -11595.362410791235
Quadratic minimum step length (  0.510227041297) accepted
    Initial Ne1:    7233.99997090
      Final Ne1:    7234.00000000

=================== Penalty functional idempotency correction ==================
 RMS occupancy error at iteration   1:  0.000558 (step -0.4978 Ne1=   7234.0000)
 RMS occupancy error at iteration   2:  0.000001 (step -0.5000 Ne1=   7234.0000)
            Final RMS occupancy error   :  0.000000 (Ne1=   7234.0000)
               Final occupancy bounds   : [  0.0000,  1.0000]
================================================================================

    3        -1.159490256164E+04     2.0397E-04     1.8451E-04    -2.8267E+00
MG BCs: +ve charge blocks (gridpoints):     30635 (   16945503).
MG BCs: -ve charge blocks (gridpoints):      8157 (    1077416).
MG BCs:     Elided blocks (gridpoints):    166472 (  172753786).
MG BCs: Computational effort saved:  99.9797%.
MG BCs: Charge after coarse-graining:           -9.0009639.
MG DL_MG: Calling solver with defect correction order = 8
MG DL_MG: Solver finished
MG Hartree energy from (\int phi*rho dr):              1437.201973
MG Hartree energy from (\int eps (grad phi)^2 dr):     1436.544727
MG Discrepancy due to finite box and discretization:     -0.657246 (  -0.04573%)
MG Correction to account for finite box:                  0.466977
MG Remaining discrepancy, due to discretization:         -0.190269 (  -0.01324%)
      ideal mu1:      -0.783575317668
             Q0:  -11595.366367074545
             G0:      -0.421860910929
   RMS gradient:       0.000098786559
MG BCs: +ve charge blocks (gridpoints):     30636 (   16946374).
MG BCs: -ve charge blocks (gridpoints):      8159 (    1077178).
MG BCs:     Elided blocks (gridpoints):    166471 (  172753153).
MG BCs: Computational effort saved:  99.9797%.
MG BCs: Charge after coarse-graining:           -9.0009640.
MG DL_MG: Calling solver with defect correction order = 8
MG DL_MG: Solver finished
MG Hartree energy from (\int phi*rho dr):              1438.346023
MG Hartree energy from (\int eps (grad phi)^2 dr):     1437.688698
MG Discrepancy due to finite box and discretization:     -0.657324 (  -0.04570%)
MG Correction to account for finite box:                  0.466932
MG Remaining discrepancy, due to discretization:         -0.190392 (  -0.01324%)
     Trial step:       0.471076055175
             Q1:  -11595.462102168007
 Quadratic coef:       0.102993480290
 Linear coef   :      -0.198728573753
           Qmin:  -11595.462230050323
Quadratic minimum step length (  0.454476692652) accepted
    Initial Ne1:    7233.99999381
      Final Ne1:    7234.00000000

=================== Penalty functional idempotency correction ==================
 RMS occupancy error at iteration   1:  0.000179 (step -0.4993 Ne1=   7234.0000)
            Final RMS occupancy error   :  0.000000 (Ne1=   7234.0000)
               Final occupancy bounds   : [ -0.0000,  1.0000]
================================================================================

    4        -1.159536636707E+04     9.8787E-05     8.9364E-05    -4.6381E-01
MG BCs: +ve charge blocks (gridpoints):     30636 (   16946339).
MG BCs: -ve charge blocks (gridpoints):      8159 (    1077183).
MG BCs:     Elided blocks (gridpoints):    166471 (  172753183).
MG BCs: Computational effort saved:  99.9797%.
MG BCs: Charge after coarse-graining:           -9.0009640.
MG DL_MG: Calling solver with defect correction order = 8
MG DL_MG: Solver finished
MG Hartree energy from (\int phi*rho dr):              1438.305656
MG Hartree energy from (\int eps (grad phi)^2 dr):     1437.648335
MG Discrepancy due to finite box and discretization:     -0.657321 (  -0.04570%)
MG Correction to account for finite box:                  0.466934
MG Remaining discrepancy, due to discretization:         -0.190388 (  -0.01324%)
      ideal mu1:      -0.783988939555
             Q0:  -11595.462622938328
             G0:      -0.104206723910
   RMS gradient:       0.000049229731
MG BCs: +ve charge blocks (gridpoints):     30636 (   16946492).
MG BCs: -ve charge blocks (gridpoints):      8157 (    1077039).
MG BCs:     Elided blocks (gridpoints):    166471 (  172753174).
MG BCs: Computational effort saved:  99.9797%.
MG BCs: Charge after coarse-graining:           -9.0009639.
MG DL_MG: Calling solver with defect correction order = 8
MG DL_MG: Solver finished
MG Hartree energy from (\int phi*rho dr):              1438.675730
MG Hartree energy from (\int eps (grad phi)^2 dr):     1438.018279
MG Discrepancy due to finite box and discretization:     -0.657451 (  -0.04570%)
MG Correction to account for finite box:                  0.466932
MG Remaining discrepancy, due to discretization:         -0.190519 (  -0.01324%)
     Trial step:       0.462701942446
             Q1:  -11595.487996790442
 Quadratic coef:       0.022842801456
 Linear coef   :      -0.048216653569
           Qmin:  -11595.488066902435
Quadratic minimum step length (  0.488336321349) accepted
    Initial Ne1:    7234.00153658
      Final Ne1:    7234.00000000

=================== Penalty functional idempotency correction ==================
 RMS occupancy error at iteration   1:  0.000064 (step -0.4997 Ne1=   7234.0000)
            Final RMS occupancy error   :  0.000000 (Ne1=   7234.0000)
               Final occupancy bounds   : [ -0.0000,  1.0000]
================================================================================

    5        -1.159546262294E+04     4.9230E-05     4.4534E-05    -9.6256E-02
MG BCs: +ve charge blocks (gridpoints):     30636 (   16946521).
MG BCs: -ve charge blocks (gridpoints):      8157 (    1077020).
MG BCs:     Elided blocks (gridpoints):    166471 (  172753164).
MG BCs: Computational effort saved:  99.9797%.
MG BCs: Charge after coarse-graining:           -9.0009639.
MG DL_MG: Calling solver with defect correction order = 8
MG DL_MG: Solver finished
MG Hartree energy from (\int phi*rho dr):              1438.696290
MG Hartree energy from (\int eps (grad phi)^2 dr):     1438.038832
MG Discrepancy due to finite box and discretization:     -0.657458 (  -0.04570%)
MG Correction to account for finite box:                  0.466932
MG Remaining discrepancy, due to discretization:         -0.190526 (  -0.01324%)
      ideal mu1:      -0.783927180835
             Q0:  -11595.488114363281
             G0:      -0.030639865990
   RMS gradient:       0.000026716857
MG BCs: +ve charge blocks (gridpoints):     30636 (   16946151).
MG BCs: -ve charge blocks (gridpoints):      8158 (    1077227).
MG BCs:     Elided blocks (gridpoints):    166471 (  172753327).
MG BCs: Computational effort saved:  99.9797%.
MG BCs: Charge after coarse-graining:           -9.0009637.
MG DL_MG: Calling solver with defect correction order = 8
MG DL_MG: Solver finished
MG Hartree energy from (\int phi*rho dr):              1438.101499
MG Hartree energy from (\int eps (grad phi)^2 dr):     1437.444049
MG Discrepancy due to finite box and discretization:     -0.657450 (  -0.04572%)
MG Correction to account for finite box:                  0.466932
MG Remaining discrepancy, due to discretization:         -0.190518 (  -0.01325%)
     Trial step:       0.475346362619
             Q1:  -11595.497540165205
 Quadratic coef:       0.005138746927
 Linear coef   :      -0.014564548850
           Qmin:  -11595.498434295661
Quadratic minimum step length (  0.673627775191) accepted
    Initial Ne1:    7234.00092502
      Final Ne1:    7234.00000000

=================== Penalty functional idempotency correction ==================
 RMS occupancy error at iteration   1:  0.000037 (step -0.4998 Ne1=   7234.0000)
            Final RMS occupancy error   :  0.000000 (Ne1=   7234.0000)
               Final occupancy bounds   : [ -0.0000,  1.0000]
================================================================================

    6        -1.159548811436E+04     2.6717E-05     2.4169E-05    -2.5491E-02
MG BCs: +ve charge blocks (gridpoints):     30634 (   16946022).
MG BCs: -ve charge blocks (gridpoints):      8159 (    1077305).
MG BCs:     Elided blocks (gridpoints):    166473 (  172753378).
MG BCs: Computational effort saved:  99.9797%.
MG BCs: Charge after coarse-graining:           -9.0009637.
MG DL_MG: Calling solver with defect correction order = 8
MG DL_MG: Solver finished
MG Hartree energy from (\int phi*rho dr):              1437.852817
MG Hartree energy from (\int eps (grad phi)^2 dr):     1437.195370
MG Discrepancy due to finite box and discretization:     -0.657447 (  -0.04572%)
MG Correction to account for finite box:                  0.466932
MG Remaining discrepancy, due to discretization:         -0.190515 (  -0.01325%)
      ideal mu1:      -0.783655973478
             Q0:  -11595.498443806195
             G0:      -0.015843947772
   RMS gradient:       0.000019234833
MG BCs: +ve charge blocks (gridpoints):     30636 (   16946446).
MG BCs: -ve charge blocks (gridpoints):      8159 (    1077093).
MG BCs:     Elided blocks (gridpoints):    166471 (  172753166).
MG BCs: Computational effort saved:  99.9797%.
MG BCs: Charge after coarse-graining:           -9.0009638.
MG DL_MG: Calling solver with defect correction order = 8
MG DL_MG: Solver finished
MG Hartree energy from (\int phi*rho dr):              1438.376153
MG Hartree energy from (\int eps (grad phi)^2 dr):     1437.718744
MG Discrepancy due to finite box and discretization:     -0.657409 (  -0.04570%)
MG Correction to account for finite box:                  0.466921
MG Remaining discrepancy, due to discretization:         -0.190489 (  -0.01324%)
     Trial step:       0.565867928669
             Q1:  -11595.502223756630
 Quadratic coef:       0.005185631473
 Linear coef   :      -0.008965581908
           Qmin:  -11595.502319016927
Quadratic minimum step length (  0.489172368863) accepted
    Initial Ne1:    7234.00011545
      Final Ne1:    7234.00000000

=================== Penalty functional idempotency correction ==================
 RMS occupancy error at iteration   1:  0.000002 (step -0.5000 Ne1=   7234.0000)
            Final RMS occupancy error   :  0.000000 (Ne1=   7234.0000)
               Final occupancy bounds   : [  0.0000,  1.0000]
================================================================================

    7        -1.159549844381E+04     1.9235E-05     1.7400E-05    -1.0329E-02
MG BCs: +ve charge blocks (gridpoints):     30635 (   16946416).
MG BCs: -ve charge blocks (gridpoints):      8158 (    1077113).
MG BCs:     Elided blocks (gridpoints):    166472 (  172753176).
MG BCs: Computational effort saved:  99.9797%.
MG BCs: Charge after coarse-graining:           -9.0009638.
MG DL_MG: Calling solver with defect correction order = 8
MG DL_MG: Solver finished
MG Hartree energy from (\int phi*rho dr):              1438.305095
MG Hartree energy from (\int eps (grad phi)^2 dr):     1437.647681
MG Discrepancy due to finite box and discretization:     -0.657415 (  -0.04571%)
MG Correction to account for finite box:                  0.466922
MG Remaining discrepancy, due to discretization:         -0.190492 (  -0.01324%)
      ideal mu1:      -0.783976232190
             Q0:  -11595.502319247695
             G0:      -0.009143087062
   RMS gradient:       0.000014612439
MG BCs: +ve charge blocks (gridpoints):     30636 (   16946427).
MG BCs: -ve charge blocks (gridpoints):      8158 (    1077096).
MG BCs:     Elided blocks (gridpoints):    166471 (  172753182).
MG BCs: Computational effort saved:  99.9797%.
MG BCs: Charge after coarse-graining:           -9.0009639.
MG DL_MG: Calling solver with defect correction order = 8
MG DL_MG: Solver finished
MG Hartree energy from (\int phi*rho dr):              1438.393388
MG Hartree energy from (\int eps (grad phi)^2 dr):     1437.736002
MG Discrepancy due to finite box and discretization:     -0.657385 (  -0.04570%)
MG Correction to account for finite box:                  0.466918
MG Remaining discrepancy, due to discretization:         -0.190468 (  -0.01324%)
     Trial step:       0.526124467337
             Q1:  -11595.505863020779
 Quadratic coef:       0.001266628726
 Linear coef   :      -0.004810401811
           Qmin:  -11595.506886482968
Quadratic minimum step length (  0.999057592349) accepted
    Initial Ne1:    7234.00013526
      Final Ne1:    7234.00000000

=================== Penalty functional idempotency correction ==================
 RMS occupancy error at iteration   1:  0.000021 (step -0.4994 Ne1=   7234.0000)
            Final RMS occupancy error   :  0.000000 (Ne1=   7234.0000)
               Final occupancy bounds   : [ -0.0000,  1.0000]
================================================================================

    8        -1.159550231925E+04     1.4612E-05     1.3219E-05    -3.8754E-03
MG BCs: +ve charge blocks (gridpoints):     30634 (   16946464).
MG BCs: -ve charge blocks (gridpoints):      8158 (    1077089).
MG BCs:     Elided blocks (gridpoints):    166473 (  172753152).
MG BCs: Computational effort saved:  99.9797%.
MG BCs: Charge after coarse-graining:           -9.0009639.
MG DL_MG: Calling solver with defect correction order = 8
MG DL_MG: Solver finished
MG Hartree energy from (\int phi*rho dr):              1438.471318
MG Hartree energy from (\int eps (grad phi)^2 dr):     1437.813960
MG Discrepancy due to finite box and discretization:     -0.657359 (  -0.04570%)
MG Correction to account for finite box:                  0.466914
MG Remaining discrepancy, due to discretization:         -0.190445 (  -0.01324%)
      ideal mu1:      -0.784070237643
             Q0:  -11595.506878708256
             G0:      -0.013119955540
   RMS gradient:       0.000017532676
MG BCs: +ve charge blocks (gridpoints):     30633 (   16946272).
MG BCs: -ve charge blocks (gridpoints):      8159 (    1077219).
MG BCs:     Elided blocks (gridpoints):    166474 (  172753214).
MG BCs: Computational effort saved:  99.9797%.
MG BCs: Charge after coarse-graining:           -9.0009639.
MG DL_MG: Calling solver with defect correction order = 8
MG DL_MG: Solver finished
MG Hartree energy from (\int phi*rho dr):              1438.164062
MG Hartree energy from (\int eps (grad phi)^2 dr):     1437.506773
MG Discrepancy due to finite box and discretization:     -0.657289 (  -0.04570%)
MG Correction to account for finite box:                  0.466895
MG Remaining discrepancy, due to discretization:         -0.190394 (  -0.01324%)
     Trial step:       0.725002512832
             Q1:  -11595.512963697664
 Quadratic coef:       0.003427011328
 Linear coef   :      -0.009512000735
           Qmin:  -11595.513479077305
Quadratic minimum step length (  1.006157227732) accepted
    Initial Ne1:    7234.00037864
      Final Ne1:    7234.00000000

=================== Penalty functional idempotency correction ==================
 RMS occupancy error at iteration   1:  0.000126 (step -0.4960 Ne1=   7234.0000)
 RMS occupancy error at iteration   2:  0.000000 (step -0.5000 Ne1=   7234.0000)
            Final RMS occupancy error   :  0.000000 (Ne1=   7234.0000)
               Final occupancy bounds   : [  0.0000,  1.0000]
================================================================================

    9        -1.159550687871E+04     1.7533E-05     1.5860E-05    -4.5595E-03
MG BCs: +ve charge blocks (gridpoints):     30634 (   16946250).
MG BCs: -ve charge blocks (gridpoints):      8160 (    1077252).
MG BCs:     Elided blocks (gridpoints):    166473 (  172753203).
MG BCs: Computational effort saved:  99.9797%.
MG BCs: Charge after coarse-graining:           -9.0009638.
MG DL_MG: Calling solver with defect correction order = 8
MG DL_MG: Solver finished
MG Hartree energy from (\int phi*rho dr):              1438.041629
MG Hartree energy from (\int eps (grad phi)^2 dr):     1437.384368
MG Discrepancy due to finite box and discretization:     -0.657260 (  -0.04571%)
MG Correction to account for finite box:                  0.466887
MG Remaining discrepancy, due to discretization:         -0.190374 (  -0.01324%)
      ideal mu1:      -0.783669515862
   10        -1.159551342480E+04     2.0341E-05     1.8401E-05    -6.5461E-03
Finished density kernel iterations (  10)

Writing density kernel to file "complex_31261.vacuum_dkn" ... done


>>> Density kernel optimised for the current NGWF basis:
     ~~~~~~~~~~~~~~~~~~~~~~~~~~~~~~~~~~~~~~~~~~~~~~~~~~~~~~~~~~~
     Total energy                =  -1.15955134247988E+04  Eh
     Estimated bandgap           =  -2.6301E-01  Eh
     RMS occupancy error         =   1.2542E-11
     [H,K] commutator            =   1.8401E-05
     Occupancy bounds            = [  0.000:  1.000]
     ~~~~~~~~~~~~~~~~~~~~~~~~~~~~~~~~~~~~~~~~~~~~~~~~~~~~~~~~~~~




################################################################################
########################### NGWF CG iteration  001 #############################
################################################################################
****** Reciprocal space K.E. preconditioning with k_zero =  3.5000 a0^-1 *******

>>> Checking for convergence of NGWFs:   NOT CONVERGED
  ========================================================================
         NGWF RMS gradient =  1.6334E-03 >  2.0000E-06  | above tolerance
  ========================================================================

>>> Improving NGWFs using line search:
============ Calculation of NGWF S^-1 using Hotelling algorithm ================ 
         Iteration  |  Frobenius norm and Maximum abs value    (of I-S*S_n^-1)   
               1       0.20402221E+00     0.56300569E-02
               2       0.96973831E-03     0.47255960E-04
               3       0.38309723E-07     0.35097241E-08
               4       0.12821130E-12     0.66613381E-14
================================================================================
MG BCs: +ve charge blocks (gridpoints):     30130 (   16887002).
MG BCs: -ve charge blocks (gridpoints):      8166 (    1077226).
MG BCs:     Elided blocks (gridpoints):    166981 (  172812477).
MG BCs: Computational effort saved:  99.9799%.
MG BCs: Charge after coarse-graining:           -9.0009672.
MG DL_MG: Calling solver with defect correction order = 8
MG DL_MG: Solver finished
MG Hartree energy from (\int phi*rho dr):              1405.538013
MG Hartree energy from (\int eps (grad phi)^2 dr):     1404.881613
MG Discrepancy due to finite box and discretization:     -0.656401 (  -0.04670%)
MG Correction to account for finite box:                  0.466869
MG Remaining discrepancy, due to discretization:         -0.189532 (  -0.01348%)
============ Calculation of NGWF S^-1 using Hotelling algorithm ================ 
         Iteration  |  Frobenius norm and Maximum abs value    (of I-S*S_n^-1)   
               1       0.18361564E+01     0.43310296E-01
               2       0.70143509E-01     0.26563741E-02
               3       0.14198949E-03     0.10997868E-04
               4       0.11409049E-08     0.19283808E-09
               5       0.10891665E-12     0.42188475E-14
================================================================================
------------------------------- NGWF line search -------------------------------
RMS gradient                =       0.00163342910180
Trial step length           =               0.122474
Gradient along search dir.  =       -285.68956627893
Functional at step 0        =  -11595.51342479884624
Functional at step 1        =  -11627.75372064195108
Functional predicted        =  -11706.83622192679650
Selected quadratic step     =               0.779327
--------------------------- NGWF line search finished --------------------------
                                               
Writing NGWFs to file "complex_31261.vacuum_tightbox_ngwfs"....  done

>>> Optimising kernel for current NGWFs:
   Initial electron number for spin 1:    7268.76024767
     Final electron number for spin 1:    7234.00000000

=================== Penalty functional idempotency correction ==================
 RMS occupancy error at iteration   1:  0.004354 (step -0.4851 Ne1=   7234.0000)
 RMS occupancy error at iteration   2:  0.000077 (step -0.5003 Ne1=   7234.0000)
            Final RMS occupancy error   :  0.000000 (Ne1=   7234.0000)
               Final occupancy bounds   : [  0.0000,  1.0000]
================================================================================

................................................................................
<<<<<<<<<<<<<< LNV (Original version) density kernel optimisation >>>>>>>>>>>>>>
~~~~~~~~~~~~~~~~~~~~~~~~~~~~~~~~~~~~~~~~~~~~~~~~~~~~~~~~~~~~~~~~~~~~~~~~~~~~~~~~
   iter  |      energy (Eh)       | rms gradient |  commutator  |   dE (Eh)
MG BCs: +ve charge blocks (gridpoints):     24367 (   16551515).
MG BCs: -ve charge blocks (gridpoints):      8266 (    1060986).
MG BCs:     Elided blocks (gridpoints):    172753 (  173164204).
MG BCs: Computational effort saved:  99.9829%.
MG BCs: Charge after coarse-graining:           -9.0006780.
MG DL_MG: Calling solver with defect correction order = 8
MG DL_MG: Solver finished
MG Hartree energy from (\int phi*rho dr):              1253.000796
MG Hartree energy from (\int eps (grad phi)^2 dr):     1252.343906
MG Discrepancy due to finite box and discretization:     -0.656891 (  -0.05243%)
MG Correction to account for finite box:                  0.466807
MG Remaining discrepancy, due to discretization:         -0.190083 (  -0.01517%)
      ideal mu1:      -0.723251230959
             Q0:  -11706.062943684752
             G0:      -9.693638429929
   RMS gradient:       0.000475773356
MG BCs: +ve charge blocks (gridpoints):     24426 (   16567608).
MG BCs: -ve charge blocks (gridpoints):      8263 (    1056907).
MG BCs:     Elided blocks (gridpoints):    172694 (  173152190).
MG BCs: Computational effort saved:  99.9829%.
MG BCs: Charge after coarse-graining:           -9.0006732.
MG DL_MG: Calling solver with defect correction order = 8
MG DL_MG: Solver finished
MG Hartree energy from (\int phi*rho dr):              1271.795253
MG Hartree energy from (\int eps (grad phi)^2 dr):     1271.131409
MG Discrepancy due to finite box and discretization:     -0.663844 (  -0.05220%)
MG Correction to account for finite box:                  0.466513
MG Remaining discrepancy, due to discretization:         -0.197331 (  -0.01552%)
     Trial step:       0.854088120986
             Q1:  -11703.594031850342
 Quadratic coef:      10.748133266550
 Linear coef   :      -8.279221432139
           Qmin:  -11707.657302114781
Quadratic minimum step length (  0.328949432466) accepted
    Initial Ne1:    7233.99949613
      Final Ne1:    7234.00000000

=================== Penalty functional idempotency correction ==================
 RMS occupancy error at iteration   1:  0.000348 (step -0.4986 Ne1=   7234.0000)
 RMS occupancy error at iteration   2:  0.000000 (step -0.5000 Ne1=   7234.0000)
            Final RMS occupancy error   :  0.000000 (Ne1=   7234.0000)
               Final occupancy bounds   : [  0.0000,  1.0000]
================================================================================

    1        -1.170606294368E+04     4.7577E-04     4.3039E-04
MG BCs: +ve charge blocks (gridpoints):     24390 (   16557928).
MG BCs: -ve charge blocks (gridpoints):      8264 (    1059426).
MG BCs:     Elided blocks (gridpoints):    172730 (  173159351).
MG BCs: Computational effort saved:  99.9829%.
MG BCs: Charge after coarse-graining:           -9.0006760.
MG DL_MG: Calling solver with defect correction order = 8
MG DL_MG: Solver finished
MG Hartree energy from (\int phi*rho dr):              1258.977839
MG Hartree energy from (\int eps (grad phi)^2 dr):     1258.318405
MG Discrepancy due to finite box and discretization:     -0.659435 (  -0.05238%)
MG Correction to account for finite box:                  0.466668
MG Remaining discrepancy, due to discretization:         -0.192766 (  -0.01531%)
      ideal mu1:      -0.730234869422
             Q0:  -11707.623894045595
             G0:      -0.975018647051
   RMS gradient:       0.000151986770
MG BCs: +ve charge blocks (gridpoints):     24392 (   16557257).
MG BCs: -ve charge blocks (gridpoints):      8262 (    1060458).
MG BCs:     Elided blocks (gridpoints):    172728 (  173158990).
MG BCs: Computational effort saved:  99.9829%.
MG BCs: Charge after coarse-graining:           -9.0006760.
MG DL_MG: Calling solver with defect correction order = 8
MG DL_MG: Solver finished
MG Hartree energy from (\int phi*rho dr):              1260.146129
MG Hartree energy from (\int eps (grad phi)^2 dr):     1259.486288
MG Discrepancy due to finite box and discretization:     -0.659841 (  -0.05236%)
MG Correction to account for finite box:                  0.466657
MG Remaining discrepancy, due to discretization:         -0.193184 (  -0.01533%)
     Trial step:       0.530048868195
             Q1:  -11707.818068384891
 Quadratic coef:       0.322633191041
 Linear coef   :      -0.516807530338
           Qmin:  -11707.830855101394
Quadratic minimum step length (  0.424527379911) accepted
    Initial Ne1:    7233.99993363
      Final Ne1:    7234.00000000

=================== Penalty functional idempotency correction ==================
 RMS occupancy error at iteration   1:  0.000140 (step -0.4994 Ne1=   7234.0000)
            Final RMS occupancy error   :  0.000000 (Ne1=   7234.0000)
               Final occupancy bounds   : [ -0.0000,  1.0000]
================================================================================

    2        -1.170762389405E+04     1.5199E-04     1.3749E-04    -1.5610E+00
MG BCs: +ve charge blocks (gridpoints):     24392 (   16557317).
MG BCs: -ve charge blocks (gridpoints):      8262 (    1060328).
MG BCs:     Elided blocks (gridpoints):    172728 (  173159060).
MG BCs: Computational effort saved:  99.9829%.
MG BCs: Charge after coarse-graining:           -9.0006760.
MG DL_MG: Calling solver with defect correction order = 8
MG DL_MG: Solver finished
MG Hartree energy from (\int phi*rho dr):              1259.913193
MG Hartree energy from (\int eps (grad phi)^2 dr):     1259.253436
MG Discrepancy due to finite box and discretization:     -0.659757 (  -0.05237%)
MG Correction to account for finite box:                  0.466659
MG Remaining discrepancy, due to discretization:         -0.193099 (  -0.01533%)
      ideal mu1:      -0.731047298409
             Q0:  -11707.831316786935
             G0:      -0.145708375583
   RMS gradient:       0.000058265755
MG BCs: +ve charge blocks (gridpoints):     24389 (   16556765).
MG BCs: -ve charge blocks (gridpoints):      8262 (    1060654).
MG BCs:     Elided blocks (gridpoints):    172731 (  173159286).
MG BCs: Computational effort saved:  99.9829%.
MG BCs: Charge after coarse-graining:           -9.0006760.
MG DL_MG: Calling solver with defect correction order = 8
MG DL_MG: Solver finished
MG Hartree energy from (\int phi*rho dr):              1259.449706
MG Hartree energy from (\int eps (grad phi)^2 dr):     1258.789981
MG Discrepancy due to finite box and discretization:     -0.659725 (  -0.05238%)
MG Correction to account for finite box:                  0.466653
MG Remaining discrepancy, due to discretization:         -0.193071 (  -0.01533%)
     Trial step:       0.474363001550
             Q1:  -11707.875336799305
 Quadratic coef:       0.025098650021
 Linear coef   :      -0.069118662392
           Qmin:  -11707.878902906974
Quadratic minimum step length (  0.653169316431) accepted
    Initial Ne1:    7234.00057921
      Final Ne1:    7234.00000000

=================== Penalty functional idempotency correction ==================
 RMS occupancy error at iteration   1:  0.000061 (step -0.4998 Ne1=   7234.0000)
            Final RMS occupancy error   :  0.000000 (Ne1=   7234.0000)
               Final occupancy bounds   : [ -0.0000,  1.0000]
================================================================================

    3        -1.170783131679E+04     5.8266E-05     5.2708E-05    -2.0742E-01
MG BCs: +ve charge blocks (gridpoints):     24387 (   16556531).
MG BCs: -ve charge blocks (gridpoints):      8261 (    1060800).
MG BCs:     Elided blocks (gridpoints):    172733 (  173159374).
MG BCs: Computational effort saved:  99.9829%.
MG BCs: Charge after coarse-graining:           -9.0006760.
MG DL_MG: Calling solver with defect correction order = 8
MG DL_MG: Solver finished
MG Hartree energy from (\int phi*rho dr):              1259.275124
MG Hartree energy from (\int eps (grad phi)^2 dr):     1258.615411
MG Discrepancy due to finite box and discretization:     -0.659713 (  -0.05239%)
MG Correction to account for finite box:                  0.466651
MG Remaining discrepancy, due to discretization:         -0.193062 (  -0.01533%)
      ideal mu1:      -0.730124758959
             Q0:  -11707.878987112897
             G0:      -0.035323145988
   RMS gradient:       0.000028679792
MG BCs: +ve charge blocks (gridpoints):     24389 (   16556334).
MG BCs: -ve charge blocks (gridpoints):      8260 (    1060836).
MG BCs:     Elided blocks (gridpoints):    172731 (  173159535).
MG BCs: Computational effort saved:  99.9829%.
MG BCs: Charge after coarse-graining:           -9.0006760.
MG DL_MG: Calling solver with defect correction order = 8
MG DL_MG: Solver finished
MG Hartree energy from (\int phi*rho dr):              1259.270201
MG Hartree energy from (\int eps (grad phi)^2 dr):     1258.610598
MG Discrepancy due to finite box and discretization:     -0.659603 (  -0.05238%)
MG Correction to account for finite box:                  0.466649
MG Remaining discrepancy, due to discretization:         -0.192955 (  -0.01532%)
     Trial step:       0.556632156332
             Q1:  -11707.887614537729
 Quadratic coef:       0.011034574089
 Linear coef   :      -0.019661998920
           Qmin:  -11707.887745815282
Quadratic minimum step length (  0.495918590452) accepted
    Initial Ne1:    7234.00021215
      Final Ne1:    7234.00000000

=================== Penalty functional idempotency correction ==================
 RMS occupancy error at iteration   1:  0.000017 (step -0.4999 Ne1=   7234.0000)
            Final RMS occupancy error   :  0.000000 (Ne1=   7234.0000)
               Final occupancy bounds   : [ -0.0000,  1.0000]
================================================================================

    4        -1.170787898711E+04     2.8680E-05     2.5944E-05    -4.7670E-02
MG BCs: +ve charge blocks (gridpoints):     24389 (   16556373).
MG BCs: -ve charge blocks (gridpoints):      8260 (    1060827).
MG BCs:     Elided blocks (gridpoints):    172731 (  173159505).
MG BCs: Computational effort saved:  99.9829%.
MG BCs: Charge after coarse-graining:           -9.0006760.
MG DL_MG: Calling solver with defect correction order = 8
MG DL_MG: Solver finished
MG Hartree energy from (\int phi*rho dr):              1259.270552
MG Hartree energy from (\int eps (grad phi)^2 dr):     1258.610937
MG Discrepancy due to finite box and discretization:     -0.659615 (  -0.05238%)
MG Correction to account for finite box:                  0.466649
MG Remaining discrepancy, due to discretization:         -0.192966 (  -0.01532%)
      ideal mu1:      -0.730088158327
             Q0:  -11707.887750602211
             G0:      -0.011482693420
   RMS gradient:       0.000016371587
MG BCs: +ve charge blocks (gridpoints):     24389 (   16556843).
MG BCs: -ve charge blocks (gridpoints):      8260 (    1060666).
MG BCs:     Elided blocks (gridpoints):    172731 (  173159196).
MG BCs: Computational effort saved:  99.9829%.
MG BCs: Charge after coarse-graining:           -9.0006759.
MG DL_MG: Calling solver with defect correction order = 8
MG DL_MG: Solver finished
MG Hartree energy from (\int phi*rho dr):              1259.656071
MG Hartree energy from (\int eps (grad phi)^2 dr):     1258.996494
MG Discrepancy due to finite box and discretization:     -0.659577 (  -0.05236%)
MG Correction to account for finite box:                  0.466645
MG Remaining discrepancy, due to discretization:         -0.192932 (  -0.01532%)
     Trial step:       0.525399119117
             Q1:  -11707.890914970194
 Quadratic coef:       0.002868629024
 Linear coef   :      -0.006032997008
           Qmin:  -11707.890922592436
Quadratic minimum step length (  0.552481915023) accepted
    Initial Ne1:    7234.00008888
      Final Ne1:    7234.00000000

=================== Penalty functional idempotency correction ==================
 RMS occupancy error at iteration   1:  0.000009 (step -0.5000 Ne1=   7234.0000)
            Final RMS occupancy error   :  0.000000 (Ne1=   7234.0000)
               Final occupancy bounds   : [ -0.0000,  1.0000]
================================================================================

    5        -1.170788775060E+04     1.6372E-05     1.4810E-05    -8.7635E-03
MG BCs: +ve charge blocks (gridpoints):     24389 (   16556863).
MG BCs: -ve charge blocks (gridpoints):      8260 (    1060658).
MG BCs:     Elided blocks (gridpoints):    172731 (  173159184).
MG BCs: Computational effort saved:  99.9829%.
MG BCs: Charge after coarse-graining:           -9.0006759.
MG DL_MG: Calling solver with defect correction order = 8
MG DL_MG: Solver finished
MG Hartree energy from (\int phi*rho dr):              1259.675966
MG Hartree energy from (\int eps (grad phi)^2 dr):     1259.016391
MG Discrepancy due to finite box and discretization:     -0.659575 (  -0.05236%)
MG Correction to account for finite box:                  0.466644
MG Remaining discrepancy, due to discretization:         -0.192930 (  -0.01532%)
      ideal mu1:      -0.730441463111
             Q0:  -11707.890923566185
             G0:      -0.003543187219
   RMS gradient:       0.000009094368
MG BCs: +ve charge blocks (gridpoints):     24389 (   16556944).
MG BCs: -ve charge blocks (gridpoints):      8260 (    1060632).
MG BCs:     Elided blocks (gridpoints):    172731 (  173159129).
MG BCs: Computational effort saved:  99.9829%.
MG BCs: Charge after coarse-graining:           -9.0006759.
MG DL_MG: Calling solver with defect correction order = 8
MG DL_MG: Solver finished
MG Hartree energy from (\int phi*rho dr):              1259.657445
MG Hartree energy from (\int eps (grad phi)^2 dr):     1258.997878
MG Discrepancy due to finite box and discretization:     -0.659568 (  -0.05236%)
MG Correction to account for finite box:                  0.466641
MG Remaining discrepancy, due to discretization:         -0.192926 (  -0.01532%)
     Trial step:       0.538770369899
             Q1:  -11707.892105985782
 Quadratic coef:       0.000726544691
 Linear coef   :      -0.001908964288
           Qmin:  -11707.892177496156
Quadratic minimum step length (  0.707797750301) accepted
    Initial Ne1:    7234.00004182
      Final Ne1:    7234.00000000

=================== Penalty functional idempotency correction ==================
 RMS occupancy error at iteration   1:  0.000006 (step -0.4999 Ne1=   7234.0000)
            Final RMS occupancy error   :  0.000000 (Ne1=   7234.0000)
               Final occupancy bounds   : [ -0.0000,  1.0000]
================================================================================

    6        -1.170789092357E+04     9.0944E-06     8.2269E-06    -3.1730E-03
MG BCs: +ve charge blocks (gridpoints):     24389 (   16556940).
MG BCs: -ve charge blocks (gridpoints):      8260 (    1060654).
MG BCs:     Elided blocks (gridpoints):    172731 (  173159111).
MG BCs: Computational effort saved:  99.9829%.
MG BCs: Charge after coarse-graining:           -9.0006759.
MG DL_MG: Calling solver with defect correction order = 8
MG DL_MG: Solver finished
MG Hartree energy from (\int phi*rho dr):              1259.651615
MG Hartree energy from (\int eps (grad phi)^2 dr):     1258.992049
MG Discrepancy due to finite box and discretization:     -0.659565 (  -0.05236%)
MG Correction to account for finite box:                  0.466640
MG Remaining discrepancy, due to discretization:         -0.192925 (  -0.01532%)
      ideal mu1:      -0.730408168292
             Q0:  -11707.892177577247
             G0:      -0.002048534826
   RMS gradient:       0.000006916373
MG BCs: +ve charge blocks (gridpoints):     24389 (   16556656).
MG BCs: -ve charge blocks (gridpoints):      8260 (    1060733).
MG BCs:     Elided blocks (gridpoints):    172731 (  173159316).
MG BCs: Computational effort saved:  99.9829%.
MG BCs: Charge after coarse-graining:           -9.0006759.
MG DL_MG: Calling solver with defect correction order = 8
MG DL_MG: Solver finished
MG Hartree energy from (\int phi*rho dr):              1259.531223
MG Hartree energy from (\int eps (grad phi)^2 dr):     1258.871647
MG Discrepancy due to finite box and discretization:     -0.659576 (  -0.05237%)
MG Correction to account for finite box:                  0.466643
MG Remaining discrepancy, due to discretization:         -0.192933 (  -0.01532%)
     Trial step:       0.617527696337
             Q1:  -11707.892605002504
 Quadratic coef:       0.000837601734
 Linear coef   :      -0.001265026992
           Qmin:  -11707.892655218715
Quadratic minimum step length (  0.466324968224) accepted
    Initial Ne1:    7234.00000685
      Final Ne1:    7234.00000000

=================== Penalty functional idempotency correction ==================
 RMS occupancy error at iteration   1:  0.000000 (step -0.5000 Ne1=   7234.0000)
            Final RMS occupancy error   :  0.000000 (Ne1=   7234.0000)
               Final occupancy bounds   : [  0.0000,  1.0000]
================================================================================

    7        -1.170789217758E+04     6.9164E-06     6.2567E-06    -1.2540E-03
MG BCs: +ve charge blocks (gridpoints):     24389 (   16556726).
MG BCs: -ve charge blocks (gridpoints):      8260 (    1060713).
MG BCs:     Elided blocks (gridpoints):    172731 (  173159266).
MG BCs: Computational effort saved:  99.9829%.
MG BCs: Charge after coarse-graining:           -9.0006759.
MG DL_MG: Calling solver with defect correction order = 8
MG DL_MG: Solver finished
MG Hartree energy from (\int phi*rho dr):              1259.560652
MG Hartree energy from (\int eps (grad phi)^2 dr):     1258.901078
MG Discrepancy due to finite box and discretization:     -0.659574 (  -0.05237%)
MG Correction to account for finite box:                  0.466643
MG Remaining discrepancy, due to discretization:         -0.192931 (  -0.01532%)
      ideal mu1:      -0.730295142601
             Q0:  -11707.892655206728
             G0:      -0.001265427896
   RMS gradient:       0.000005435938
MG BCs: +ve charge blocks (gridpoints):     24389 (   16556676).
MG BCs: -ve charge blocks (gridpoints):      8260 (    1060719).
MG BCs:     Elided blocks (gridpoints):    172731 (  173159310).
MG BCs: Computational effort saved:  99.9829%.
MG BCs: Charge after coarse-graining:           -9.0006759.
MG DL_MG: Calling solver with defect correction order = 8
MG DL_MG: Solver finished
MG Hartree energy from (\int phi*rho dr):              1259.512833
MG Hartree energy from (\int eps (grad phi)^2 dr):     1258.853252
MG Discrepancy due to finite box and discretization:     -0.659581 (  -0.05237%)
MG Correction to account for finite box:                  0.466643
MG Remaining discrepancy, due to discretization:         -0.192938 (  -0.01532%)
     Trial step:       0.536627043086
             Q1:  -11707.893199495389
 Quadratic coef:       0.000134774169
 Linear coef   :      -0.000679062830
           Qmin:  -11707.893510575250
Quadratic minimum step length (  1.351904008097) accepted
    Initial Ne1:    7234.00001221
      Final Ne1:    7234.00000000

=================== Penalty functional idempotency correction ==================
 RMS occupancy error at iteration   1:  0.000010 (step -0.4995 Ne1=   7234.0000)
            Final RMS occupancy error   :  0.000000 (Ne1=   7234.0000)
               Final occupancy bounds   : [ -0.0000,  1.0000]
================================================================================

    8        -1.170789265521E+04     5.4359E-06     4.9174E-06    -4.7763E-04
MG BCs: +ve charge blocks (gridpoints):     24388 (   16556556).
MG BCs: -ve charge blocks (gridpoints):      8260 (    1060765).
MG BCs:     Elided blocks (gridpoints):    172732 (  173159384).
MG BCs: Computational effort saved:  99.9829%.
MG BCs: Charge after coarse-graining:           -9.0006760.
[...]
MG Correction to account for finite box:                  0.006385
MG Remaining discrepancy, due to discretization:         -0.191729 (  -0.01576%)
     Trial step:       0.341452517957
             Q1:  -11742.337174442830
 Quadratic coef:       0.000000001406
 Linear coef   :      -0.000000001173
           Qmin:  -11742.337174443306
Quadratic minimum step length (  0.142421583940) accepted
    Initial Ne1:    7234.00000000
      Final Ne1:    7234.00000000

=================== Penalty functional idempotency correction ==================
 RMS occupancy error at iteration   1:  0.000000 (step -0.5000 Ne1=   7234.0000)
            Final RMS occupancy error   :  0.000000 (Ne1=   7234.0000)
               Final occupancy bounds   : [  0.0000,  1.0000]
================================================================================

    7        -1.174233717444E+04     8.9564E-09     8.1021E-09    -5.8208E-10

Reusing previously generated solute cavity.
MG BCs: +ve charge blocks (gridpoints):     28909 (   18745716).
MG BCs: -ve charge blocks (gridpoints):      8249 (    1029519).
MG BCs:     Elided blocks (gridpoints):    168211 (  171001470).
MG BCs: Computational effort saved:  99.9805%.
MG BCs: Charge after coarse-graining:           -9.0009441.
MG DL_MG: Calling solver with defect correction order = 8
MG DL_MG: Solver finished
MG Hartree energy from (\int phi*rho dr):              1216.482432
MG Hartree energy from (\int eps (grad phi)^2 dr):     1216.284317
MG Discrepancy due to finite box and discretization:     -0.198115 (  -0.01629%)
MG Correction to account for finite box:                  0.006385
MG Remaining discrepancy, due to discretization:         -0.191729 (  -0.01576%)
      ideal mu1:      -0.481636232128
             Q0:  -11742.337174442946
             G0:      -0.000000003522
   RMS gradient:       0.000000006862

Reusing previously generated solute cavity.
MG BCs: +ve charge blocks (gridpoints):     28909 (   18745716).
MG BCs: -ve charge blocks (gridpoints):      8249 (    1029519).
MG BCs:     Elided blocks (gridpoints):    168211 (  171001470).
MG BCs: Computational effort saved:  99.9805%.
MG BCs: Charge after coarse-graining:           -9.0009441.
MG DL_MG: Calling solver with defect correction order = 8
MG DL_MG: Solver finished
MG Hartree energy from (\int phi*rho dr):              1216.482435
MG Hartree energy from (\int eps (grad phi)^2 dr):     1216.284320
MG Discrepancy due to finite box and discretization:     -0.198115 (  -0.01629%)
MG Correction to account for finite box:                  0.006385
MG Remaining discrepancy, due to discretization:         -0.191729 (  -0.01576%)
     Trial step:       0.220522580358
             Q1:  -11742.337174442713
 Quadratic coef:       0.000000001010
 Linear coef   :      -0.000000000777
           Qmin:  -11742.337174443095
Quadratic minimum step length (  0.084827905743) accepted
    Initial Ne1:    7234.00000000
      Final Ne1:    7234.00000000

=================== Penalty functional idempotency correction ==================
 RMS occupancy error at iteration   1:  0.000000 (step -0.5000 Ne1=   7234.0000)
            Final RMS occupancy error   :  0.000000 (Ne1=   7234.0000)
               Final occupancy bounds   : [  0.0000,  1.0000]
================================================================================

    8        -1.174233717444E+04     6.8616E-09     6.2071E-09     1.1642E-10

Reusing previously generated solute cavity.
MG BCs: +ve charge blocks (gridpoints):     28909 (   18745716).
MG BCs: -ve charge blocks (gridpoints):      8249 (    1029519).
MG BCs:     Elided blocks (gridpoints):    168211 (  171001470).
MG BCs: Computational effort saved:  99.9805%.
MG BCs: Charge after coarse-graining:           -9.0009441.
MG DL_MG: Calling solver with defect correction order = 8
MG DL_MG: Solver finished
MG Hartree energy from (\int phi*rho dr):              1216.482433
MG Hartree energy from (\int eps (grad phi)^2 dr):     1216.284318
MG Discrepancy due to finite box and discretization:     -0.198115 (  -0.01629%)
MG Correction to account for finite box:                  0.006385
MG Remaining discrepancy, due to discretization:         -0.191729 (  -0.01576%)
      ideal mu1:      -0.481636231738
             Q0:  -11742.337174442946
             G0:      -0.000000003166
   RMS gradient:       0.000000005599

Reusing previously generated solute cavity.
MG BCs: +ve charge blocks (gridpoints):     28909 (   18745716).
MG BCs: -ve charge blocks (gridpoints):      8249 (    1029519).
MG BCs:     Elided blocks (gridpoints):    168211 (  171001470).
MG BCs: Computational effort saved:  99.9805%.
MG BCs: Charge after coarse-graining:           -9.0009441.
MG DL_MG: Calling solver with defect correction order = 8
MG DL_MG: Solver finished
MG Hartree energy from (\int phi*rho dr):              1216.482434
MG Hartree energy from (\int eps (grad phi)^2 dr):     1216.284320
MG Discrepancy due to finite box and discretization:     -0.198115 (  -0.01629%)
MG Correction to account for finite box:                  0.006385
MG Remaining discrepancy, due to discretization:         -0.191729 (  -0.01576%)
     Trial step:       0.136771593033
             Q1:  -11742.337174442713
 Quadratic coef:       0.000000000666
 Linear coef   :      -0.000000000433
           Qmin:  -11742.337174443017
Quadratic minimum step length (  0.044476982456) accepted
    Initial Ne1:    7234.00000000
      Final Ne1:    7234.00000000

=================== Penalty functional idempotency correction ==================
 RMS occupancy error at iteration   1:  0.000000 (step -0.5000 Ne1=   7234.0000)
            Final RMS occupancy error   :  0.000000 (Ne1=   7234.0000)
               Final occupancy bounds   : [  0.0000,  1.0000]
================================================================================

    9        -1.174233717444E+04     5.5986E-09     5.0646E-09     0.0000E+00

Reusing previously generated solute cavity.
MG BCs: +ve charge blocks (gridpoints):     28909 (   18745716).
MG BCs: -ve charge blocks (gridpoints):      8249 (    1029519).
MG BCs:     Elided blocks (gridpoints):    168211 (  171001470).
MG BCs: Computational effort saved:  99.9805%.
MG BCs: Charge after coarse-graining:           -9.0009441.
MG DL_MG: Calling solver with defect correction order = 8
MG DL_MG: Solver finished
MG Hartree energy from (\int phi*rho dr):              1216.482433
MG Hartree energy from (\int eps (grad phi)^2 dr):     1216.284319
MG Discrepancy due to finite box and discretization:     -0.198115 (  -0.01629%)
MG Correction to account for finite box:                  0.006385
MG Remaining discrepancy, due to discretization:         -0.191729 (  -0.01576%)
      ideal mu1:      -0.481636231006
   10        -1.174233717444E+04     5.0232E-09     4.5441E-09     0.0000E+00
Finished density kernel iterations (  10)

Writing density kernel to file "complex_31261.dkn" ... done


>>> Density kernel optimised for the current NGWF basis:
     ~~~~~~~~~~~~~~~~~~~~~~~~~~~~~~~~~~~~~~~~~~~~~~~~~~~~~~~~~~~
     Total energy                =  -1.17423371744429E+04  Eh
     Estimated bandgap           =   9.5593E-02  Eh
     RMS occupancy error         =   2.6110E-16
     [H,K] commutator            =   4.5441E-09
     Occupancy bounds            = [  0.000:  1.000]
     ~~~~~~~~~~~~~~~~~~~~~~~~~~~~~~~~~~~~~~~~~~~~~~~~~~~~~~~~~~~




################################################################################
########################### NGWF CG iteration  005 #############################
################################################################################
****** Reciprocal space K.E. preconditioning with k_zero =  3.5000 a0^-1 *******

>>> Checking for convergence of NGWFs: 
           ........................................................
           |         *** NGWF optimisation converged ***          |
           | RMS NGWF gradient =    0.00000088398003              |
           | Criteria satisfied:                                  |
           | -> RMS NGWF gradient lower than set threshold.       |
           ========================================================

Reusing previously generated solute cavity.
MG BCs: +ve charge blocks (gridpoints):     28909 (   18745716).
MG BCs: -ve charge blocks (gridpoints):      8249 (    1029519).
MG BCs:     Elided blocks (gridpoints):    168211 (  171001470).
MG BCs: Computational effort saved:  99.9805%.
MG BCs: Charge after coarse-graining:           -9.0009441.
MG DL_MG: Calling solver with defect correction order = 8
MG DL_MG: Solver finished
MG Hartree energy from (\int phi*rho dr):              1216.482433
MG Hartree energy from (\int eps (grad phi)^2 dr):     1216.284319
MG Discrepancy due to finite box and discretization:     -0.198115 (  -0.01629%)
MG Correction to account for finite box:                  0.006385
MG Remaining discrepancy, due to discretization:         -0.191729 (  -0.01576%)

================================================================================
           ---------------- ENERGY COMPONENTS (Eh) ----------------
           | Kinetic                    :     8575.38476314683248 |
           | Pseudo. (local,OBC,corr'd) :    -5075.52025629847139 |
           | Pseudopotential (non-local):     1411.57766147229472 |
           | Hartree (molecular)        :     1216.48243345153855 |
           | Exchange-correlation       :    -3377.08761022354383 |
           | Ion-ion (open BC)          :   840531.43960858834907 |
           | Dispersion Correction      :       -3.31423880599932 |
           | Smeared ion non-self corr. :  -840482.98941928474233 |
           | Smeared ion self corr.     :   -14538.95273137971526 |
           | Solvent cavitation energy  :        2.28627551566099 |
           | Solute-solvent dis-rep en. :       -1.64366062509658 |
           | Total                      :   -11742.33717444283138 |
           --------------------------------------------------------
           ------ LOCAL ENERGY COMPONENTS FROM MATRIX TRACES ------
           | Pseudopotential (local)    :    -5075.52025629848595 |
           | Hartree                    :    -2004.48253954766233 |
           --------------------------------------------------------
           Integrated density           :     7233.99999999898591
           Integrated density tr(KS)    :     7234.00000000000000
================================================================================


                        <<<<< CALCULATION SUMMARY >>>>>                         
|ITER|    RMS GRADIENT   |     TOTAL ENERGY    |   step   |     Epredicted              
   0     0.00004021471406 -11742.27689633041155   0.601521 -11742.32897797436999        
   1     0.00001030753573 -11742.33656199043617   0.089604 -11742.33707167432840        
   2     0.00000452742341 -11742.33715324522927   0.016207 -11742.33717103129129        
   3     0.00000201489898 -11742.33717360708397   0.003256 -11742.33717431475270        
   4     0.00000088398003 -11742.33717444294598  <-- CG                                 

=================== Finished the calculation in solvent ========================
= Adjusting the following parameters: 
= read_denskern: F
= read_tightbox_ngwfs: F
= maxit_pen: 0 (restored to user-specified value)
= restart read filename prefix: ""
= restart write filename prefix: ""
================================================================================

================================================================================
IS: Calculation in solvent completed (NGWFs converged).      

Individual components of total energy in solvent:     hartree           kcal/mol
- Usual non-electrostatic DFT terms:    -12959.46222278504683    -8132185.147132
- Electrostatic fixed charge energy:      1216.48243345153855      763354.235461
- Apolar cavitation energy:                  2.28627551566099        1434.659515
- Apolar dispersion-repulsion energy:       -1.64366062509658       -1031.412592
 -------------------------------------------------------------------------------
- Total energy in solvent:              -11742.33717444294598    -7368427.664747

Components of total energy in solvent:                hartree           kcal/mol
- Usual non-electrostatic DFT terms:    -12959.46222278504683    -8132185.147132
- Electrostatic energy:                   1216.48243345153855      763354.235461
- Apolar energy terms:                       0.64261489056441         403.246923
 -------------------------------------------------------------------------------
- Total energy in solvent:              -11742.33717444294598    -7368427.664747

Calculation of free energy of solvation:              hartree           kcal/mol
- Total energy in solvent:         (+)  -11742.33717444294598    -7368427.664747
- Total energy in vacuum:          (-)  -11738.47796239284799    -7366005.972676
 -------------------------------------------------------------------------------
- Total free energy of solvation:           -3.85921205009799       -2421.692071

Components of polar term in f.e. of solvation:        hartree           kcal/mol
- Electrostatic:                            -4.64593989609511       -2915.371237
- Change in nonelectrostatic DFT terms:      0.14411295543505          90.432243
 -------------------------------------------------------------------------------
- Polar term in f.e. of solvation:          -4.50182694066007       -2824.938995

Components of free energy of solvation:               hartree           kcal/mol
- Polar term in f.e. of solvation: (+)      -4.50182694066007       -2824.938995
- Apolar (cavitation, dis., rep.): (+)       0.64261489056441         403.246923
 -------------------------------------------------------------------------------
- Total free energy of solvation:           -3.85921205009565       -2421.692071
================================================================================


------------------------------ TIMING INFORMATION ------------------------------
AVERAGE TIME:   33179.137s on     60 node(s)                                    
TOTAL TIME:     33179.138s on     60 node(s)                                    
================= AVERAGE TIMINGS FROM ALL NODES (CUMULATIVE) ==================
|| TAG                                    #calls    cpu time   %total  Gflops ||
|| work_imbalance                       :     1        0.00s   0.000%  ------ ||
|| sparse_set_to_garbage                :   188        0.03s   0.000%  ------ ||
|| parallel_prepare_fd_halos_request    :  2067        0.03s   0.000%  ------ ||
|| ngwfs_initialise_from_radial         :     1        0.09s   0.000%  ------ ||
|| basis_extract_function_from_box      :  3817        0.17s   0.001%  ------ ||
|| parallel_prepare_fd_halos_satisfy    :  2067        0.70s   0.002%  ------ ||
|| parallel_prepare_fd_halos_alloc      :  2067        1.78s   0.005%  ------ ||
|| pseudopotentials_nonlocal_mat        :    32        2.38s   0.007%  ------ ||
|| restart_kernel_read                  :     1        4.26s   0.013%  ------ ||
|| openbc_locps_radial                  :     1        4.66s   0.014%  ------ ||
|| restart_ngwfs_tightbox_input         :     1        7.77s   0.023%  ------ ||
|| parallel_prepare_fd_halos_comms_imbal:  2067        9.93s   0.030%  ------ ||
|| density_init_guess_real              :     1       13.16s   0.040%  ------ ||
|| parallel_prepare_fd_halos_clear      :  2067       21.05s   0.063%  ------ ||
|| sparse_init                          :     2       23.40s   0.071%  ------ ||
|| projectors_func_ovlp_box             :    32       28.13s   0.085%  ------ ||
|| parallel_prepare_fd_halos_comms_wait :  2067       28.43s   0.086%  ------ ||
|| function_ops_brappd_ketppd           :    32       30.78s   0.093%  ------ ||
|| palser_mano_kernel_optimise          :     1       33.23s   0.100%  ------ ||
|| projectors_init_fftbox_recip         :   151       34.06s   0.103%  ------ ||
|| basis_copy_function_to_box           : 62058       43.69s   0.132%  ------ ||
|| pseudo_make_structure_factor         :     2       53.60s   0.162%  ------ ||
|| ngwf_gradient_coeffs                 :    17       54.66s   0.165%  ------ ||
|| fourier_apply_box_pair               :  5468       56.48s   0.170% 560.505 ||
|| parallel_prepare_fd_halos            :  2067       61.95s   0.187%  ------ ||
|| sparse_embed_hotelling_invert_embed  :    32       85.70s   0.258%  ------ ||
|| restart_kernel_write                 :    18      113.22s   0.341%  ------ ||
|| finite_difference_derivative         :  2067      157.44s   0.475%  ------ ||
|| integrals_kinetic                    :    32      160.57s   0.484%  ------ ||
|| projectors_gradient_batch            :   119      160.58s   0.484%  ------ ||
|| sparse_trace                         :  5353      179.19s   0.540%  ------ ||
|| fourier_apply_cell_backward          :  1379      182.89s   0.551% 102.635 ||
|| basis_dot_function_with_box          : 9.523M     210.10s   0.633%  ------ ||
|| fourier_apply_cell_forward           :  1377      242.53s   0.731%  77.285 ||
|| openbc_locps_on_grid                 :     2      268.24s   0.808%  ------ ||
|| kernel_purify                        :   526      325.57s   0.981%  ------ ||
|| basis_add_function_to_box            : 19.89M     458.34s   1.381%  ------ ||
|| lnv_gradient_norm                    :   170      491.95s   1.483%  ------ ||
|| xc_energy_potential                  :   344      493.61s   1.488%  ------ ||
|| hamiltonian_energy_components        :     4      495.13s   1.492%  ------ ||
|| kernel_fix                           :   170      521.39s   1.571%  ------ ||
|| integrals_locpot_mat_els_batch       :  1253      801.98s   2.417%  ------ ||
|| ngwf_gradient_build_batch            :   119      811.98s   2.447%  ------ ||
|| ngwf_gradient_batch                  :   119     1135.75s   3.423%  ------ ||
|| density_batch_row_sums               :  2401     1137.91s   3.430%  ------ ||
|| restart_ngwfs_tightbox_output        :    15     1242.70s   3.745%  ------ ||
|| ngwf_gradient_lnv                    :    17     1305.37s   3.934%  ------ ||
|| cell_grid_deposit_box_real           : 39840     1461.48s   4.405%  ------ ||
|| cell_grid_extract_box_real           : 43576     1681.30s   5.067%  ------ ||
|| sparse_product                       :  6899     1984.11s   5.980%  ------ ||
|| density_fftbox_deposit_to_cell       : 37730     2246.80s   6.772%  ------ ||
|| density_fftbox_interpolate_multiply  : 37730     3840.66s  11.576%  ------ ||
|| potential_apply_to_ngwf_batch        :  1253     3990.23s  12.026%  ------ ||
|| multigrid_prepare_bound_cond         :   344     4687.80s  14.129%  ------ ||
|| fourier_apply_box                    : 129.7k    4745.41s  14.302% 766.990 ||
|| integrals_locpot_dbl_grid            :   179     4807.70s  14.490%  ------ ||
|| density_batch_interp_deposit         :  2401     7116.60s  21.449%  ------ ||
|| dl_mg_solver_calls                   :   344     7954.44s  23.974%  ------ ||
|| density_on_dbl_grid                  :   343     8655.28s  26.087%  ------ ||
|| multigrid_calculate_hartree          :   344    12859.02s  38.756%  ------ ||
|| hamiltonian_lhxc_calculate           :   339    21961.85s  66.192%  ------ ||
|| lnv_denskernel_optimise_cg           :    17    27744.29s  83.620%  ------ ||
|| ngwf_cg_optimise                     :     2    32195.53s  97.035%  ------ ||
|| total_time                           :     1    33179.14s 100.000%  ------ ||
================================================================================
Overhead of generating timer report: 
- 0 ms averaging over threads,
- 15 ms ensuring consistency across MPI ranks,
- 1 ms printing in order.

Job completed: 27-05-2020 16:54 (+0100)

Application 40633208 resources: utime ~6891112s, stime ~228369s, Rss ~3639088, inblocks ~340242238, outblocks ~70832711
