 +---------------------------------------------------------------+
 |                                                               |
 |        ####### #     # ####### ####### ####### ######         |
 |        #     # ##    # #          #    #       #     #        |
 |        #     # # #   # #          #    #       #     #        |
 |        #     # #  #  # #####      #    #####   ######         |
 |        #     # #   # # #          #    #       #              |
 |        #     # #    ## #          #    #       #              |
 |        ####### #     # #######    #    ####### #              |
 |                                                               |
 |        Linear-Scaling Ab Initio Total Energy Program          |
 |                                                               |
 |          Release for academic collaborators of ODG            |
 |                                             Version 5.3.2.6.  |
 |                                                               |
 +---------------------------------------------------------------+
 |                                                               |
 |  Authors:                                                     |
 |  Jacek Dziedzic, Peter D. Haynes, Nicholas D. M. Hine,        |
 |  Arash. A. Mostofi, Mike C. Payne and Chris-Kriton Skylaris   |
 |                                                               |
 |  Contributors:                                                |
 |  J. Aarons, L. Andrinopoulos, P. W. Avraam, R. A. Bell,       |
 |  A. Bhandari, G. A. Bramley, R. J. Charlton, S. J. Clark,     |
 |  R. J. Clements, G. C. Constantinescu, F. Corsetti,           |
 |  N. Corsini, O. Dieguez, S. M. M. Dubois, K. K. B. Duff,      |
 |  J. M. Escartin, A. Greco, H. Helal, Q. O. Hill, L. P. Lee,   |
 |  J.-H. Li, E. B. Linscott, G. Moynihan, D. D. O`Regan,        |
 |  O. K. Okan, M. J. S. Phipps, C. J. Pickard,                  |
 |  J. C. A. Prentice, M. I. J. Probert, L. E. Ratcliff,         |
 |  M. Robinson, A. Ruiz Serrano, J. S. Spencer, E. W. Tait,     |
 |  G. Teobaldi, D. Turban, V. Vitale, K. A. Wilkinson,          |
 |  C. Weber, J. C. Womack, N. Yeung and T. J. Zuehlsdorff       |
 |                                                               |
 |                                   Copyright (c) 2004-2019     |
 |                                                               |
 |  Please cite:                                                 |
 |  "Introducing ONETEP: Linear-scaling density functional       |
 |   simulations on parallel computers".                         |
 |   C.-K. Skylaris, P. D. Haynes, A. A. Mostofi, M. C. Payne.   |
 |   J. Chem. Phys. 122 084119 (2005).                           |
 |                                                               |
 |          in all publications arising from your use of ONETEP. |
 |                                                               |
 +---------------------------------------------------------------+
 |                                                               |
 |   ONETEP is based on developments described in the following  |
 |   publications:                                               |
 |                                                               |
 |  "Nonorthogonal generalized Wannier function pseudopotential  |
 |   plane-wave method".                                         |
 |   C.-K. Skylaris, A. A. Mostofi, P. D. Haynes, O. Dieguez,    |
 |   M. C. Payne.                                                |
 |   Phys. Rev. B 66 035119 (2002).                              |
 |                                                               |
 |  "Preconditioned iterative minimization for linear-scaling    |
 |   electronic structure calculations".                         |
 |   A. A. Mostofi, P. D. Haynes, C.-K. Skylaris, M. C. Payne.   |
 |   J. Chem. Phys. 119(17), pp.8842-8848 (2003).                |
 |                                                               |
 |  "Total-energy calculations on a real space grid with         |
 |   localized functions and a plane-wave basis".                |
 |   A. A. Mostofi, C.-K. Skylaris, P. D. Haynes, M. C. Payne.   |
 |   Comput. Phys. Commun. 147, pp.788-802 (2002).               |
 |                                                               |
 |  "Accurate kinetic energy evaluation in electronic structure  |
 |   calculations with localized functions on real space grids"  |
 |   C.-K. Skylaris, A. A. Mostofi, P. D. Haynes, C. J. Pickard, |
 |   M. C. Payne.                                                |
 |   Comput. Phys. Commun. 140, pp.315-322 (2001).               |
 |                                                               |
 |  "Accurate ionic forces and geometry optimization in linear-  |
 |   scaling density-functional theory with local orbitals"      |
 |   N. D. M. Hine, M. Robinson, P. D. Haynes, C.-K. Skylaris,   |
 |   M. C. Payne, and A. A. Mostofi.                             |
 |   Phys. Rev. B 83 195102 (2011).                              |
 |                                                               |
 +---------------------------------------------------------------+

Job started: 12-02-2020 18:10 (-0000)
 
Reading parameters from file "host_20241.dat" ...... done

If your calculation crashes here, before "Checking processes and threads..."
is displayed, then your stack size is insufficient.
If so, use "ulimit -s unlimited" at runtime.
You can disable this check with "check_stack_size F".

Checking processes and threads...
   Determining the default number of threads...
      No default threads set at compilation time: defaulting to 1.
      OpenMP library call suggests 4 threads.
      Hybrid MPI-OpenMP compilation detected.
      Number of MPI processes > 1.
      OMP_NUM_THREADS environment variable present and
      its value matches the one obtained from the OpenMP library call.
      Using this value as default.
      Default threads: 4
      Default applies to threads_max and threads_num_fftboxes.
      Settings in the input file override this default.
   ... done

   Running with 60 MPI processes.
   There are 6 MPI processes running on the same node as the root process.
   Each MPI process is using: 
               1 threads for simulation cell FFTs.
               1 threads for parallel FFT box operations.
               4 threads for loops over batched FFT box operations.
               4 threads in other parallel regions.
... done

Basic input checks...... done

Reading geometry and species blocks from file "host_20241.dat" ...
  <species_atomic_set> block not found: NGWF initialisation set to SOLVE
IS: Dielectric excluded regions:
    - NONE.
    
  Number of PPD points along a3 set to 1.  This is 
  the default value, it may have been provided also in the input file.
... done
 Writing xyz coordinates to file "host_20241.xyz" ... done


--------------------------------------------------------------------------------
---------------------------------- INPUT FILE ----------------------------------
--------------------------------------------------------------------------------

cutoff_energy       : 800 eV                                                    
xc_functional PBE                                                               
task SINGLEPOINT                                                                
write_xyz true                                                                  
output_detail VERBOSE                                                           
ngwf_threshold_orig : 0.000002                                                  
kernel_cutoff       : 1000                                                      
k_zero              : 3.5                                                       
elec_cg_max 0                                                                   
occ_mix 1.0                                                                     
dispersion 1                                                                    
maxit_ngwf_cg 40                                                                
minit_lnv 10                                                                    
maxit_lnv 10                                                                    
write_denskern T                                                                
write_tightbox_ngwfs T                                                          
charge 9                                                                        
is_implicit_solvent T                                                           
is_auto_solvation T                                                             
is_include_apolar T                                                             
is_smeared_ion_rep T                                                            
is_solvent_surf_tension 4.7624E-5 Ha/bohr**2                                    
is_apolar_scaling_factor 0.281075                                               
is_solvation_beta 1.3                                                           
is_density_threshold 0.00035                                                    
is_bulk_permittivity 78.54                                                      
is_dielectric_model fix_initial                                                 
is_smeared_ion_width 0.8                                                        
mg_defco_fd_order 8                                                             
is_bc_coarseness 10                                                             
is_bc_surface_coarseness 1                                                      
fine_grid_scale 2.0                                                             
%block species                                                                  
N   N   7 4 8.0                                                                 
H   H   1 1 8.0                                                                 
C   C   6 4 8.0                                                                 
S   S  16 9 8.0                                                                 
O   O   8 4 8.0                                                                 
%endblock species                                                               
%block species_pot                                                              
N   N_00.recpot                                                                 
H   H_04.recpot                                                                 
C   C_01.recpot                                                                 
S   S_00.recpot                                                                 
O   O_02.recpot                                                                 
%endblock species_pot                                                           
%block lattice_cart                                                             
139.252   0.000   0.000                                                         
0.000 142.425   0.000                                                           
0.000   0.000   162.84                                                          
%endblock lattice_cart                                                          
%block positions_abs                                                            
     Hash =  -000008648752698825250783
%endblock positions_abs                                                         

--------------------------------------------------------------------------------
-------------------------------- END INPUT FILE --------------------------------
--------------------------------------------------------------------------------


 
 ESDF WARNING(1): "kernelcutoff" (esdf_physical) has no units. Assume "bohr".
 ESDF WARNING(2): "kzero" (esdf_physical) has no units. Assume "1/bohr".
 ESDF WARNING(3
 ): "issmearedionwidth" (esdf_physical) has no units. Assume "bohr".
<<<<<<<<<<<<<<<<<<<<<<<<<<<<<<<<< Full system >>>>>>>>>>>>>>>>>>>>>>>>>>>>>>>>>>
<<<<<<<<<<<<<<<<<<<<<<<<< Pseudopotential information >>>>>>>>>>>>>>>>>>>>>>>>>>
File: N_00.recpot [ 2001 points up to Gmax=  52.9 (1/bohr)]
  Atomic number:  7;  ionic charge:  5.000000
    Shell 1: l = 0; rc = 1.48 bohr
File: H_04.recpot [ 2001 points up to Gmax=  52.9 (1/bohr)]
  Atomic number:  1;  ionic charge:  1.000000
    Local potential
File: C_01.recpot [ 2001 points up to Gmax=  52.9 (1/bohr)]
  Atomic number:  6;  ionic charge:  4.000000
    Shell 1: l = 0; rc = 1.48 bohr
File: S_00.recpot [ 2001 points up to Gmax=  52.9 (1/bohr)]
  Atomic number: 16;  ionic charge:  6.000000
    Shell 1: l = 0; rc = 1.90 bohr
    Shell 2: l = 2; rc = 1.84 bohr
File: O_02.recpot [ 2001 points up to Gmax=  52.9 (1/bohr)]
  Atomic number:  8;  ionic charge:  6.000000
    Shell 1: l = 0; rc = 1.31 bohr
<<<<<<<<<<<<<<<<<<<<<<<<<<<<<<<<<<<<<<<<>>>>>>>>>>>>>>>>>>>>>>>>>>>>>>>>>>>>>>>>

-------------------------- Atom counting information ---------------------------
Symbol    Natoms    Nngwfs    Nprojs
  N        236       944       236
  H       1311      1311         0
  C        810      3240       810
  S          6        54        36
  O        239       956       239
.......   ......    ......    ......
Totals:   2602      6505      1321
--------------------------------------------------------------------------------

=============================== PSINC grid sizes ===============================
                      Simulation cell:  275 x 280 x 320
                              FFT-box:   99 x  99 x  99
                                  PPD:    5 x   5 x   1
Grid space d1=  0.506370909091a0 (KE cutoff=  29.62556Eh = 806.15239eV)
Grid space d2=  0.508660714286a0 (KE cutoff=  29.35943Eh = 798.91072eV)
Grid space d3=  0.508875000000a0 (KE cutoff=  29.33471Eh = 798.23802eV)
================================================================================

********************* Fourier parallelisation information **********************
       Coarse grid (whole simulation cell) dimensions:    275   280   320
          Real-space ('12') slabs/node (min max mean):      5     6     5
         Recip-space ('23') slabs/node (min max mean):      2     3     2
********************************************************************************

********************* Fourier parallelisation information **********************
       Double grid (whole simulation cell) dimensions:    550   560   640
          Real-space ('12') slabs/node (min max mean):     10    11    10
         Recip-space ('23') slabs/node (min max mean):      4     5     4
********************************************************************************
ONETEP fine grid is 550 x 560 x 640 gridpoints, 139.2520 x 142.4250 x 162.8400 bohr.
FD multigrid is     545 x 553 x 633 gridpoints, 137.9861 x 140.6447 x 161.0589 bohr.


Calculating local pseudopotential in open BC on a radial grid ...
Discrepancy between calculated realspace psloc and -Z/x on [5a0,257.280a0]:
max |rel. diff| # avg |rel. diff| #  avg rel. diff #  f # pseudopotential file
 0.000256370913    0.000003612608   0.000000072509   55  'N_00.recpot'
 0.000395389207    0.000016224277  -0.000000076597   55  'H_04.recpot'
 0.000377360759    0.000017565724   0.000000149252   55  'C_01.recpot'
 0.000469715301    0.000020587835   0.000000455518   55  'S_00.recpot'
 0.000665442002    0.000026079317   0.000000158685   55  'O_02.recpot'
... done

Atom SCF Calculation for N  : Z (AE atom) =   7 : Z (PS atom) =   5
Config String:
Orbitals (num,occ):  2     2.00 3.00
Orbitals   (num,l):  2        0    1
Real-space Grid (nr,dr,rmax): 1203    0.0066555740    8.0000000000
Spherical Bessel Basis (nsws,lmax,cutoff):   47    1  176.3951722778
Confining potential (l,width,scale):  0    3.0000000000  100.0000000000
Confining potential (l,width,scale):  1    3.0000000000  100.0000000000
  1         -4.7312375307   -3.4155304497    7.0523828109   -1.9351020946
  2         -9.7309464766   -2.0532547791    8.2966052865   -2.2494486027
  3         -9.6627394379   -2.1124926340    8.2327997121   -2.2369778124
  4         -9.6814993499   -2.1215521045    8.2229805960   -2.2365178421
  5         -9.6843326483   -2.1250939529    8.2191374534   -2.2362718126
  6         -9.6859628709   -2.1267894855    8.2172963573   -2.2362066344
  7         -9.6867347035   -2.1276425665    8.2163697352   -2.2361903369
  8         -9.6870802100   -2.1280764625    8.2158983890   -2.2361891460
  9         -9.6872290423   -2.1282977424    8.2156580222   -2.2361920435
 10         -9.6872901988   -2.1284107021    8.2155353368   -2.2361953393
 11         -9.6873135296   -2.1284684031    8.2154726809   -2.2361979819
 12         -9.6873212476   -2.1284978948    8.2154406648   -2.2361998431
 13         -9.6873229586   -2.1285129774    8.2154242957   -2.2362010676
 14         -9.6873226456   -2.1285206957    8.2154159216   -2.2362018403
 15         -9.6873218534   -2.1285246479    8.2154116349   -2.2362023142
 16         -9.6873212599   -2.1285262679    8.2154098784   -2.2362025420
 17         -9.6873207834   -2.1285272564    8.2154088068   -2.2362026955
 18         -9.6873204210   -2.1285278596    8.2154081529   -2.2362027982
 19         -9.6873201550   -2.1285282280    8.2154077538   -2.2362028667
 20         -9.6873199645   -2.1285284529    8.2154075102   -2.2362029121
 21         -9.6873198305   -2.1285285903    8.2154073614   -2.2362029421
 22         -9.6873197377   -2.1285286742    8.2154072705   -2.2362029618
Atom SCF converged after  22 iterations to a total energy of     -9.68731974

Atom SCF Calculation for H  : Z (AE atom) =   1 : Z (PS atom) =   1
Config String:
Orbitals (num,occ):  1     1.00
Orbitals   (num,l):  1        0
Real-space Grid (nr,dr,rmax): 1203    0.0066555740    8.0000000000
Spherical Bessel Basis (nsws,lmax,cutoff):   47    0  176.3951722778
Confining potential (l,width,scale):  0    3.0000000000  100.0000000000
  1         -0.3194257691   -0.2393854593    0.2820953124   -0.2424203209
  2         -0.3951823392   -0.2377116493    0.2886404059   -0.2475147891
  3         -0.4317044583   -0.2352244387    0.2921333887   -0.2514046172
  4         -0.4470703708   -0.2341892222    0.2934391879   -0.2531009782
  5         -0.4532132900   -0.2338556667    0.2938388426   -0.2537313520
  6         -0.4556579251   -0.2337612552    0.2939448584   -0.2539550462
  7         -0.4566418315   -0.2337377355    0.2939680120   -0.2540342273
  8         -0.4570437922   -0.2337331116    0.2939708287   -0.2540627372
  9         -0.4572102946   -0.2337328328    0.2939698291   -0.2540732650
 10         -0.4572800424   -0.2337332404    0.2939687193   -0.2540772588
 11         -0.4573095100   -0.2337335791    0.2939680317   -0.2540788122
 12         -0.4573220379   -0.2337337762    0.2939676699   -0.2540794294
 13         -0.4573273880   -0.2337338775    0.2939674931   -0.2540796787
 14         -0.4573296803   -0.2337339266    0.2939674099   -0.2540797808
 15         -0.4573306647   -0.2337339495    0.2939673718   -0.2540798230
 16         -0.4573310882   -0.2337339601    0.2939673545   -0.2540798406
 17         -0.4573312706   -0.2337339649    0.2939673467   -0.2540798479
 18         -0.4573313493   -0.2337339670    0.2939673433   -0.2540798510
Atom SCF converged after  18 iterations to a total energy of     -0.45733135

Atom SCF Calculation for C  : Z (AE atom) =   6 : Z (PS atom) =   4
Config String:
Orbitals (num,occ):  2     2.00 2.00
Orbitals   (num,l):  2        0    1
Real-space Grid (nr,dr,rmax): 1203    0.0066555740    8.0000000000
Spherical Bessel Basis (nsws,lmax,cutoff):   47    1  176.3951722778
Confining potential (l,width,scale):  0    3.0000000000  100.0000000000
Confining potential (l,width,scale):  1    3.0000000000  100.0000000000
  1         -5.2976922011   -1.3069684169    4.5135249990   -1.4493313817
  2         -5.3721716256   -1.3429755895    4.4750154450   -1.4361613026
  3         -5.3809959565   -1.3617365618    4.4541655428   -1.4305930207
  4         -5.3918938866   -1.3667928461    4.4484735100   -1.4294652294
  5         -5.3956096428   -1.3688539142    4.4461376126   -1.4290734646
  6         -5.3968271862   -1.3696852393    4.4451910874   -1.4289366866
  7         -5.3972028401   -1.3700178062    4.4448112275   -1.4288900460
  8         -5.3973067903   -1.3701500158    4.4446598370   -1.4288749220
  9         -5.3973286940   -1.3702023868    4.4445997329   -1.4288704293
 10         -5.3973289850   -1.3702230869    4.4445759233   -1.4288693188
 11         -5.3973254264   -1.3702312560    4.4445665049   -1.4288691775
 12         -5.3973224003   -1.3702344755    4.4445627836   -1.4288692549
 13         -5.3973208708   -1.3702354890    4.4445616088   -1.4288693270
 14         -5.3973198783   -1.3702360102    4.4445610034   -1.4288693814
 15         -5.3973192535   -1.3702362780    4.4445606917   -1.4288694190
 16         -5.3973188684   -1.3702364155    4.4445605313   -1.4288694437
 17         -5.3973186349   -1.3702364860    4.4445604489   -1.4288694595
 18         -5.3973184951   -1.3702365221    4.4445604065   -1.4288694693
 19         -5.3973184122   -1.3702365405    4.4445603848   -1.4288694753
Atom SCF converged after  19 iterations to a total energy of     -5.39731841

Atom SCF Calculation for S  : Z (AE atom) =  16 : Z (PS atom) =   6
Config String:
Orbitals (num,occ):  3     2.00 4.00 0.00
Orbitals   (num,l):  3        0    1    2
Real-space Grid (nr,dr,rmax): 1203    0.0066555740    8.0000000000
Spherical Bessel Basis (nsws,lmax,cutoff):   47    2  176.3951722778
Confining potential (l,width,scale):  0    3.0000000000  100.0000000000
Confining potential (l,width,scale):  1    3.0000000000  100.0000000000
Confining potential (l,width,scale):  2    3.0000000000  100.0000000000
  1        -12.4735062396   -1.0328741412   10.1554312477   -2.4512393157
  2         -9.9458301913   -2.4607392455    8.3041325857   -2.0306994528
  3        -10.1450417646   -2.2931184565    8.4831893826   -2.0812538287
  4        -10.1528335592   -2.2733105793    8.5050388867   -2.0896035179
  5        -10.1571940363   -2.2633716629    8.5160794258   -2.0939370707
  6        -10.1594380571   -2.2584938667    8.5215163935   -2.0961289008
  7        -10.1605856507   -2.2561081821    8.5241804044   -2.0972291378
  8        -10.1611799191   -2.2549395235    8.5254868240   -2.0977806248
  9        -10.1614918752   -2.2543658586    8.5261285885   -2.0980571586
 10        -10.1616572884   -2.2540839121    8.5264441898   -2.0981959233
 11        -10.1617455602   -2.2539453058    8.5265994231   -2.0982656006
 12        -10.1617928447   -2.2538772062    8.5266757320   -2.0983006047
 13        -10.1618182292   -2.2538437891    8.5267131983   -2.0983181961
 14        -10.1618318741   -2.2538274201    8.5267315620   -2.0983270391
 15        -10.1618392144   -2.2538194197    8.5267405433   -2.0983314852
 16        -10.1618431651   -2.2538155200    8.5267449245   -2.0983337210
 17        -10.1618452923   -2.2538136252    8.5267470551   -2.0983348455
 18        -10.1618464380   -2.2538127080    8.5267480875   -2.0983354110
 19        -10.1618470552   -2.2538122659    8.5267485856   -2.0983356955
 20        -10.1618473878   -2.2538120540    8.5267488248   -2.0983358386
 21        -10.1618475670   -2.2538119530    8.5267489389   -2.0983359106
 22        -10.1618476637   -2.2538119053    8.5267489929   -2.0983359468
Atom SCF converged after  22 iterations to a total energy of    -10.16184766

Atom SCF Calculation for O  : Z (AE atom) =   8 : Z (PS atom) =   6
Config String:
Orbitals (num,occ):  2     2.00 4.00
Orbitals   (num,l):  2        0    1
Real-space Grid (nr,dr,rmax): 1203    0.0066555740    8.0000000000
Spherical Bessel Basis (nsws,lmax,cutoff):   47    1  176.3951722778
Confining potential (l,width,scale):  0    3.0000000000  100.0000000000
Confining potential (l,width,scale):  1    3.0000000000  100.0000000000
  1         -1.8735052164   -7.5539365035   10.1554312477   -2.4512393157
  2        -16.0318313751   -3.1285771268   13.6395848164   -3.2358799643
  3        -15.9524020423   -3.0762819706   13.6967272503   -3.2536856837
  4        -15.8521515939   -3.0781493909   13.6951909330   -3.2561700440
  5        -15.8357139793   -3.0748501933   13.6988803334   -3.2580493133
  6        -15.8246052853   -3.0740779781   13.6997881576   -3.2588327446
  7        -15.8189019501   -3.0737449687   13.7001869911   -3.2592378801
  8        -15.8159785510   -3.0736026016   13.7003615168   -3.2594475790
  9        -15.8144776168   -3.0735437994   13.7004360379   -3.2595560735
 10        -15.8137058024   -3.0735207882   13.7004667348   -3.2596122456
 11        -15.8133083127   -3.0735125946   13.7004786868   -3.2596413656
 12        -15.8131032938   -3.0735102195   13.7004828997   -3.2596564858
 13        -15.8129973902   -3.0735099286   13.7004840891   -3.2596643505
 14        -15.8129426040   -3.0735102506   13.7004842061   -3.2596684489
 15        -15.8129142203   -3.0735106556   13.7004840157   -3.2596705887
 16        -15.8128994940   -3.0735109855   13.7004837906   -3.2596717080
 17        -15.8128918425   -3.0735112169   13.7004836103   -3.2596722946
 18        -15.8128878614   -3.0735113674   13.7004834848   -3.2596726026
 19        -15.8128857871   -3.0735114608   13.7004834035   -3.2596727646
 20        -15.8128847048   -3.0735115170   13.7004833533   -3.2596728500
 21        -15.8128841394   -3.0735115501   13.7004833231   -3.2596728951
 22        -15.8128838436   -3.0735115693   13.7004833054   -3.2596729190
 23        -15.8128836887   -3.0735115802   13.7004832951   -3.2596729316
 24        -15.8128836074   -3.0735115864   13.7004832893   -3.2596729383
Atom SCF converged after  24 iterations to a total energy of    -15.81288361

========================== Calculation in vacuum ==============================
= Adjusting the following parameters: 
= is_implicit_solvent: F
= is_include_apolar: F
= write_denskern: T
= write_tightbox_ngwfs: T
= restart read filename prefix: ""
= restart write filename prefix: "vacuum_"
===============================================================================

Determining parallel strategy ...
... using space-filling curve
... NGWF load balancing: max    109;  min    108;  average    108
... Projector load balancing: max     25;  min     21;  average     22
... done
Calculating direct Ion-Ion energy ...
Ion-Ion Energy        :    823163.06221585418098
======================= Empirical dispersion information =======================
Model : Elstner
Dispersion Correction Energy: -0.32590716E+01 Hartree
================================================================================
Basis initialisation ...... NGWF spheres initialised
... Projector spheres initialised
... NGWF tight boxes initialised
... Tight-boxes gathered
... NGWF basis size (local,global):    1372780  82706995
... Nonlocal pseudopotential projector initialisation
... done

========================== Sparse matrix information ===========================
                        Overlap matrix filling:   6.74%
                        Density kernel filling: 100.00%
              NGWF-Proj overlap matrix filling:   1.78%
                    Hamiltonian matrix filling:   7.62%
                  NGWF diagonal matrix filling:   0.05%
                             KS matrix filling: 100.00% 
                           KSKS matrix filling: 100.00% 
================================================================================

Sparse matrix initialisation ... done

Generating smeared ion density ... done
Smeared ion self correction:     -14457.169564
Smeared ion non-self correction: -823115.133200
NGWF initialisation ...... done
============ Calculation of NGWF S^-1 using Hotelling algorithm ================ 
         Iteration  |  Frobenius norm and Maximum abs value    (of I-S*S_n^-1)   
               1       0.78524363E+02     0.98289044E+00
               2       0.76704178E+02     0.96626860E+00
               3       0.73744240E+02     0.93437240E+00
               4       0.69515226E+02     0.87531262E+00
               5       0.64226079E+02     0.77239555E+00
               6       0.58265425E+02     0.70786984E+00
               7       0.52252100E+02     0.67362185E+00
               8       0.46692358E+02     0.64956054E+00
               9       0.40660589E+02     0.61182841E+00
              10       0.32464487E+02     0.54616695E+00
              11       0.21936378E+02     0.43846585E+00
              12       0.11290743E+02     0.28780050E+00
              13       0.37528148E+01     0.13265081E+00
              14       0.60016971E+00     0.35083946E-01
              15       0.29392349E-01     0.32816379E-02
              16       0.16876739E-03     0.29583537E-04
              17       0.98806171E-08     0.24188973E-08
              18       0.96123701E-13     0.62172489E-14
================================================================================
Calculating local pseudopotential in open BC on the fine real space grid ...
... done

MG BCs: +ve charge blocks (gridpoints):     20126 (   15738214).
MG BCs: -ve charge blocks (gridpoints):      7893 (    1056942).
MG BCs:     Elided blocks (gridpoints):    176994 (  173981549).
MG BCs: Computational effort saved:  99.9853%.
MG BCs: Charge after coarse-graining:           -9.0002252.
MG DL_MG: Calling solver with defect correction order = 8
MG DL_MG: Solver finished
MG Hartree energy from (\int phi*rho dr):              1462.866912
MG Hartree energy from (\int eps (grad phi)^2 dr):     1462.244013
MG Discrepancy due to finite box and discretization:     -0.622899 (  -0.04258%)
MG Correction to account for finite box:                  0.463278
MG Remaining discrepancy, due to discretization:         -0.159621 (  -0.01091%)
Up spin density kernel initialisation ... 
======= Optimisation of K by Palser-Manolopoulos canonical purification ======== 
         Iteration  |  Band structure energy |    c_n   
               1       -2567.92711004922330    0.5276766
               2       -2743.10202305543498    0.5175381
               3       -2923.63607644040712    0.5152455
               4       -3075.72775649077630    0.5278696
               5       -3170.49913890488733    0.5626317
               6       -3210.68997146916081    0.6080719
               7       -3224.30757175261533    0.6211882
               8       -3230.14031809858261    0.6196385
               9       -3232.97213508833556    0.6342877
              10       -3234.14391213884028    0.6633125
              11       -3234.59128403987052    0.6890550
              12       -3234.77927208398660    0.6896409
              13       -3234.87679730634136    0.6506398
              14       -3234.93947026329579    0.5785770
              15       -3234.97921723531772    0.4676557
              16       -3234.99507103733595    0.3522857
              17       -3234.99589274127084    0.3322169
              18       -3234.99621194009205    0.3561061
              19       -3234.99645391445574    0.3965853
              20       -3234.99668609469200    0.4424988
              21       -3234.99689043250419    0.4811556
              22       -3234.99705345433995    0.4979424
              23       -3234.99716883141446    0.4999757
              24       -3234.99721921286528    0.5000000
              25       -3234.99722603145892    0.5000000
              26       -3234.99722613509493    0.5000000
Termination criterion satisfied: band energy change below threshold.
Final occupancy bounds: [    0.00000000000002:    0.99999999999987]
Closest occupancy to 0.5:     0.99999999999968
================================================================================
... done

Writing density kernel to file "host_20241.vacuum_dkn" ... done

>>> Optimising kernel for current NGWFs:
   Initial electron number for spin 1:    7192.00000000
     Final electron number for spin 1:    7192.00000000

=================== Penalty functional idempotency correction ==================
 RMS occupancy error at iteration   1:  0.000000 (step -0.5000 Ne1=   7192.0000)
            Final RMS occupancy error   :  0.000000 (Ne1=   7192.0000)
               Final occupancy bounds   : [ -0.0000,  1.0000]
================================================================================

................................................................................
<<<<<<<<<<<<<< LNV (Original version) density kernel optimisation >>>>>>>>>>>>>>
~~~~~~~~~~~~~~~~~~~~~~~~~~~~~~~~~~~~~~~~~~~~~~~~~~~~~~~~~~~~~~~~~~~~~~~~~~~~~~~~
   iter  |      energy (Eh)       | rms gradient |  commutator  |   dE (Eh)
MG BCs: +ve charge blocks (gridpoints):     30618 (   16948589).
MG BCs: -ve charge blocks (gridpoints):      8223 (    1088930).
MG BCs:     Elided blocks (gridpoints):    166490 (  172739186).
MG BCs: Computational effort saved:  99.9796%.
MG BCs: Charge after coarse-graining:           -9.0009473.
MG DL_MG: Calling solver with defect correction order = 8
MG DL_MG: Solver finished
MG Hartree energy from (\int phi*rho dr):              1419.300470
MG Hartree energy from (\int eps (grad phi)^2 dr):     1418.625152
MG Discrepancy due to finite box and discretization:     -0.675318 (  -0.04758%)
MG Correction to account for finite box:                  0.471276
MG Remaining discrepancy, due to discretization:         -0.204042 (  -0.01438%)
      ideal mu1:      -0.693718040713
             Q0:  -11505.730746856076
             G0:    -142.802005812108
   RMS gradient:       0.001837045246
MG BCs: +ve charge blocks (gridpoints):     30595 (   17030914).
MG BCs: -ve charge blocks (gridpoints):      8104 (    1069383).
MG BCs:     Elided blocks (gridpoints):    166510 (  172676408).
MG BCs: Computational effort saved:  99.9797%.
MG BCs: Charge after coarse-graining:           -9.0009697.
MG DL_MG: Calling solver with defect correction order = 8
MG DL_MG: Solver finished
MG Hartree energy from (\int phi*rho dr):              1444.264548
MG Hartree energy from (\int eps (grad phi)^2 dr):     1443.606534
MG Discrepancy due to finite box and discretization:     -0.658014 (  -0.04556%)
MG Correction to account for finite box:                  0.470455
MG Remaining discrepancy, due to discretization:         -0.187559 (  -0.01299%)
     Trial step:       0.500000000000
             Q1:  -11517.131740064826
 Quadratic coef:      60.000009697304
 Linear coef   :     -71.401002906054
           Qmin:  -11526.972840156184
Quadratic minimum step length (  0.297504130692) accepted
    Initial Ne1:    7192.00000000
      Final Ne1:    7192.00000000

=================== Penalty functional idempotency correction ==================
 RMS occupancy error at iteration   1:  0.003361 (step -0.4886 Ne1=   7192.0000)
 RMS occupancy error at iteration   2:  0.000028 (step -0.5002 Ne1=   7192.0000)
            Final RMS occupancy error   :  0.000000 (Ne1=   7192.0000)
               Final occupancy bounds   : [  0.0000,  1.0000]
================================================================================

    1        -1.150573074686E+04     1.8370E-03     1.6616E-03
MG BCs: +ve charge blocks (gridpoints):     30594 (   16998789).
MG BCs: -ve charge blocks (gridpoints):      8156 (    1077637).
MG BCs:     Elided blocks (gridpoints):    166512 (  172700279).
MG BCs: Computational effort saved:  99.9797%.
MG BCs: Charge after coarse-graining:           -9.0009609.
MG DL_MG: Calling solver with defect correction order = 8
MG DL_MG: Solver finished
MG Hartree energy from (\int phi*rho dr):              1426.340334
MG Hartree energy from (\int eps (grad phi)^2 dr):     1425.676262
MG Discrepancy due to finite box and discretization:     -0.664072 (  -0.04656%)
MG Correction to account for finite box:                  0.470706
MG Remaining discrepancy, due to discretization:         -0.193366 (  -0.01356%)
      ideal mu1:      -0.738854009189
             Q0:  -11527.360704033868
             G0:     -11.948201615382
   RMS gradient:       0.000527869815
MG BCs: +ve charge blocks (gridpoints):     30598 (   17015748).
MG BCs: -ve charge blocks (gridpoints):      8128 (    1072589).
MG BCs:     Elided blocks (gridpoints):    166508 (  172688368).
MG BCs: Computational effort saved:  99.9797%.
MG BCs: Charge after coarse-graining:           -9.0009650.
MG DL_MG: Calling solver with defect correction order = 8
MG DL_MG: Solver finished
MG Hartree energy from (\int phi*rho dr):              1431.395661
MG Hartree energy from (\int eps (grad phi)^2 dr):     1430.735580
MG Discrepancy due to finite box and discretization:     -0.660082 (  -0.04611%)
MG Correction to account for finite box:                  0.470020
MG Remaining discrepancy, due to discretization:         -0.190061 (  -0.01328%)
     Trial step:       0.385683893034
             Q1:  -11530.157907422865
 Quadratic coef:       1.811025524781
 Linear coef   :      -4.608228913778
           Qmin:  -11530.292161022078
Quadratic minimum step length (  0.490694262212) accepted
    Initial Ne1:    7191.99980142
      Final Ne1:    7192.00000000

=================== Penalty functional idempotency correction ==================
 RMS occupancy error at iteration   1:  0.001788 (step -0.4927 Ne1=   7192.0000)
 RMS occupancy error at iteration   2:  0.000016 (step -0.5005 Ne1=   7192.0000)
            Final RMS occupancy error   :  0.000000 (Ne1=   7192.0000)
               Final occupancy bounds   : [  0.0000,  1.0000]
================================================================================

    2        -1.152736070403E+04     5.2787E-04     4.7745E-04    -2.1630E+01
MG BCs: +ve charge blocks (gridpoints):     30598 (   17020445).
MG BCs: -ve charge blocks (gridpoints):      8121 (    1071180).
MG BCs:     Elided blocks (gridpoints):    166508 (  172685080).
MG BCs: Computational effort saved:  99.9797%.
MG BCs: Charge after coarse-graining:           -9.0009661.
MG DL_MG: Calling solver with defect correction order = 8
MG DL_MG: Solver finished
MG Hartree energy from (\int phi*rho dr):              1432.821281
MG Hartree energy from (\int eps (grad phi)^2 dr):     1432.162208
MG Discrepancy due to finite box and discretization:     -0.659072 (  -0.04600%)
MG Correction to account for finite box:                  0.469847
MG Remaining discrepancy, due to discretization:         -0.189225 (  -0.01321%)
      ideal mu1:      -0.764374641927
             Q0:  -11530.327901802026
             G0:      -1.892850884042
   RMS gradient:       0.000210172018
MG BCs: +ve charge blocks (gridpoints):     30601 (   17019790).
MG BCs: -ve charge blocks (gridpoints):      8122 (    1072139).
MG BCs:     Elided blocks (gridpoints):    166505 (  172684776).
MG BCs: Computational effort saved:  99.9797%.
MG BCs: Charge after coarse-graining:           -9.0009657.
MG DL_MG: Calling solver with defect correction order = 8
MG DL_MG: Solver finished
MG Hartree energy from (\int phi*rho dr):              1430.684625
MG Hartree energy from (\int eps (grad phi)^2 dr):     1430.026049
MG Discrepancy due to finite box and discretization:     -0.658575 (  -0.04603%)
MG Correction to account for finite box:                  0.469564
MG Remaining discrepancy, due to discretization:         -0.189011 (  -0.01321%)
     Trial step:       0.435032037141
             Q1:  -11530.812322192942
 Quadratic coef:       0.339030385174
 Linear coef   :      -0.823450776090
           Qmin:  -11530.827909478547
Quadratic minimum step length (  0.528311744719) accepted
    Initial Ne1:    7191.99979763
      Final Ne1:    7192.00000000

=================== Penalty functional idempotency correction ==================
 RMS occupancy error at iteration   1:  0.000638 (step -0.4964 Ne1=   7192.0000)
 RMS occupancy error at iteration   2:  0.000005 (step -0.5000 Ne1=   7192.0000)
            Final RMS occupancy error   :  0.000000 (Ne1=   7192.0000)
               Final occupancy bounds   : [  0.0000,  1.0000]
================================================================================

    3        -1.153032790180E+04     2.1017E-04     1.9010E-04    -2.9672E+00
MG BCs: +ve charge blocks (gridpoints):     30598 (   17019637).
MG BCs: -ve charge blocks (gridpoints):      8120 (    1072315).
MG BCs:     Elided blocks (gridpoints):    166507 (  172684753).
MG BCs: Computational effort saved:  99.9797%.
MG BCs: Charge after coarse-graining:           -9.0009657.
MG DL_MG: Calling solver with defect correction order = 8
MG DL_MG: Solver finished
MG Hartree energy from (\int phi*rho dr):              1430.236371
MG Hartree energy from (\int eps (grad phi)^2 dr):     1429.577891
MG Discrepancy due to finite box and discretization:     -0.658480 (  -0.04604%)
MG Correction to account for finite box:                  0.469504
MG Remaining discrepancy, due to discretization:         -0.188976 (  -0.01321%)
      ideal mu1:      -0.765572961280
             Q0:  -11530.832454625051
             G0:      -0.493946022928
   RMS gradient:       0.000107503351
MG BCs: +ve charge blocks (gridpoints):     30604 (   17020525).
MG BCs: -ve charge blocks (gridpoints):      8120 (    1072113).
MG BCs:     Elided blocks (gridpoints):    166501 (  172684067).
MG BCs: Computational effort saved:  99.9797%.
MG BCs: Charge after coarse-graining:           -9.0009658.
MG DL_MG: Calling solver with defect correction order = 8
MG DL_MG: Solver finished
MG Hartree energy from (\int phi*rho dr):              1431.484991
MG Hartree energy from (\int eps (grad phi)^2 dr):     1430.826513
MG Discrepancy due to finite box and discretization:     -0.658479 (  -0.04600%)
MG Correction to account for finite box:                  0.469401
MG Remaining discrepancy, due to discretization:         -0.189077 (  -0.01321%)
     Trial step:       0.479408525739
             Q1:  -11530.956873310963
 Quadratic coef:       0.112383248736
 Linear coef   :      -0.236801934647
           Qmin:  -11530.957195538140
Quadratic minimum step length (  0.505079127264) accepted
    Initial Ne1:    7191.99994959
      Final Ne1:    7192.00000000

=================== Penalty functional idempotency correction ==================
 RMS occupancy error at iteration   1:  0.000302 (step -0.4937 Ne1=   7192.0000)
 RMS occupancy error at iteration   2:  0.000004 (step -0.5000 Ne1=   7192.0000)
            Final RMS occupancy error   :  0.000000 (Ne1=   7192.0000)
               Final occupancy bounds   : [  0.0000,  1.0000]
================================================================================

    4        -1.153083245463E+04     1.0750E-04     9.7234E-05    -5.0455E-01
MG BCs: +ve charge blocks (gridpoints):     30604 (   17020538).
MG BCs: -ve charge blocks (gridpoints):      8120 (    1072113).
MG BCs:     Elided blocks (gridpoints):    166501 (  172684054).
MG BCs: Computational effort saved:  99.9797%.
MG BCs: Charge after coarse-graining:           -9.0009658.
MG DL_MG: Calling solver with defect correction order = 8
MG DL_MG: Solver finished
MG Hartree energy from (\int phi*rho dr):              1431.552520
MG Hartree energy from (\int eps (grad phi)^2 dr):     1430.894041
MG Discrepancy due to finite box and discretization:     -0.658479 (  -0.04600%)
MG Correction to account for finite box:                  0.469396
MG Remaining discrepancy, due to discretization:         -0.189083 (  -0.01321%)
      ideal mu1:      -0.765821409090
             Q0:  -11530.957774575683
             G0:      -0.191795419763
   RMS gradient:       0.000067175936
MG BCs: +ve charge blocks (gridpoints):     30600 (   17020639).
MG BCs: -ve charge blocks (gridpoints):      8122 (    1072000).
MG BCs:     Elided blocks (gridpoints):    166505 (  172684066).
MG BCs: Computational effort saved:  99.9797%.
MG BCs: Charge after coarse-graining:           -9.0009657.
MG DL_MG: Calling solver with defect correction order = 8
MG DL_MG: Solver finished
MG Hartree energy from (\int phi*rho dr):              1431.966102
MG Hartree energy from (\int eps (grad phi)^2 dr):     1431.307480
MG Discrepancy due to finite box and discretization:     -0.658623 (  -0.04599%)
MG Correction to account for finite box:                  0.469375
MG Remaining discrepancy, due to discretization:         -0.189247 (  -0.01322%)
     Trial step:       0.492076457254
             Q1:  -11531.020031083724
 Quadratic coef:       0.032121502632
 Linear coef   :      -0.094378010674
           Qmin:  -11531.027098923620
Quadratic minimum step length (  0.722898889052) accepted
    Initial Ne1:    7191.99997141
      Final Ne1:    7192.00000000

=================== Penalty functional idempotency correction ==================
 RMS occupancy error at iteration   1:  0.000561 (step -0.4662 Ne1=   7192.0000)
 RMS occupancy error at iteration   2:  0.000015 (step -0.4999 Ne1=   7192.0000)
            Final RMS occupancy error   :  0.000000 (Ne1=   7192.0000)
               Final occupancy bounds   : [ -0.0000,  1.0000]
================================================================================

    5        -1.153095777458E+04     6.7176E-05     6.0759E-05    -1.2532E-01
MG BCs: +ve charge blocks (gridpoints):     30601 (   17020655).
MG BCs: -ve charge blocks (gridpoints):      8122 (    1071964).
MG BCs:     Elided blocks (gridpoints):    166504 (  172684086).
MG BCs: Computational effort saved:  99.9797%.
MG BCs: Charge after coarse-graining:           -9.0009657.
MG DL_MG: Calling solver with defect correction order = 8
MG DL_MG: Solver finished
MG Hartree energy from (\int phi*rho dr):              1432.158844
MG Hartree energy from (\int eps (grad phi)^2 dr):     1431.500154
MG Discrepancy due to finite box and discretization:     -0.658690 (  -0.04599%)
MG Correction to account for finite box:                  0.469365
MG Remaining discrepancy, due to discretization:         -0.189325 (  -0.01322%)
      ideal mu1:      -0.765971630436
             Q0:  -11531.026227404014
             G0:      -0.188530495293
   RMS gradient:       0.000067274359
MG BCs: +ve charge blocks (gridpoints):     30599 (   17019778).
MG BCs: -ve charge blocks (gridpoints):      8123 (    1072408).
MG BCs:     Elided blocks (gridpoints):    166506 (  172684519).
MG BCs: Computational effort saved:  99.9797%.
MG BCs: Charge after coarse-graining:           -9.0009655.
MG DL_MG: Calling solver with defect correction order = 8
MG DL_MG: Solver finished
MG Hartree energy from (\int phi*rho dr):              1430.806820
MG Hartree energy from (\int eps (grad phi)^2 dr):     1430.148173
MG Discrepancy due to finite box and discretization:     -0.658647 (  -0.04603%)
MG Correction to account for finite box:                  0.469337
MG Remaining discrepancy, due to discretization:         -0.189310 (  -0.01323%)
     Trial step:       0.596423946767
             Q1:  -11531.108561457018
 Quadratic coef:       0.030110049085
 Linear coef   :      -0.112444102088
           Qmin:  -11531.131206277170
Quadratic minimum step length (  1.113654032391) accepted
    Initial Ne1:    7191.99996885
      Final Ne1:    7192.00000000

=================== Penalty functional idempotency correction ==================
 RMS occupancy error at iteration   1:  0.004040 (step -0.3165 Ne1=   7192.0000)
 RMS occupancy error at iteration   2:  0.000330 (step -0.4847 Ne1=   7192.0000)
 RMS occupancy error at iteration   3:  0.000007 (step -0.5002 Ne1=   7192.0000)
            Final RMS occupancy error   :  0.000000 (Ne1=   7192.0000)
               Final occupancy bounds   : [  0.0000,  1.0000]
================================================================================

    6        -1.153102622740E+04     6.7274E-05     6.0848E-05    -6.8453E-02
MG BCs: +ve charge blocks (gridpoints):     30600 (   17018955).
MG BCs: -ve charge blocks (gridpoints):      8123 (    1072804).
MG BCs:     Elided blocks (gridpoints):    166505 (  172684946).
MG BCs: Computational effort saved:  99.9797%.
MG BCs: Charge after coarse-graining:           -9.0009653.
MG DL_MG: Calling solver with defect correction order = 8
MG DL_MG: Solver finished
MG Hartree energy from (\int phi*rho dr):              1429.653221
MG Hartree energy from (\int eps (grad phi)^2 dr):     1428.994582
MG Discrepancy due to finite box and discretization:     -0.658639 (  -0.04607%)
MG Correction to account for finite box:                  0.469338
MG Remaining discrepancy, due to discretization:         -0.189300 (  -0.01324%)
      ideal mu1:      -0.766225371420
             Q0:  -11531.115269367583
             G0:      -0.313670347422
   RMS gradient:       0.000086097280
MG BCs: +ve charge blocks (gridpoints):     30602 (   17021416).
MG BCs: -ve charge blocks (gridpoints):      8117 (    1071526).
MG BCs:     Elided blocks (gridpoints):    166503 (  172683763).
MG BCs: Computational effort saved:  99.9797%.
MG BCs: Charge after coarse-graining:           -9.0009662.
MG DL_MG: Calling solver with defect correction order = 8
MG DL_MG: Solver finished
MG Hartree energy from (\int phi*rho dr):              1432.567721
MG Hartree energy from (\int eps (grad phi)^2 dr):     1431.909391
MG Discrepancy due to finite box and discretization:     -0.658330 (  -0.04595%)
MG Correction to account for finite box:                  0.469233
MG Remaining discrepancy, due to discretization:         -0.189098 (  -0.01320%)
     Trial step:       0.814990756593
             Q1:  -11531.211032268824
 Quadratic coef:       0.159875532525
 Linear coef   :      -0.255638433767
           Qmin:  -11531.217459815030
Quadratic minimum step length (  0.651578628885) accepted
    Initial Ne1:    7191.99996153
      Final Ne1:    7192.00000000

=================== Penalty functional idempotency correction ==================
 RMS occupancy error at iteration   1:  0.000217 (step -0.4837 Ne1=   7192.0000)
 RMS occupancy error at iteration   2:  0.000002 (step -0.5000 Ne1=   7192.0000)
            Final RMS occupancy error   :  0.000000 (Ne1=   7192.0000)
               Final occupancy bounds   : [  0.0000,  1.0000]
================================================================================

    7        -1.153111526937E+04     8.6097E-05     7.7873E-05    -8.9042E-02
MG BCs: +ve charge blocks (gridpoints):     30602 (   17020988).
MG BCs: -ve charge blocks (gridpoints):      8122 (    1071768).
MG BCs:     Elided blocks (gridpoints):    166503 (  172683949).
MG BCs: Computational effort saved:  99.9797%.
MG BCs: Charge after coarse-graining:           -9.0009659.
MG DL_MG: Calling solver with defect correction order = 8
MG DL_MG: Solver finished
MG Hartree energy from (\int phi*rho dr):              1431.981045
MG Hartree energy from (\int eps (grad phi)^2 dr):     1431.322651
MG Discrepancy due to finite box and discretization:     -0.658394 (  -0.04598%)
MG Correction to account for finite box:                  0.469257
MG Remaining discrepancy, due to discretization:         -0.189137 (  -0.01321%)
      ideal mu1:      -0.767447617167
             Q0:  -11531.217602296500
             G0:      -0.250538982765
   RMS gradient:       0.000076911208
MG BCs: +ve charge blocks (gridpoints):     30601 (   17020981).
MG BCs: -ve charge blocks (gridpoints):      8121 (    1071689).
MG BCs:     Elided blocks (gridpoints):    166504 (  172684035).
MG BCs: Computational effort saved:  99.9797%.
MG BCs: Charge after coarse-graining:           -9.0009661.
MG DL_MG: Calling solver with defect correction order = 8
MG DL_MG: Solver finished
MG Hartree energy from (\int phi*rho dr):              1431.928908
MG Hartree energy from (\int eps (grad phi)^2 dr):     1431.270886
MG Discrepancy due to finite box and discretization:     -0.658022 (  -0.04595%)
MG Correction to account for finite box:                  0.469051
MG Remaining discrepancy, due to discretization:         -0.188971 (  -0.01320%)
     Trial step:       0.728718436527
             Q1:  -11531.331561748520
 Quadratic coef:       0.068612923789
 Linear coef   :      -0.182572375810
           Qmin:  -11531.339054169441
Quadratic minimum step length (  0.969524755001) accepted
    Initial Ne1:    7191.99995387
      Final Ne1:    7192.00000000

=================== Penalty functional idempotency correction ==================
 RMS occupancy error at iteration   1:  0.002351 (step -0.3643 Ne1=   7192.0000)
 RMS occupancy error at iteration   2:  0.000097 (step -0.4948 Ne1=   7192.0000)
 RMS occupancy error at iteration   3:  0.000001 (step -0.5000 Ne1=   7192.0000)
            Final RMS occupancy error   :  0.000000 (Ne1=   7192.0000)
               Final occupancy bounds   : [  0.0000,  1.0000]
================================================================================

    8        -1.153121760230E+04     7.6911E-05     6.9564E-05    -1.0233E-01
MG BCs: +ve charge blocks (gridpoints):     30601 (   17021034).
MG BCs: -ve charge blocks (gridpoints):      8120 (    1071667).
MG BCs:     Elided blocks (gridpoints):    166504 (  172684004).
MG BCs: Computational effort saved:  99.9797%.
MG BCs: Charge after coarse-graining:           -9.0009661.
MG DL_MG: Calling solver with defect correction order = 8
MG DL_MG: Solver finished
MG Hartree energy from (\int phi*rho dr):              1431.921127
MG Hartree energy from (\int eps (grad phi)^2 dr):     1431.263200
MG Discrepancy due to finite box and discretization:     -0.657927 (  -0.04595%)
MG Correction to account for finite box:                  0.469009
MG Remaining discrepancy, due to discretization:         -0.188917 (  -0.01319%)
      ideal mu1:      -0.768257655202
             Q0:  -11531.329454503953
             G0:      -0.367097131314
   RMS gradient:       0.000096271842
========================= Kernel Line Step Protection ==========================
|  Iter |  Trial Step |   RMS Occupancy Error |   Occupancy Bounds | Accepted? |
    0        0.000000                0.000000    [ 1.0000:  0.0000]
    1        0.840542                0.011132    [ 1.4343: -0.4404]        No
    2        0.420271                0.003939    [ 1.1857: -0.1880]       Yes
================================================================================
MG BCs: +ve charge blocks (gridpoints):     30601 (   17020391).
MG BCs: -ve charge blocks (gridpoints):      8124 (    1071995).
MG BCs:     Elided blocks (gridpoints):    166504 (  172684319).
MG BCs: Computational effort saved:  99.9797%.
MG BCs: Charge after coarse-graining:           -9.0009661.
MG DL_MG: Calling solver with defect correction order = 8
MG DL_MG: Solver finished
MG Hartree energy from (\int phi*rho dr):              1431.110952
MG Hartree energy from (\int eps (grad phi)^2 dr):     1430.453429
MG Discrepancy due to finite box and discretization:     -0.657523 (  -0.04594%)
MG Correction to account for finite box:                  0.468680
MG Remaining discrepancy, due to discretization:         -0.188844 (  -0.01320%)
     Trial step:       0.420270913709
             Q1:  -11531.419924800168
 Quadratic coef:       0.063809950583
 Linear coef   :      -0.154280246797
           Qmin:  -11531.422709530538
Quadratic minimum step length (  0.508067313140) accepted
    Initial Ne1:    7191.99996210
      Final Ne1:    7192.00000000

=================== Penalty functional idempotency correction ==================
 RMS occupancy error at iteration   1:  0.005172 (step -0.2772 Ne1=   7192.0000)
 RMS occupancy error at iteration   2:  0.000303 (step -0.4821 Ne1=   7192.0000)
 RMS occupancy error at iteration   3:  0.000005 (step -0.5000 Ne1=   7192.0000)
            Final RMS occupancy error   :  0.000000 (Ne1=   7192.0000)
               Final occupancy bounds   : [  0.0000,  1.0000]
================================================================================

    9        -1.153132945450E+04     9.6272E-05     8.7076E-05    -1.1185E-01
MG BCs: +ve charge blocks (gridpoints):     30602 (   17020300).
MG BCs: -ve charge blocks (gridpoints):      8125 (    1072067).
MG BCs:     Elided blocks (gridpoints):    166503 (  172684338).
MG BCs: Computational effort saved:  99.9797%.
MG BCs: Charge after coarse-graining:           -9.0009660.
MG DL_MG: Calling solver with defect correction order = 8
MG DL_MG: Solver finished
MG Hartree energy from (\int phi*rho dr):              1430.946429
MG Hartree energy from (\int eps (grad phi)^2 dr):     1430.288898
MG Discrepancy due to finite box and discretization:     -0.657531 (  -0.04595%)
MG Correction to account for finite box:                  0.468709
MG Remaining discrepancy, due to discretization:         -0.188822 (  -0.01320%)
      ideal mu1:      -0.768537983899
   10        -1.153142955311E+04     9.6957E-05     8.7696E-05    -1.0010E-01
Finished density kernel iterations (  10)

Writing density kernel to file "host_20241.vacuum_dkn" ... done


>>> Density kernel optimised for the current NGWF basis:
     ~~~~~~~~~~~~~~~~~~~~~~~~~~~~~~~~~~~~~~~~~~~~~~~~~~~~~~~~~~~
     Total energy                =  -1.15314295531051E+04  Eh
     Estimated bandgap           =  -3.1145E-01  Eh
     RMS occupancy error         =   1.2136E-09
     [H,K] commutator            =   8.7696E-05
     Occupancy bounds            = [  0.000:  1.000]
     ~~~~~~~~~~~~~~~~~~~~~~~~~~~~~~~~~~~~~~~~~~~~~~~~~~~~~~~~~~~




################################################################################
########################### NGWF CG iteration  001 #############################
################################################################################
****** Reciprocal space K.E. preconditioning with k_zero =  3.5000 a0^-1 *******

>>> Checking for convergence of NGWFs:   NOT CONVERGED
  ========================================================================
         NGWF RMS gradient =  1.6323E-03 >  2.0000E-06  | above tolerance
  ========================================================================

>>> Improving NGWFs using line search:
============ Calculation of NGWF S^-1 using Hotelling algorithm ================ 
         Iteration  |  Frobenius norm and Maximum abs value    (of I-S*S_n^-1)   
               1       0.20306068E+00     0.55289752E-02
               2       0.96267053E-03     0.44328122E-04
               3       0.37693371E-07     0.28378806E-08
               4       0.12634942E-12     0.55511151E-14
================================================================================
MG BCs: +ve charge blocks (gridpoints):     30130 (   16962019).
MG BCs: -ve charge blocks (gridpoints):      8128 (    1071876).
MG BCs:     Elided blocks (gridpoints):    166983 (  172742810).
MG BCs: Computational effort saved:  99.9799%.
MG BCs: Charge after coarse-graining:           -9.0009707.
MG DL_MG: Calling solver with defect correction order = 8
MG DL_MG: Solver finished
MG Hartree energy from (\int phi*rho dr):              1398.705729
MG Hartree energy from (\int eps (grad phi)^2 dr):     1398.049084
MG Discrepancy due to finite box and discretization:     -0.656645 (  -0.04695%)
MG Correction to account for finite box:                  0.468655
MG Remaining discrepancy, due to discretization:         -0.187990 (  -0.01344%)
============ Calculation of NGWF S^-1 using Hotelling algorithm ================ 
         Iteration  |  Frobenius norm and Maximum abs value    (of I-S*S_n^-1)   
               1       0.18290422E+01     0.42511819E-01
               2       0.69726906E-01     0.23867305E-02
               3       0.13929665E-03     0.82512762E-05
               4       0.10478948E-08     0.11250945E-09
               5       0.11021332E-12     0.44408921E-14
================================================================================
------------------------------- NGWF line search -------------------------------
RMS gradient                =       0.00163228900404
Trial step length           =               0.122474
Gradient along search dir.  =       -283.59065858760
Functional at step 0        =  -11531.42955310514662
Functional at step 1        =  -11563.43555393081624
Functional predicted        =  -11642.03857479044018
Selected quadratic step     =               0.780061
--------------------------- NGWF line search finished --------------------------
                                               
Writing NGWFs to file "host_20241.vacuum_tightbox_ngwfs"....  done

>>> Optimising kernel for current NGWFs:
   Initial electron number for spin 1:    7226.65884779
     Final electron number for spin 1:    7192.00000000

=================== Penalty functional idempotency correction ==================
 RMS occupancy error at iteration   1:  0.004361 (step -0.4852 Ne1=   7192.0000)
 RMS occupancy error at iteration   2:  0.000076 (step -0.5003 Ne1=   7192.0000)
            Final RMS occupancy error   :  0.000000 (Ne1=   7192.0000)
               Final occupancy bounds   : [  0.0000,  1.0000]
================================================================================

................................................................................
<<<<<<<<<<<<<< LNV (Original version) density kernel optimisation >>>>>>>>>>>>>>
~~~~~~~~~~~~~~~~~~~~~~~~~~~~~~~~~~~~~~~~~~~~~~~~~~~~~~~~~~~~~~~~~~~~~~~~~~~~~~~~
   iter  |      energy (Eh)       | rms gradient |  commutator  |   dE (Eh)
MG BCs: +ve charge blocks (gridpoints):     24431 (   16644185).
MG BCs: -ve charge blocks (gridpoints):      8272 (    1055755).
MG BCs:     Elided blocks (gridpoints):    172689 (  173076765).
MG BCs: Computational effort saved:  99.9829%.
MG BCs: Charge after coarse-graining:           -9.0006833.
MG DL_MG: Calling solver with defect correction order = 8
MG DL_MG: Solver finished
MG Hartree energy from (\int phi*rho dr):              1247.227311
MG Hartree energy from (\int eps (grad phi)^2 dr):     1246.570462
MG Discrepancy due to finite box and discretization:     -0.656849 (  -0.05266%)
MG Correction to account for finite box:                  0.468412
MG Remaining discrepancy, due to discretization:         -0.188436 (  -0.01511%)
      ideal mu1:      -0.709375806154
             Q0:  -11641.267545894487
             G0:      -9.788117512005
   RMS gradient:       0.000480952611
MG BCs: +ve charge blocks (gridpoints):     24466 (   16651837).
MG BCs: -ve charge blocks (gridpoints):      8262 (    1054065).
MG BCs:     Elided blocks (gridpoints):    172654 (  173070803).
MG BCs: Computational effort saved:  99.9828%.
MG BCs: Charge after coarse-graining:           -9.0006808.
MG DL_MG: Calling solver with defect correction order = 8
MG DL_MG: Solver finished
MG Hartree energy from (\int phi*rho dr):              1255.822457
MG Hartree energy from (\int eps (grad phi)^2 dr):     1255.162375
MG Discrepancy due to finite box and discretization:     -0.660081 (  -0.05256%)
MG Correction to account for finite box:                  0.467709
MG Remaining discrepancy, due to discretization:         -0.192372 (  -0.01532%)
     Trial step:       0.462088642923
             Q1:  -11642.662652828731
 Quadratic coef:       3.127871003653
 Linear coef   :      -4.522977937897
           Qmin:  -11642.902630062184
Quadratic minimum step length (  0.334095737141) accepted
    Initial Ne1:    7191.99949247
      Final Ne1:    7192.00000000

=================== Penalty functional idempotency correction ==================
 RMS occupancy error at iteration   1:  0.000391 (step -0.4966 Ne1=   7192.0000)
 RMS occupancy error at iteration   2:  0.000003 (step -0.5000 Ne1=   7192.0000)
            Final RMS occupancy error   :  0.000000 (Ne1=   7192.0000)
               Final occupancy bounds   : [  0.0000,  1.0000]
================================================================================

    1        -1.164126754589E+04     4.8095E-04     4.3501E-04
MG BCs: +ve charge blocks (gridpoints):     24457 (   16649832).
MG BCs: -ve charge blocks (gridpoints):      8266 (    1054496).
MG BCs:     Elided blocks (gridpoints):    172663 (  173072377).
MG BCs: Computational effort saved:  99.9828%.
MG BCs: Charge after coarse-graining:           -9.0006814.
MG DL_MG: Calling solver with defect correction order = 8
MG DL_MG: Solver finished
MG Hartree energy from (\int phi*rho dr):              1253.127827
MG Hartree energy from (\int eps (grad phi)^2 dr):     1252.468673
MG Discrepancy due to finite box and discretization:     -0.659154 (  -0.05260%)
MG Correction to account for finite box:                  0.467897
MG Remaining discrepancy, due to discretization:         -0.191256 (  -0.01526%)
      ideal mu1:      -0.716229070132
             Q0:  -11642.896368269925
             G0:      -1.219383691705
   RMS gradient:       0.000169472125
MG BCs: +ve charge blocks (gridpoints):     24457 (   16648947).
MG BCs: -ve charge blocks (gridpoints):      8268 (    1055310).
MG BCs:     Elided blocks (gridpoints):    172663 (  173072448).
MG BCs: Computational effort saved:  99.9828%.
MG BCs: Charge after coarse-graining:           -9.0006815.
MG DL_MG: Calling solver with defect correction order = 8
MG DL_MG: Solver finished
MG Hartree energy from (\int phi*rho dr):              1253.767018
MG Hartree energy from (\int eps (grad phi)^2 dr):     1253.107852
MG Discrepancy due to finite box and discretization:     -0.659166 (  -0.05257%)
MG Correction to account for finite box:                  0.467491
MG Remaining discrepancy, due to discretization:         -0.191676 (  -0.01529%)
     Trial step:       0.392914552774
             Q1:  -11643.185294752708
 Quadratic coef:       0.190187115104
 Linear coef   :      -0.479113597887
           Qmin:  -11643.198110372110
Quadratic minimum step length (  0.494909197552) accepted
    Initial Ne1:    7191.99990567
      Final Ne1:    7192.00000000

=================== Penalty functional idempotency correction ==================
 RMS occupancy error at iteration   1:  0.000560 (step -0.4641 Ne1=   7192.0000)
 RMS occupancy error at iteration   2:  0.000015 (step -0.5000 Ne1=   7192.0000)
            Final RMS occupancy error   :  0.000000 (Ne1=   7192.0000)
               Final occupancy bounds   : [  0.0000,  1.0000]
================================================================================

    2        -1.164289636827E+04     1.6947E-04     1.5328E-04    -1.6288E+00
MG BCs: +ve charge blocks (gridpoints):     24455 (   16648730).
MG BCs: -ve charge blocks (gridpoints):      8266 (    1055532).
MG BCs:     Elided blocks (gridpoints):    172665 (  173072443).
MG BCs: Computational effort saved:  99.9828%.
MG BCs: Charge after coarse-graining:           -9.0006815.
MG DL_MG: Calling solver with defect correction order = 8
MG DL_MG: Solver finished
MG Hartree energy from (\int phi*rho dr):              1253.933941
MG Hartree energy from (\int eps (grad phi)^2 dr):     1253.274761
MG Discrepancy due to finite box and discretization:     -0.659180 (  -0.05257%)
MG Correction to account for finite box:                  0.467393
MG Remaining discrepancy, due to discretization:         -0.191788 (  -0.01529%)
      ideal mu1:      -0.718297367339
             Q0:  -11643.197521160124
             G0:      -0.391371059868
   RMS gradient:       0.000096248092
MG BCs: +ve charge blocks (gridpoints):     24455 (   16647802).
MG BCs: -ve charge blocks (gridpoints):      8269 (    1056014).
MG BCs:     Elided blocks (gridpoints):    172665 (  173072889).
MG BCs: Computational effort saved:  99.9828%.
MG BCs: Charge after coarse-graining:           -9.0006816.
MG DL_MG: Calling solver with defect correction order = 8
MG DL_MG: Solver finished
MG Hartree energy from (\int phi*rho dr):              1253.281398
MG Hartree energy from (\int eps (grad phi)^2 dr):     1252.622713
MG Discrepancy due to finite box and discretization:     -0.658685 (  -0.05256%)
MG Correction to account for finite box:                  0.466904
MG Remaining discrepancy, due to discretization:         -0.191781 (  -0.01530%)
     Trial step:       0.440972817779
             Q1:  -11643.329072689172
 Quadratic coef:       0.041032470019
 Linear coef   :      -0.172583999067
           Qmin:  -11643.378994738978
Quadratic minimum step length (  0.927373520746) accepted
    Initial Ne1:    7191.99989779
      Final Ne1:    7192.00000000

=================== Penalty functional idempotency correction ==================
 RMS occupancy error at iteration   1:  0.002855 (step -0.3414 Ne1=   7192.0000)
 RMS occupancy error at iteration   2:  0.000067 (step -0.4997 Ne1=   7192.0000)
            Final RMS occupancy error   :  0.000000 (Ne1=   7192.0000)
               Final occupancy bounds   : [ -0.0000,  1.0000]
================================================================================

    3        -1.164319752116E+04     9.6248E-05     8.7054E-05    -3.0115E-01
MG BCs: +ve charge blocks (gridpoints):     24455 (   16646784).
MG BCs: -ve charge blocks (gridpoints):      8273 (    1056591).
MG BCs:     Elided blocks (gridpoints):    172665 (  173073330).
MG BCs: Computational effort saved:  99.9828%.
MG BCs: Charge after coarse-graining:           -9.0006817.
MG DL_MG: Calling solver with defect correction order = 8
MG DL_MG: Solver finished
MG Hartree energy from (\int phi*rho dr):              1252.575165
MG Hartree energy from (\int eps (grad phi)^2 dr):     1251.916851
MG Discrepancy due to finite box and discretization:     -0.658314 (  -0.05256%)
MG Correction to account for finite box:                  0.466543
MG Remaining discrepancy, due to discretization:         -0.191771 (  -0.01531%)
      ideal mu1:      -0.719046751226
             Q0:  -11643.374039602699
             G0:      -0.263887253400
   RMS gradient:       0.000077765268
MG BCs: +ve charge blocks (gridpoints):     24453 (   16647176).
MG BCs: -ve charge blocks (gridpoints):      8272 (    1056307).
MG BCs:     Elided blocks (gridpoints):    172667 (  173073222).
MG BCs: Computational effort saved:  99.9828%.
MG BCs: Charge after coarse-graining:           -9.0006817.
MG DL_MG: Calling solver with defect correction order = 8
MG DL_MG: Solver finished
MG Hartree energy from (\int phi*rho dr):              1252.725047
MG Hartree energy from (\int eps (grad phi)^2 dr):     1252.067236
MG Discrepancy due to finite box and discretization:     -0.657811 (  -0.05251%)
MG Correction to account for finite box:                  0.466307
MG Remaining discrepancy, due to discretization:         -0.191504 (  -0.01529%)
     Trial step:       0.639489260721
             Q1:  -11643.442689900403
 Quadratic coef:       0.100102766886
 Linear coef   :      -0.168753064590
           Qmin:  -11643.445160505982
Quadratic minimum step length (  0.539024923466) accepted
    Initial Ne1:    7192.00011836
      Final Ne1:    7192.00000000

=================== Penalty functional idempotency correction ==================
 RMS occupancy error at iteration   1:  0.002464 (step -0.3559 Ne1=   7192.0000)
 RMS occupancy error at iteration   2:  0.000031 (step -0.4999 Ne1=   7192.0000)
            Final RMS occupancy error   :  0.000000 (Ne1=   7192.0000)
               Final occupancy bounds   : [ -0.0000,  1.0000]
================================================================================

    4        -1.164337403960E+04     7.7765E-05     7.0337E-05    -1.7652E-01
MG BCs: +ve charge blocks (gridpoints):     24453 (   16647141).
MG BCs: -ve charge blocks (gridpoints):      8274 (    1056346).
MG BCs:     Elided blocks (gridpoints):    172667 (  173073218).
MG BCs: Computational effort saved:  99.9828%.
MG BCs: Charge after coarse-graining:           -9.0006816.
MG DL_MG: Calling solver with defect correction order = 8
MG DL_MG: Solver finished
MG Hartree energy from (\int phi*rho dr):              1252.699236
MG Hartree energy from (\int eps (grad phi)^2 dr):     1252.041478
MG Discrepancy due to finite box and discretization:     -0.657758 (  -0.05251%)
MG Correction to account for finite box:                  0.466208
MG Remaining discrepancy, due to discretization:         -0.191550 (  -0.01529%)
      ideal mu1:      -0.720474694642
             Q0:  -11643.460692605004
             G0:      -0.162626184579
   RMS gradient:       0.000053745344
MG BCs: +ve charge blocks (gridpoints):     24455 (   16648928).
MG BCs: -ve charge blocks (gridpoints):      8268 (    1055610).
MG BCs:     Elided blocks (gridpoints):    172665 (  173072167).
MG BCs: Computational effort saved:  99.9828%.
MG BCs: Charge after coarse-graining:           -9.0006813.
MG DL_MG: Calling solver with defect correction order = 8
MG DL_MG: Solver finished
MG Hartree energy from (\int phi*rho dr):              1253.753184
MG Hartree energy from (\int eps (grad phi)^2 dr):     1253.095700
MG Discrepancy due to finite box and discretization:     -0.657483 (  -0.05244%)
MG Correction to account for finite box:                  0.466086
MG Remaining discrepancy, due to discretization:         -0.191397 (  -0.01527%)
     Trial step:       0.587112127125
             Q1:  -11643.503921543714
 Quadratic coef:       0.052250866445
 Linear coef   :      -0.095479805155
           Qmin:  -11643.504310987877
Quadratic minimum step length (  0.536425090294) accepted
    Initial Ne1:    7192.00010000
      Final Ne1:    7192.00000000

=================== Penalty functional idempotency correction ==================
 RMS occupancy error at iteration   1:  0.001835 (step -0.3834 Ne1=   7192.0000)
 RMS occupancy error at iteration   2:  0.000015 (step -0.4999 Ne1=   7192.0000)
            Final RMS occupancy error   :  0.000000 (Ne1=   7192.0000)
               Final occupancy bounds   : [ -0.0000,  1.0000]
================================================================================

    5        -1.164346069261E+04     5.3745E-05     4.8611E-05    -8.6653E-02
MG BCs: +ve charge blocks (gridpoints):     24455 (   16648795).
MG BCs: -ve charge blocks (gridpoints):      8269 (    1055671).
MG BCs:     Elided blocks (gridpoints):    172665 (  173072239).
MG BCs: Computational effort saved:  99.9828%.
MG BCs: Charge after coarse-graining:           -9.0006814.
MG DL_MG: Calling solver with defect correction order = 8
MG DL_MG: Solver finished
MG Hartree energy from (\int phi*rho dr):              1253.662970
MG Hartree energy from (\int eps (grad phi)^2 dr):     1253.005531
MG Discrepancy due to finite box and discretization:     -0.657439 (  -0.05244%)
MG Correction to account for finite box:                  0.466026
MG Remaining discrepancy, due to discretization:         -0.191413 (  -0.01527%)
      ideal mu1:      -0.722171049500
             Q0:  -11643.513601020095
             G0:      -0.064112344497
   RMS gradient:       0.000033111179
MG BCs: +ve charge blocks (gridpoints):     24456 (   16649180).
MG BCs: -ve charge blocks (gridpoints):      8266 (    1055532).
MG BCs:     Elided blocks (gridpoints):    172664 (  173071993).
MG BCs: Computational effort saved:  99.9828%.
MG BCs: Charge after coarse-graining:           -9.0006813.
MG DL_MG: Calling solver with defect correction order = 8
MG DL_MG: Solver finished
MG Hartree energy from (\int phi*rho dr):              1253.750304
MG Hartree energy from (\int eps (grad phi)^2 dr):     1253.092902
MG Discrepancy due to finite box and discretization:     -0.657402 (  -0.05243%)
MG Correction to account for finite box:                  0.465946
MG Remaining discrepancy, due to discretization:         -0.191457 (  -0.01527%)
     Trial step:       0.561196646289
             Q1:  -11643.533114120131
 Quadratic coef:       0.016466532681
 Linear coef   :      -0.035979632717
           Qmin:  -11643.533255035842
Quadratic minimum step length (  0.613111746315) accepted
    Initial Ne1:    7192.00006767
      Final Ne1:    7192.00000000

=================== Penalty functional idempotency correction ==================
 RMS occupancy error at iteration   1:  0.001148 (step -0.4193 Ne1=   7192.0000)
 RMS occupancy error at iteration   2:  0.000006 (step -0.4999 Ne1=   7192.0000)
            Final RMS occupancy error   :  0.000000 (Ne1=   7192.0000)
               Final occupancy bounds   : [ -0.0000,  1.0000]
================================================================================

    6        -1.164351360102E+04     3.3111E-05     2.9948E-05    -5.2908E-02
MG BCs: +ve charge blocks (gridpoints):     24456 (   16649228).
MG BCs: -ve charge blocks (gridpoints):      8266 (    1055514).
MG BCs:     Elided blocks (gridpoints):    172664 (  173071963).
MG BCs: Computational effort saved:  99.9828%.
MG BCs: Charge after coarse-graining:           -9.0006813.
MG DL_MG: Calling solver with defect correction order = 8
MG DL_MG: Solver finished
MG Hartree energy from (\int phi*rho dr):              1253.758939
MG Hartree energy from (\int eps (grad phi)^2 dr):     1253.101558
MG Discrepancy due to finite box and discretization:     -0.657381 (  -0.05243%)
MG Correction to account for finite box:                  0.465920
MG Remaining discrepancy, due to discretization:         -0.191461 (  -0.01527%)
      ideal mu1:      -0.722678622041
             Q0:  -11643.536883312277
             G0:      -0.023353168952
   RMS gradient:       0.000023492304
MG BCs: +ve charge blocks (gridpoints):     24456 (   16648046).
MG BCs: -ve charge blocks (gridpoints):      8270 (    1055969).
MG BCs:     Elided blocks (gridpoints):    172664 (  173072690).
MG BCs: Computational effort saved:  99.9828%.
MG BCs: Charge after coarse-graining:           -9.0006815.
MG DL_MG: Calling solver with defect correction order = 8
MG DL_MG: Solver finished
MG Hartree energy from (\int phi*rho dr):              1253.086874
MG Hartree energy from (\int eps (grad phi)^2 dr):     1252.429488
MG Discrepancy due to finite box and discretization:     -0.657386 (  -0.05246%)
MG Correction to account for finite box:                  0.465901
MG Remaining discrepancy, due to discretization:         -0.191484 (  -0.01528%)
     Trial step:       0.586580135900
             Q1:  -11643.543866309570
 Quadratic coef:       0.006715507725
 Linear coef   :      -0.013698505018
           Qmin:  -11643.543868973205
Quadratic minimum step length (  0.598262355127) accepted
    Initial Ne1:    7192.00000844
      Final Ne1:    7192.00000000

=================== Penalty functional idempotency correction ==================
 RMS occupancy error at iteration   1:  0.000025 (step -0.4979 Ne1=   7192.0000)
            Final RMS occupancy error   :  0.000000 (Ne1=   7192.0000)
               Final occupancy bounds   : [ -0.0000,  1.0000]
================================================================================

    7        -1.164353688331E+04     2.3492E-05     2.1248E-05    -2.3282E-02
MG BCs: +ve charge blocks (gridpoints):     24456 (   16648026).
MG BCs: -ve charge blocks (gridpoints):      8270 (    1055974).
MG BCs:     Elided blocks (gridpoints):    172664 (  173072705).
MG BCs: Computational effort saved:  99.9828%.
MG BCs: Charge after coarse-graining:           -9.0006815.
MG DL_MG: Calling solver with defect correction order = 8
MG DL_MG: Solver finished
MG Hartree energy from (\int phi*rho dr):              1253.073529
MG Hartree energy from (\int eps (grad phi)^2 dr):     1252.416144
MG Discrepancy due to finite box and discretization:     -0.657386 (  -0.05246%)
MG Correction to account for finite box:                  0.465901
MG Remaining discrepancy, due to discretization:         -0.191485 (  -0.01528%)
      ideal mu1:      -0.722150643680
             Q0:  -11643.543870617636
             G0:      -0.017039477280
   RMS gradient:       0.000020056075
MG BCs: +ve charge blocks (gridpoints):     24455 (   16647885).
MG BCs: -ve charge blocks (gridpoints):      8269 (    1056005).
MG BCs:     Elided blocks (gridpoints):    172665 (  173072815).
MG BCs: Computational effort saved:  99.9828%.
MG BCs: Charge after coarse-graining:           -9.0006815.
[...]
MG Correction to account for finite box:                  0.006369
MG Remaining discrepancy, due to discretization:         -0.190401 (  -0.01573%)
     Trial step:       0.308837378696
             Q1:  -11677.830227427068
 Quadratic coef:       0.000000001877
 Linear coef   :      -0.000000001411
           Qmin:  -11677.830227427799
Quadratic minimum step length (  0.116102258099) accepted
    Initial Ne1:    7192.00000000
      Final Ne1:    7192.00000000

=================== Penalty functional idempotency correction ==================
 RMS occupancy error at iteration   1:  0.000000 (step -0.5000 Ne1=   7192.0000)
            Final RMS occupancy error   :  0.000000 (Ne1=   7192.0000)
               Final occupancy bounds   : [ -0.0000,  1.0000]
================================================================================

    7        -1.167783022743E+04     7.5266E-09     6.8077E-09    -1.1642E-10

Reusing previously generated solute cavity.
MG BCs: +ve charge blocks (gridpoints):     28966 (   18863364).
MG BCs: -ve charge blocks (gridpoints):      8259 (    1025194).
MG BCs:     Elided blocks (gridpoints):    168154 (  170888147).
MG BCs: Computational effort saved:  99.9805%.
MG BCs: Charge after coarse-graining:           -9.0009473.
MG DL_MG: Calling solver with defect correction order = 8
MG DL_MG: Solver finished
MG Hartree energy from (\int phi*rho dr):              1210.584853
MG Hartree energy from (\int eps (grad phi)^2 dr):     1210.388083
MG Discrepancy due to finite box and discretization:     -0.196770 (  -0.01625%)
MG Correction to account for finite box:                  0.006369
MG Remaining discrepancy, due to discretization:         -0.190401 (  -0.01573%)
      ideal mu1:      -0.480873814897
             Q0:  -11677.830227427534
             G0:      -0.000000003760
   RMS gradient:       0.000000006023

Reusing previously generated solute cavity.
MG BCs: +ve charge blocks (gridpoints):     28966 (   18863364).
MG BCs: -ve charge blocks (gridpoints):      8259 (    1025194).
MG BCs:     Elided blocks (gridpoints):    168154 (  170888147).
MG BCs: Computational effort saved:  99.9805%.
MG BCs: Charge after coarse-graining:           -9.0009473.
MG DL_MG: Calling solver with defect correction order = 8
MG DL_MG: Solver finished
MG Hartree energy from (\int phi*rho dr):              1210.584828
MG Hartree energy from (\int eps (grad phi)^2 dr):     1210.388058
MG Discrepancy due to finite box and discretization:     -0.196770 (  -0.01625%)
MG Correction to account for finite box:                  0.006369
MG Remaining discrepancy, due to discretization:         -0.190401 (  -0.01573%)
     Trial step:       0.189358699435
             Q1:  -11677.830227427068
 Quadratic coef:       0.000000001177
 Linear coef   :      -0.000000000712
           Qmin:  -11677.830227427641
Quadratic minimum step length (  0.057278416028) accepted
    Initial Ne1:    7192.00000000
      Final Ne1:    7192.00000000

=================== Penalty functional idempotency correction ==================
 RMS occupancy error at iteration   1:  0.000000 (step -0.5000 Ne1=   7192.0000)
            Final RMS occupancy error   :  0.000000 (Ne1=   7192.0000)
               Final occupancy bounds   : [  0.0000,  1.0000]
================================================================================

    8        -1.167783022743E+04     6.0228E-09     5.4475E-09     0.0000E+00

Reusing previously generated solute cavity.
MG BCs: +ve charge blocks (gridpoints):     28966 (   18863364).
MG BCs: -ve charge blocks (gridpoints):      8259 (    1025194).
MG BCs:     Elided blocks (gridpoints):    168154 (  170888147).
MG BCs: Computational effort saved:  99.9805%.
MG BCs: Charge after coarse-graining:           -9.0009473.
MG DL_MG: Calling solver with defect correction order = 8
MG DL_MG: Solver finished
MG Hartree energy from (\int phi*rho dr):              1210.584846
MG Hartree energy from (\int eps (grad phi)^2 dr):     1210.388076
MG Discrepancy due to finite box and discretization:     -0.196770 (  -0.01625%)
MG Correction to account for finite box:                  0.006369
MG Remaining discrepancy, due to discretization:         -0.190401 (  -0.01573%)
      ideal mu1:      -0.480873806075
             Q0:  -11677.830227427417
             G0:      -0.000000003639
   RMS gradient:       0.000000005263

Reusing previously generated solute cavity.
MG BCs: +ve charge blocks (gridpoints):     28966 (   18863364).
MG BCs: -ve charge blocks (gridpoints):      8259 (    1025194).
MG BCs:     Elided blocks (gridpoints):    168154 (  170888147).
MG BCs: Computational effort saved:  99.9805%.
MG BCs: Charge after coarse-graining:           -9.0009473.
MG DL_MG: Calling solver with defect correction order = 8
MG DL_MG: Solver finished
MG Hartree energy from (\int phi*rho dr):              1210.584829
MG Hartree energy from (\int eps (grad phi)^2 dr):     1210.388059
MG Discrepancy due to finite box and discretization:     -0.196770 (  -0.01625%)
MG Correction to account for finite box:                  0.006369
MG Remaining discrepancy, due to discretization:         -0.190401 (  -0.01573%)
     Trial step:       0.104144929616
             Q1:  -11677.830227427068
 Quadratic coef:       0.000000000728
 Linear coef   :      -0.000000000379
           Qmin:  -11677.830227427467
Quadratic minimum step length (  0.027119353393) accepted
    Initial Ne1:    7192.00000000
      Final Ne1:    7192.00000000

=================== Penalty functional idempotency correction ==================
 RMS occupancy error at iteration   1:  0.000000 (step -0.5000 Ne1=   7192.0000)
            Final RMS occupancy error   :  0.000000 (Ne1=   7192.0000)
               Final occupancy bounds   : [  0.0000,  1.0000]
================================================================================

    9        -1.167783022743E+04     5.2629E-09     4.7602E-09     1.1642E-10

Reusing previously generated solute cavity.
MG BCs: +ve charge blocks (gridpoints):     28966 (   18863364).
MG BCs: -ve charge blocks (gridpoints):      8259 (    1025194).
MG BCs:     Elided blocks (gridpoints):    168154 (  170888147).
MG BCs: Computational effort saved:  99.9805%.
MG BCs: Charge after coarse-graining:           -9.0009473.
MG DL_MG: Calling solver with defect correction order = 8
MG DL_MG: Solver finished
MG Hartree energy from (\int phi*rho dr):              1210.584841
MG Hartree energy from (\int eps (grad phi)^2 dr):     1210.388071
MG Discrepancy due to finite box and discretization:     -0.196770 (  -0.01625%)
MG Correction to account for finite box:                  0.006369
MG Remaining discrepancy, due to discretization:         -0.190401 (  -0.01573%)
      ideal mu1:      -0.480873801250
   10        -1.167783022743E+04     4.8553E-09     4.3915E-09     1.1642E-10
Finished density kernel iterations (  10)

Writing density kernel to file "host_20241.dkn" ... done


>>> Density kernel optimised for the current NGWF basis:
     ~~~~~~~~~~~~~~~~~~~~~~~~~~~~~~~~~~~~~~~~~~~~~~~~~~~~~~~~~~~
     Total energy                =  -1.16778302274273E+04  Eh
     Estimated bandgap           =   9.4738E-02  Eh
     RMS occupancy error         =   3.0046E-16
     [H,K] commutator            =   4.3915E-09
     Occupancy bounds            = [  0.000:  1.000]
     ~~~~~~~~~~~~~~~~~~~~~~~~~~~~~~~~~~~~~~~~~~~~~~~~~~~~~~~~~~~




################################################################################
########################### NGWF CG iteration  005 #############################
################################################################################
****** Reciprocal space K.E. preconditioning with k_zero =  3.5000 a0^-1 *******

>>> Checking for convergence of NGWFs: 
           ........................................................
           |         *** NGWF optimisation converged ***          |
           | RMS NGWF gradient =    0.00000088779188              |
           | Criteria satisfied:                                  |
           | -> RMS NGWF gradient lower than set threshold.       |
           ========================================================

Reusing previously generated solute cavity.
MG BCs: +ve charge blocks (gridpoints):     28966 (   18863364).
MG BCs: -ve charge blocks (gridpoints):      8259 (    1025194).
MG BCs:     Elided blocks (gridpoints):    168154 (  170888147).
MG BCs: Computational effort saved:  99.9805%.
MG BCs: Charge after coarse-graining:           -9.0009473.
MG DL_MG: Calling solver with defect correction order = 8
MG DL_MG: Solver finished
MG Hartree energy from (\int phi*rho dr):              1210.584841
MG Hartree energy from (\int eps (grad phi)^2 dr):     1210.388071
MG Discrepancy due to finite box and discretization:     -0.196770 (  -0.01625%)
MG Correction to account for finite box:                  0.006369
MG Remaining discrepancy, due to discretization:         -0.190401 (  -0.01573%)

================================================================================
           ---------------- ENERGY COMPONENTS (Eh) ----------------
           | Kinetic                    :     8521.29073261841404 |
           | Pseudo. (local,OBC,corr'd) :    -5045.39206568082227 |
           | Pseudopotential (non-local):     1403.87988978857629 |
           | Hartree (molecular)        :     1210.58484141981035 |
           | Exchange-correlation       :    -3356.34470606569903 |
           | Ion-ion (open BC)          :   823163.06221585418098 |
           | Dispersion Correction      :       -3.25907159475344 |
           | Smeared ion non-self corr. :  -823115.13320003077388 |
           | Smeared ion self corr.     :   -14457.16956389741972 |
           | Solvent cavitation energy  :        2.31504104295759 |
           | Solute-solvent dis-rep en. :       -1.66434088180829 |
           | Total                      :   -11677.83022742733738 |
           --------------------------------------------------------
           ------ LOCAL ENERGY COMPONENTS FROM MATRIX TRACES ------
           | Pseudopotential (local)    :    -5045.39206568081772 |
           | Hartree                    :    -1989.29414922735896 |
           --------------------------------------------------------
           Integrated density           :     7191.99999999898955
           Integrated density tr(KS)    :     7192.00000000000000
================================================================================


                        <<<<< CALCULATION SUMMARY >>>>>                         
|ITER|    RMS GRADIENT   |     TOTAL ENERGY    |   step   |     Epredicted              
   0     0.00003965266987 -11677.77183521050029   0.603131 -11677.82230417948813        
   1     0.00001041896315 -11677.82958669960499   0.092584 -11677.83012157721168        
   2     0.00000457669397 -11677.83020527765620   0.016719 -11677.83022391531813        
   3     0.00000203261018 -11677.83022655267268   0.003351 -11677.83022728953620        
   4     0.00000088779188 -11677.83022742730100  <-- CG                                 

=================== Finished the calculation in solvent ========================
= Adjusting the following parameters: 
= read_denskern: F
= read_tightbox_ngwfs: F
= maxit_pen: 0 (restored to user-specified value)
= restart read filename prefix: ""
= restart write filename prefix: ""
================================================================================

================================================================================
IS: Calculation in solvent completed (NGWFs converged).      

Individual components of total energy in solvent:     hartree           kcal/mol
- Usual non-electrostatic DFT terms:    -12889.06576900825894    -8088010.706405
- Electrostatic fixed charge energy:      1210.58484141981035      759653.440667
- Apolar cavitation energy:                  2.31504104295759        1452.710156
- Apolar dispersion-repulsion energy:       -1.66434088180829       -1044.389649
 -------------------------------------------------------------------------------
- Total energy in solvent:              -11677.83022742730100    -7327948.945230

Components of total energy in solvent:                hartree           kcal/mol
- Usual non-electrostatic DFT terms:    -12889.06576900825894    -8088010.706405
- Electrostatic energy:                   1210.58484141981035      759653.440667
- Apolar energy terms:                       0.65070016114931         408.320507
 -------------------------------------------------------------------------------
- Total energy in solvent:              -11677.83022742730100    -7327948.945230

Calculation of free energy of solvation:              hartree           kcal/mol
- Total energy in solvent:         (+)  -11677.83022742730100    -7327948.945230
- Total energy in vacuum:          (-)  -11673.99453976261429    -7325542.014934
 -------------------------------------------------------------------------------
- Total free energy of solvation:           -3.83568766468670       -2406.930297

Components of polar term in f.e. of solvation:        hartree           kcal/mol
- Electrostatic:                            -4.74735353543906       -2979.009256
- Change in nonelectrostatic DFT terms:      0.26096570960544         163.758452
 -------------------------------------------------------------------------------
- Polar term in f.e. of solvation:          -4.48638782583362       -2815.250804

Components of free energy of solvation:               hartree           kcal/mol
- Polar term in f.e. of solvation: (+)      -4.48638782583362       -2815.250804
- Apolar (cavitation, dis., rep.): (+)       0.65070016114931         408.320507
 -------------------------------------------------------------------------------
- Total free energy of solvation:           -3.83568766468431       -2406.930297
================================================================================


------------------------------ TIMING INFORMATION ------------------------------
AVERAGE TIME:   31028.824s on     60 node(s)                                    
TOTAL TIME:     31028.825s on     60 node(s)                                    
================= AVERAGE TIMINGS FROM ALL NODES (CUMULATIVE) ==================
|| TAG                                    #calls    cpu time   %total  Gflops ||
|| work_imbalance                       :     1        0.00s   0.000%  ------ ||
|| sparse_set_to_garbage                :   176        0.03s   0.000%  ------ ||
|| parallel_prepare_fd_halos_request    :  1947        0.03s   0.000%  ------ ||
|| ngwfs_initialise_from_radial         :     1        0.10s   0.000%  ------ ||
|| basis_extract_function_from_box      :  3577        0.16s   0.001%  ------ ||
|| parallel_prepare_fd_halos_satisfy    :  1947        0.69s   0.002%  ------ ||
|| parallel_prepare_fd_halos_alloc      :  1947        1.57s   0.005%  ------ ||
|| pseudopotentials_nonlocal_mat        :    30        2.59s   0.008%  ------ ||
|| openbc_locps_radial                  :     1        3.00s   0.010%  ------ ||
|| density_init_guess_real              :     1        3.54s   0.011%  ------ ||
|| restart_kernel_read                  :     1        4.33s   0.014%  ------ ||
|| parallel_prepare_fd_halos_comms_imbal:  1947        8.42s   0.027%  ------ ||
|| restart_ngwfs_tightbox_input         :     1        9.77s   0.031%  ------ ||
|| parallel_prepare_fd_halos_clear      :  1947       19.79s   0.064%  ------ ||
|| sparse_init                          :     2       22.04s   0.071%  ------ ||
|| projectors_func_ovlp_box             :    30       25.75s   0.083%  ------ ||
|| parallel_prepare_fd_halos_comms_wait :  1947       27.32s   0.088%  ------ ||
|| function_ops_brappd_ketppd           :    30       27.62s   0.089%  ------ ||
|| projectors_init_fftbox_recip         :   142       32.57s   0.105%  ------ ||
|| palser_mano_kernel_optimise          :     1       34.99s   0.113%  ------ ||
|| basis_copy_function_to_box           : 58111       42.07s   0.136%  ------ ||
|| ngwf_gradient_coeffs                 :    16       49.50s   0.160%  ------ ||
|| pseudo_make_structure_factor         :     2       51.03s   0.164%  ------ ||
|| fourier_apply_box_pair               :  5101       52.75s   0.170% 559.885 ||
|| parallel_prepare_fd_halos            :  1947       57.83s   0.186%  ------ ||
|| sparse_embed_hotelling_invert_embed  :    30       78.72s   0.254%  ------ ||
|| restart_kernel_write                 :    17      108.03s   0.348%  ------ ||
|| finite_difference_derivative         :  1947      125.73s   0.405%  ------ ||
|| integrals_kinetic                    :    30      139.29s   0.449%  ------ ||
|| projectors_gradient_batch            :   112      168.88s   0.544%  ------ ||
|| fourier_apply_cell_backward          :  1299      185.88s   0.599%  95.127 ||
|| basis_dot_function_with_box          : 8.821M     194.89s   0.628%  ------ ||
|| sparse_trace                         :  5203      210.48s   0.678%  ------ ||
|| fourier_apply_cell_forward           :  1297      241.29s   0.778%  73.167 ||
|| openbc_locps_on_grid                 :     2      259.75s   0.837%  ------ ||
|| kernel_purify                        :   495      298.74s   0.963%  ------ ||
|| basis_add_function_to_box            : 18.39M     419.28s   1.351%  ------ ||
|| lnv_gradient_norm                    :   160      441.65s   1.423%  ------ ||
|| hamiltonian_energy_components        :     4      474.04s   1.528%  ------ ||
|| xc_energy_potential                  :   324      494.98s   1.595%  ------ ||
|| kernel_fix                           :   160      504.98s   1.627%  ------ ||
|| integrals_locpot_mat_els_batch       :  1183      701.47s   2.261%  ------ ||
|| ngwf_gradient_build_batch            :   112      739.07s   2.382%  ------ ||
|| density_batch_row_sums               :  2261      981.57s   3.163%  ------ ||
|| ngwf_gradient_batch                  :   112     1011.78s   3.261%  ------ ||
|| ngwf_gradient_lnv                    :    16     1142.63s   3.682%  ------ ||
|| cell_grid_deposit_box_real           : 37197     1270.23s   4.094%  ------ ||
|| restart_ngwfs_tightbox_output        :    14     1461.47s   4.710%  ------ ||
|| cell_grid_extract_box_real           : 41070     1630.62s   5.255%  ------ ||
|| sparse_product                       :  6600     1837.92s   5.923%  ------ ||
|| density_fftbox_deposit_to_cell       : 35207     1870.17s   6.027%  ------ ||
|| potential_apply_to_ngwf_batch        :  1183     3553.78s  11.453%  ------ ||
|| density_fftbox_interpolate_multiply  : 35207     3702.27s  11.932%  ------ ||
|| integrals_locpot_dbl_grid            :   169     4273.44s  13.772%  ------ ||
|| fourier_apply_box                    : 121.3k    4564.37s  14.710% 745.880 ||
|| multigrid_prepare_bound_cond         :   324     4578.36s  14.755%  ------ ||
|| density_batch_interp_deposit         :  2261     6400.81s  20.629%  ------ ||
|| dl_mg_solver_calls                   :   324     7612.34s  24.533%  ------ ||
|| density_on_dbl_grid                  :   323     7698.78s  24.812%  ------ ||
|| multigrid_calculate_hartree          :   324    12367.24s  39.857%  ------ ||
|| hamiltonian_lhxc_calculate           :   319    20540.74s  66.199%  ------ ||
|| lnv_denskernel_optimise_cg           :    16    25764.72s  83.035%  ------ ||
|| ngwf_cg_optimise                     :     2    30124.44s  97.085%  ------ ||
|| total_time                           :     1    31028.82s 100.000%  ------ ||
================================================================================
Overhead of generating timer report: 
- 0 ms averaging over threads,
- 15 ms ensuring consistency across MPI ranks,
- 0 ms printing in order.

Job completed: 13-02-2020 02:48 (-0000)

Application 38923912 resources: utime ~6421042s, stime ~222068s, Rss ~3682116, inblocks ~346838286, outblocks ~65696673
