 +---------------------------------------------------------------+
 |                                                               |
 |        ####### #     # ####### ####### ####### ######         |
 |        #     # ##    # #          #    #       #     #        |
 |        #     # # #   # #          #    #       #     #        |
 |        #     # #  #  # #####      #    #####   ######         |
 |        #     # #   # # #          #    #       #              |
 |        #     # #    ## #          #    #       #              |
 |        ####### #     # #######    #    ####### #              |
 |                                                               |
 |        Linear-Scaling Ab Initio Total Energy Program          |
 |                                                               |
 |          Release for academic collaborators of ODG            |
 |                                             Version 5.3.2.6.  |
 |                                                               |
 +---------------------------------------------------------------+
 |                                                               |
 |  Authors:                                                     |
 |  Jacek Dziedzic, Peter D. Haynes, Nicholas D. M. Hine,        |
 |  Arash. A. Mostofi, Mike C. Payne and Chris-Kriton Skylaris   |
 |                                                               |
 |  Contributors:                                                |
 |  J. Aarons, L. Andrinopoulos, P. W. Avraam, R. A. Bell,       |
 |  A. Bhandari, G. A. Bramley, R. J. Charlton, S. J. Clark,     |
 |  R. J. Clements, G. C. Constantinescu, F. Corsetti,           |
 |  N. Corsini, O. Dieguez, S. M. M. Dubois, K. K. B. Duff,      |
 |  J. M. Escartin, A. Greco, H. Helal, Q. O. Hill, L. P. Lee,   |
 |  J.-H. Li, E. B. Linscott, G. Moynihan, D. D. O`Regan,        |
 |  O. K. Okan, M. J. S. Phipps, C. J. Pickard,                  |
 |  J. C. A. Prentice, M. I. J. Probert, L. E. Ratcliff,         |
 |  M. Robinson, A. Ruiz Serrano, J. S. Spencer, E. W. Tait,     |
 |  G. Teobaldi, D. Turban, V. Vitale, K. A. Wilkinson,          |
 |  C. Weber, J. C. Womack, N. Yeung and T. J. Zuehlsdorff       |
 |                                                               |
 |                                   Copyright (c) 2004-2019     |
 |                                                               |
 |  Please cite:                                                 |
 |  "Introducing ONETEP: Linear-scaling density functional       |
 |   simulations on parallel computers".                         |
 |   C.-K. Skylaris, P. D. Haynes, A. A. Mostofi, M. C. Payne.   |
 |   J. Chem. Phys. 122 084119 (2005).                           |
 |                                                               |
 |          in all publications arising from your use of ONETEP. |
 |                                                               |
 +---------------------------------------------------------------+
 |                                                               |
 |   ONETEP is based on developments described in the following  |
 |   publications:                                               |
 |                                                               |
 |  "Nonorthogonal generalized Wannier function pseudopotential  |
 |   plane-wave method".                                         |
 |   C.-K. Skylaris, A. A. Mostofi, P. D. Haynes, O. Dieguez,    |
 |   M. C. Payne.                                                |
 |   Phys. Rev. B 66 035119 (2002).                              |
 |                                                               |
 |  "Preconditioned iterative minimization for linear-scaling    |
 |   electronic structure calculations".                         |
 |   A. A. Mostofi, P. D. Haynes, C.-K. Skylaris, M. C. Payne.   |
 |   J. Chem. Phys. 119(17), pp.8842-8848 (2003).                |
 |                                                               |
 |  "Total-energy calculations on a real space grid with         |
 |   localized functions and a plane-wave basis".                |
 |   A. A. Mostofi, C.-K. Skylaris, P. D. Haynes, M. C. Payne.   |
 |   Comput. Phys. Commun. 147, pp.788-802 (2002).               |
 |                                                               |
 |  "Accurate kinetic energy evaluation in electronic structure  |
 |   calculations with localized functions on real space grids"  |
 |   C.-K. Skylaris, A. A. Mostofi, P. D. Haynes, C. J. Pickard, |
 |   M. C. Payne.                                                |
 |   Comput. Phys. Commun. 140, pp.315-322 (2001).               |
 |                                                               |
 |  "Accurate ionic forces and geometry optimization in linear-  |
 |   scaling density-functional theory with local orbitals"      |
 |   N. D. M. Hine, M. Robinson, P. D. Haynes, C.-K. Skylaris,   |
 |   M. C. Payne, and A. A. Mostofi.                             |
 |   Phys. Rev. B 83 195102 (2011).                              |
 |                                                               |
 +---------------------------------------------------------------+

Job started: 18-01-2020 22:43 (-0000)
 
Reading parameters from file "host_17201.dat" ...... done

If your calculation crashes here, before "Checking processes and threads..."
is displayed, then your stack size is insufficient.
If so, use "ulimit -s unlimited" at runtime.
You can disable this check with "check_stack_size F".

Checking processes and threads...
   Determining the default number of threads...
      No default threads set at compilation time: defaulting to 1.
      OpenMP library call suggests 4 threads.
      Hybrid MPI-OpenMP compilation detected.
      Number of MPI processes > 1.
      OMP_NUM_THREADS environment variable present and
      its value matches the one obtained from the OpenMP library call.
      Using this value as default.
      Default threads: 4
      Default applies to threads_max and threads_num_fftboxes.
      Settings in the input file override this default.
   ... done

   Running with 30 MPI processes.
   There are 4 MPI processes running on the same node as the root process.
   Each MPI process is using: 
               1 threads for simulation cell FFTs.
               1 threads for parallel FFT box operations.
               4 threads for loops over batched FFT box operations.
               4 threads in other parallel regions.
... done

Basic input checks...... done

Reading geometry and species blocks from file "host_17201.dat" ...
  <species_atomic_set> block not found: NGWF initialisation set to SOLVE
IS: Dielectric excluded regions:
    - NONE.
    
  Number of PPD points along a3 set to 1.  This is 
  the default value, it may have been provided also in the input file.
... done
 Writing xyz coordinates to file "host_17201.xyz" ... done


--------------------------------------------------------------------------------
---------------------------------- INPUT FILE ----------------------------------
--------------------------------------------------------------------------------

cutoff_energy       : 800 eV                                                    
xc_functional PBE                                                               
task SINGLEPOINT                                                                
write_xyz true                                                                  
output_detail VERBOSE                                                           
ngwf_threshold_orig : 0.000002                                                  
kernel_cutoff       : 1000                                                      
k_zero              : 3.5                                                       
elec_cg_max 0                                                                   
occ_mix 1.0                                                                     
dispersion 1                                                                    
maxit_ngwf_cg 40                                                                
minit_lnv 10                                                                    
maxit_lnv 10                                                                    
write_denskern T                                                                
write_tightbox_ngwfs T                                                          
charge 9                                                                        
is_implicit_solvent T                                                           
is_auto_solvation T                                                             
is_include_apolar T                                                             
is_smeared_ion_rep T                                                            
is_solvent_surf_tension 4.7624E-5 Ha/bohr**2                                    
is_apolar_scaling_factor 0.281075                                               
is_solvation_beta 1.3                                                           
is_density_threshold 0.00035                                                    
is_bulk_permittivity 78.54                                                      
is_dielectric_model fix_initial                                                 
is_smeared_ion_width 0.8                                                        
mg_defco_fd_order 8                                                             
is_bc_coarseness 10                                                             
is_bc_surface_coarseness 1                                                      
fine_grid_scale 2.0                                                             
%block species                                                                  
N   N   7 4 8.0                                                                 
H   H   1 1 8.0                                                                 
C   C   6 4 8.0                                                                 
S   S  16 9 8.0                                                                 
O   O   8 4 8.0                                                                 
%endblock species                                                               
%block species_pot                                                              
N   N_00.recpot                                                                 
H   H_04.recpot                                                                 
C   C_01.recpot                                                                 
S   S_00.recpot                                                                 
O   O_02.recpot                                                                 
%endblock species_pot                                                           
%block lattice_cart                                                             
139.252   0.000   0.000                                                         
0.000 142.425   0.000                                                           
0.000   0.000   162.84                                                          
%endblock lattice_cart                                                          
%block positions_abs                                                            
     Hash =  -000008506248882683341343
%endblock positions_abs                                                         

--------------------------------------------------------------------------------
-------------------------------- END INPUT FILE --------------------------------
--------------------------------------------------------------------------------


 
 ESDF WARNING(1): "kernelcutoff" (esdf_physical) has no units. Assume "bohr".
 ESDF WARNING(2): "kzero" (esdf_physical) has no units. Assume "1/bohr".
 ESDF WARNING(3
 ): "issmearedionwidth" (esdf_physical) has no units. Assume "bohr".
<<<<<<<<<<<<<<<<<<<<<<<<<<<<<<<<< Full system >>>>>>>>>>>>>>>>>>>>>>>>>>>>>>>>>>
<<<<<<<<<<<<<<<<<<<<<<<<< Pseudopotential information >>>>>>>>>>>>>>>>>>>>>>>>>>
File: N_00.recpot [ 2001 points up to Gmax=  52.9 (1/bohr)]
  Atomic number:  7;  ionic charge:  5.000000
    Shell 1: l = 0; rc = 1.48 bohr
File: H_04.recpot [ 2001 points up to Gmax=  52.9 (1/bohr)]
  Atomic number:  1;  ionic charge:  1.000000
    Local potential
File: C_01.recpot [ 2001 points up to Gmax=  52.9 (1/bohr)]
  Atomic number:  6;  ionic charge:  4.000000
    Shell 1: l = 0; rc = 1.48 bohr
File: S_00.recpot [ 2001 points up to Gmax=  52.9 (1/bohr)]
  Atomic number: 16;  ionic charge:  6.000000
    Shell 1: l = 0; rc = 1.90 bohr
    Shell 2: l = 2; rc = 1.84 bohr
File: O_02.recpot [ 2001 points up to Gmax=  52.9 (1/bohr)]
  Atomic number:  8;  ionic charge:  6.000000
    Shell 1: l = 0; rc = 1.31 bohr
<<<<<<<<<<<<<<<<<<<<<<<<<<<<<<<<<<<<<<<<>>>>>>>>>>>>>>>>>>>>>>>>>>>>>>>>>>>>>>>>

-------------------------- Atom counting information ---------------------------
Symbol    Natoms    Nngwfs    Nprojs
  N        236       944       236
  H       1311      1311         0
  C        810      3240       810
  S          6        54        36
  O        239       956       239
.......   ......    ......    ......
Totals:   2602      6505      1321
--------------------------------------------------------------------------------

=============================== PSINC grid sizes ===============================
                      Simulation cell:  275 x 280 x 320
                              FFT-box:   99 x  99 x  99
                                  PPD:    5 x   5 x   1
Grid space d1=  0.506370909091a0 (KE cutoff=  29.62556Eh = 806.15239eV)
Grid space d2=  0.508660714286a0 (KE cutoff=  29.35943Eh = 798.91072eV)
Grid space d3=  0.508875000000a0 (KE cutoff=  29.33471Eh = 798.23802eV)
================================================================================

********************* Fourier parallelisation information **********************
       Coarse grid (whole simulation cell) dimensions:    275   280   320
          Real-space ('12') slabs/node (min max mean):     10    11    10
         Recip-space ('23') slabs/node (min max mean):      4     5     4
********************************************************************************

********************* Fourier parallelisation information **********************
       Double grid (whole simulation cell) dimensions:    550   560   640
          Real-space ('12') slabs/node (min max mean):     21    22    21
         Recip-space ('23') slabs/node (min max mean):      9    10     9
********************************************************************************
ONETEP fine grid is 550 x 560 x 640 gridpoints, 139.2520 x 142.4250 x 162.8400 bohr.
FD multigrid is     545 x 553 x 633 gridpoints, 137.9861 x 140.6447 x 161.0589 bohr.


Calculating local pseudopotential in open BC on a radial grid ...
Discrepancy between calculated realspace psloc and -Z/x on [5a0,257.280a0]:
max |rel. diff| # avg |rel. diff| #  avg rel. diff #  f # pseudopotential file
 0.000256370913    0.000003612608   0.000000072509   55  'N_00.recpot'
 0.000395389207    0.000016224277  -0.000000076597   55  'H_04.recpot'
 0.000377360759    0.000017565724   0.000000149252   55  'C_01.recpot'
 0.000469715301    0.000020587835   0.000000455518   55  'S_00.recpot'
 0.000665442002    0.000026079317   0.000000158685   55  'O_02.recpot'
... done

Atom SCF Calculation for N  : Z (AE atom) =   7 : Z (PS atom) =   5
Config String:
Orbitals (num,occ):  2     2.00 3.00
Orbitals   (num,l):  2        0    1
Real-space Grid (nr,dr,rmax): 1203    0.0066555740    8.0000000000
Spherical Bessel Basis (nsws,lmax,cutoff):   47    1  176.3951722778
Confining potential (l,width,scale):  0    3.0000000000  100.0000000000
Confining potential (l,width,scale):  1    3.0000000000  100.0000000000
  1         -4.7312375307   -3.4155304497    7.0523828109   -1.9351020946
  2         -9.7309464766   -2.0532547791    8.2966052865   -2.2494486027
  3         -9.6627394379   -2.1124926340    8.2327997121   -2.2369778124
  4         -9.6814993499   -2.1215521045    8.2229805960   -2.2365178421
  5         -9.6843326483   -2.1250939529    8.2191374534   -2.2362718126
  6         -9.6859628709   -2.1267894855    8.2172963573   -2.2362066344
  7         -9.6867347035   -2.1276425665    8.2163697352   -2.2361903369
  8         -9.6870802100   -2.1280764625    8.2158983890   -2.2361891460
  9         -9.6872290423   -2.1282977424    8.2156580222   -2.2361920435
 10         -9.6872901988   -2.1284107021    8.2155353368   -2.2361953393
 11         -9.6873135296   -2.1284684031    8.2154726809   -2.2361979819
 12         -9.6873212476   -2.1284978948    8.2154406648   -2.2361998431
 13         -9.6873229586   -2.1285129774    8.2154242957   -2.2362010676
 14         -9.6873226456   -2.1285206957    8.2154159216   -2.2362018403
 15         -9.6873218534   -2.1285246479    8.2154116349   -2.2362023142
 16         -9.6873212599   -2.1285262679    8.2154098784   -2.2362025420
 17         -9.6873207834   -2.1285272564    8.2154088068   -2.2362026955
 18         -9.6873204210   -2.1285278597    8.2154081529   -2.2362027982
 19         -9.6873201550   -2.1285282280    8.2154077538   -2.2362028667
 20         -9.6873199645   -2.1285284529    8.2154075102   -2.2362029121
 21         -9.6873198305   -2.1285285903    8.2154073614   -2.2362029421
 22         -9.6873197377   -2.1285286742    8.2154072705   -2.2362029618
Atom SCF converged after  22 iterations to a total energy of     -9.68731974

Atom SCF Calculation for H  : Z (AE atom) =   1 : Z (PS atom) =   1
Config String:
Orbitals (num,occ):  1     1.00
Orbitals   (num,l):  1        0
Real-space Grid (nr,dr,rmax): 1203    0.0066555740    8.0000000000
Spherical Bessel Basis (nsws,lmax,cutoff):   47    0  176.3951722778
Confining potential (l,width,scale):  0    3.0000000000  100.0000000000
  1         -0.3194257691   -0.2393854593    0.2820953124   -0.2424203209
  2         -0.3951823392   -0.2377116493    0.2886404059   -0.2475147891
  3         -0.4317044583   -0.2352244387    0.2921333887   -0.2514046172
  4         -0.4470703708   -0.2341892222    0.2934391879   -0.2531009782
  5         -0.4532132900   -0.2338556667    0.2938388426   -0.2537313520
  6         -0.4556579251   -0.2337612552    0.2939448584   -0.2539550462
  7         -0.4566418315   -0.2337377355    0.2939680120   -0.2540342273
  8         -0.4570437922   -0.2337331116    0.2939708287   -0.2540627372
  9         -0.4572102946   -0.2337328328    0.2939698291   -0.2540732650
 10         -0.4572800424   -0.2337332404    0.2939687193   -0.2540772588
 11         -0.4573095100   -0.2337335791    0.2939680317   -0.2540788122
 12         -0.4573220379   -0.2337337762    0.2939676699   -0.2540794294
 13         -0.4573273880   -0.2337338775    0.2939674931   -0.2540796787
 14         -0.4573296803   -0.2337339266    0.2939674099   -0.2540797808
 15         -0.4573306647   -0.2337339495    0.2939673718   -0.2540798230
 16         -0.4573310882   -0.2337339601    0.2939673545   -0.2540798406
 17         -0.4573312706   -0.2337339649    0.2939673467   -0.2540798479
 18         -0.4573313493   -0.2337339670    0.2939673433   -0.2540798510
Atom SCF converged after  18 iterations to a total energy of     -0.45733135

Atom SCF Calculation for C  : Z (AE atom) =   6 : Z (PS atom) =   4
Config String:
Orbitals (num,occ):  2     2.00 2.00
Orbitals   (num,l):  2        0    1
Real-space Grid (nr,dr,rmax): 1203    0.0066555740    8.0000000000
Spherical Bessel Basis (nsws,lmax,cutoff):   47    1  176.3951722778
Confining potential (l,width,scale):  0    3.0000000000  100.0000000000
Confining potential (l,width,scale):  1    3.0000000000  100.0000000000
  1         -5.2976922011   -1.3069684169    4.5135249990   -1.4493313817
  2         -5.3721716256   -1.3429755895    4.4750154450   -1.4361613026
  3         -5.3809959565   -1.3617365618    4.4541655428   -1.4305930207
  4         -5.3918938866   -1.3667928461    4.4484735100   -1.4294652294
  5         -5.3956096428   -1.3688539142    4.4461376126   -1.4290734646
  6         -5.3968271862   -1.3696852393    4.4451910874   -1.4289366866
  7         -5.3972028401   -1.3700178062    4.4448112275   -1.4288900460
  8         -5.3973067903   -1.3701500158    4.4446598370   -1.4288749220
  9         -5.3973286940   -1.3702023868    4.4445997329   -1.4288704293
 10         -5.3973289850   -1.3702230869    4.4445759233   -1.4288693188
 11         -5.3973254264   -1.3702312560    4.4445665049   -1.4288691775
 12         -5.3973224003   -1.3702344755    4.4445627836   -1.4288692549
 13         -5.3973208708   -1.3702354890    4.4445616088   -1.4288693270
 14         -5.3973198783   -1.3702360102    4.4445610034   -1.4288693814
 15         -5.3973192535   -1.3702362780    4.4445606917   -1.4288694190
 16         -5.3973188684   -1.3702364155    4.4445605313   -1.4288694437
 17         -5.3973186349   -1.3702364860    4.4445604489   -1.4288694595
 18         -5.3973184951   -1.3702365221    4.4445604065   -1.4288694693
 19         -5.3973184122   -1.3702365405    4.4445603848   -1.4288694753
Atom SCF converged after  19 iterations to a total energy of     -5.39731841

Atom SCF Calculation for S  : Z (AE atom) =  16 : Z (PS atom) =   6
Config String:
Orbitals (num,occ):  3     2.00 4.00 0.00
Orbitals   (num,l):  3        0    1    2
Real-space Grid (nr,dr,rmax): 1203    0.0066555740    8.0000000000
Spherical Bessel Basis (nsws,lmax,cutoff):   47    2  176.3951722778
Confining potential (l,width,scale):  0    3.0000000000  100.0000000000
Confining potential (l,width,scale):  1    3.0000000000  100.0000000000
Confining potential (l,width,scale):  2    3.0000000000  100.0000000000
  1        -12.4735062396   -1.0328741412   10.1554312477   -2.4512393157
  2         -9.9458301913   -2.4607392455    8.3041325857   -2.0306994528
  3        -10.1450417646   -2.2931184565    8.4831893826   -2.0812538287
  4        -10.1528335592   -2.2733105793    8.5050388867   -2.0896035179
  5        -10.1571940363   -2.2633716629    8.5160794258   -2.0939370707
  6        -10.1594380571   -2.2584938667    8.5215163935   -2.0961289008
  7        -10.1605856507   -2.2561081821    8.5241804044   -2.0972291378
  8        -10.1611799191   -2.2549395235    8.5254868240   -2.0977806248
  9        -10.1614918752   -2.2543658586    8.5261285885   -2.0980571586
 10        -10.1616572884   -2.2540839121    8.5264441898   -2.0981959233
 11        -10.1617455602   -2.2539453058    8.5265994231   -2.0982656006
 12        -10.1617928447   -2.2538772062    8.5266757320   -2.0983006047
 13        -10.1618182292   -2.2538437891    8.5267131983   -2.0983181961
 14        -10.1618318741   -2.2538274201    8.5267315620   -2.0983270391
 15        -10.1618392144   -2.2538194197    8.5267405433   -2.0983314852
 16        -10.1618431651   -2.2538155200    8.5267449245   -2.0983337210
 17        -10.1618452923   -2.2538136252    8.5267470551   -2.0983348455
 18        -10.1618464380   -2.2538127080    8.5267480875   -2.0983354110
 19        -10.1618470552   -2.2538122659    8.5267485856   -2.0983356955
 20        -10.1618473878   -2.2538120540    8.5267488248   -2.0983358386
 21        -10.1618475670   -2.2538119530    8.5267489389   -2.0983359106
 22        -10.1618476637   -2.2538119053    8.5267489929   -2.0983359468
Atom SCF converged after  22 iterations to a total energy of    -10.16184766

Atom SCF Calculation for O  : Z (AE atom) =   8 : Z (PS atom) =   6
Config String:
Orbitals (num,occ):  2     2.00 4.00
Orbitals   (num,l):  2        0    1
Real-space Grid (nr,dr,rmax): 1203    0.0066555740    8.0000000000
Spherical Bessel Basis (nsws,lmax,cutoff):   47    1  176.3951722778
Confining potential (l,width,scale):  0    3.0000000000  100.0000000000
Confining potential (l,width,scale):  1    3.0000000000  100.0000000000
  1         -1.8735052164   -7.5539365035   10.1554312477   -2.4512393157
  2        -16.0318313751   -3.1285771268   13.6395848164   -3.2358799643
  3        -15.9524020423   -3.0762819706   13.6967272503   -3.2536856837
  4        -15.8521515939   -3.0781493909   13.6951909330   -3.2561700440
  5        -15.8357139793   -3.0748501933   13.6988803334   -3.2580493133
  6        -15.8246052853   -3.0740779781   13.6997881576   -3.2588327446
  7        -15.8189019501   -3.0737449687   13.7001869911   -3.2592378801
  8        -15.8159785510   -3.0736026016   13.7003615168   -3.2594475790
  9        -15.8144776168   -3.0735437994   13.7004360379   -3.2595560735
 10        -15.8137058024   -3.0735207882   13.7004667348   -3.2596122456
 11        -15.8133083127   -3.0735125946   13.7004786868   -3.2596413656
 12        -15.8131032938   -3.0735102195   13.7004828997   -3.2596564858
 13        -15.8129973902   -3.0735099286   13.7004840891   -3.2596643505
 14        -15.8129426040   -3.0735102506   13.7004842061   -3.2596684489
 15        -15.8129142203   -3.0735106556   13.7004840157   -3.2596705887
 16        -15.8128994940   -3.0735109855   13.7004837906   -3.2596717080
 17        -15.8128918425   -3.0735112169   13.7004836103   -3.2596722946
 18        -15.8128878614   -3.0735113674   13.7004834848   -3.2596726026
 19        -15.8128857871   -3.0735114608   13.7004834035   -3.2596727646
 20        -15.8128847048   -3.0735115170   13.7004833533   -3.2596728500
 21        -15.8128841394   -3.0735115501   13.7004833231   -3.2596728951
 22        -15.8128838436   -3.0735115693   13.7004833054   -3.2596729190
 23        -15.8128836887   -3.0735115802   13.7004832951   -3.2596729316
 24        -15.8128836074   -3.0735115864   13.7004832893   -3.2596729383
Atom SCF converged after  24 iterations to a total energy of    -15.81288361

========================== Calculation in vacuum ==============================
= Adjusting the following parameters: 
= is_implicit_solvent: F
= is_include_apolar: F
= write_denskern: T
= write_tightbox_ngwfs: T
= restart read filename prefix: ""
= restart write filename prefix: "vacuum_"
===============================================================================

Determining parallel strategy ...
... using space-filling curve
... NGWF load balancing: max    217;  min    216;  average    217
... Projector load balancing: max     47;  min     43;  average     44
... done
Calculating direct Ion-Ion energy ...
Ion-Ion Energy        :    820960.01805744133890
======================= Empirical dispersion information =======================
Model : Elstner
Dispersion Correction Energy: -0.32585987E+01 Hartree
================================================================================
Basis initialisation ...... NGWF spheres initialised
... Projector spheres initialised
... NGWF tight boxes initialised
... Tight-boxes gathered
... NGWF basis size (local,global):    2189483  65686763
... Nonlocal pseudopotential projector initialisation
... done

========================== Sparse matrix information ===========================
                        Overlap matrix filling:   6.75%
                        Density kernel filling: 100.00%
              NGWF-Proj overlap matrix filling:   1.78%
                    Hamiltonian matrix filling:   7.62%
                  NGWF diagonal matrix filling:   0.05%
                             KS matrix filling: 100.00% 
                           KSKS matrix filling: 100.00% 
================================================================================

Sparse matrix initialisation ... done

Generating smeared ion density ... done
Smeared ion self correction:     -14457.169564
Smeared ion non-self correction: -820912.129014
NGWF initialisation ...... done
============ Calculation of NGWF S^-1 using Hotelling algorithm ================ 
         Iteration  |  Frobenius norm and Maximum abs value    (of I-S*S_n^-1)   
               1       0.78423493E+02     0.98232053E+00
               2       0.76532525E+02     0.96509138E+00
               3       0.73485029E+02     0.93190193E+00
               4       0.69177041E+02     0.87011798E+00
               5       0.63833647E+02     0.76323660E+00
               6       0.57849803E+02     0.70172467E+00
               7       0.51860991E+02     0.66949877E+00
               8       0.46320786E+02     0.64280611E+00
               9       0.40192344E+02     0.60012090E+00
              10       0.31821212E+02     0.52713793E+00
              11       0.21194534E+02     0.41915324E+00
              12       0.10674505E+02     0.27634957E+00
              13       0.34334335E+01     0.12256915E+00
              14       0.51930275E+00     0.29211025E-01
              15       0.22782309E-01     0.20127805E-02
              16       0.10794199E-03     0.12623754E-04
              17       0.44238518E-08     0.65941030E-09
              18       0.87923429E-13     0.44408921E-14
================================================================================
Calculating local pseudopotential in open BC on the fine real space grid ...
... done

MG BCs: +ve charge blocks (gridpoints):     19916 (   15636255).
MG BCs: -ve charge blocks (gridpoints):      7863 (    1056389).
MG BCs:     Elided blocks (gridpoints):    177204 (  174084061).
MG BCs: Computational effort saved:  99.9854%.
MG BCs: Charge after coarse-graining:           -9.0002194.
MG DL_MG: Calling solver with defect correction order = 8
MG DL_MG: Solver finished
MG Hartree energy from (\int phi*rho dr):              1462.608234
MG Hartree energy from (\int eps (grad phi)^2 dr):     1461.985249
MG Discrepancy due to finite box and discretization:     -0.622985 (  -0.04259%)
MG Correction to account for finite box:                  0.463262
MG Remaining discrepancy, due to discretization:         -0.159723 (  -0.01092%)
Up spin density kernel initialisation ... 
======= Optimisation of K by Palser-Manolopoulos canonical purification ======== 
         Iteration  |  Band structure energy |    c_n   
               1       -2564.05806882051502    0.5278513
               2       -2739.27575847387197    0.5176541
               3       -2920.05591097461684    0.5152244
               4       -3072.56175827752122    0.5277110
               5       -3167.74208962919965    0.5622614
               6       -3208.17948503351181    0.6076387
               7       -3221.87902617467034    0.6203743
               8       -3227.75016484979687    0.6179871
               9       -3230.61238257698733    0.6322840
              10       -3231.79393584711988    0.6637121
              11       -3232.23884647122213    0.6989286
              12       -3232.41711322413175    0.7055720
              13       -3232.50995019010043    0.6806486
              14       -3232.57030169981408    0.6628062
              15       -3232.60584973766481    0.6916051
              16       -3232.62138909160785    0.7415875
              17       -3232.62782190131566    0.7500382
              18       -3232.63162601990598    0.7164389
              19       -3232.63468164175401    0.6686122
              20       -3232.63708775076520    0.6123530
              21       -3232.63872661064670    0.5547114
              22       -3232.63956609119850    0.5138881
              23       -3232.63983951939827    0.5009214
              24       -3232.63995027753163    0.5000041
              25       -3232.64003905492245    0.5000000
              26       -3232.64008341449244    0.5000000
              27       -3232.64009074866772    0.5000000
              28       -3232.64009090980107    0.5000000
Termination criterion satisfied: band energy change below threshold.
Final occupancy bounds: [    0.00000000000836:    0.99999999999883]
Closest occupancy to 0.5:     0.99999999999950
================================================================================
... done

Writing density kernel to file "host_17201.vacuum_dkn" ... done

>>> Optimising kernel for current NGWFs:
   Initial electron number for spin 1:    7192.00000000
     Final electron number for spin 1:    7192.00000000

=================== Penalty functional idempotency correction ==================
 RMS occupancy error at iteration   1:  0.000000 (step -0.5000 Ne1=   7192.0000)
            Final RMS occupancy error   :  0.000000 (Ne1=   7192.0000)
               Final occupancy bounds   : [  0.0000,  1.0000]
================================================================================

................................................................................
<<<<<<<<<<<<<< LNV (Original version) density kernel optimisation >>>>>>>>>>>>>>
~~~~~~~~~~~~~~~~~~~~~~~~~~~~~~~~~~~~~~~~~~~~~~~~~~~~~~~~~~~~~~~~~~~~~~~~~~~~~~~~
   iter  |      energy (Eh)       | rms gradient |  commutator  |   dE (Eh)
MG BCs: +ve charge blocks (gridpoints):     30753 (   16881085).
MG BCs: -ve charge blocks (gridpoints):      8166 (    1088627).
MG BCs:     Elided blocks (gridpoints):    166362 (  172806993).
MG BCs: Computational effort saved:  99.9796%.
MG BCs: Charge after coarse-graining:           -9.0009389.
MG DL_MG: Calling solver with defect correction order = 8
MG DL_MG: Solver finished
MG Hartree energy from (\int phi*rho dr):              1417.176107
MG Hartree energy from (\int eps (grad phi)^2 dr):     1416.503362
MG Discrepancy due to finite box and discretization:     -0.672745 (  -0.04747%)
MG Correction to account for finite box:                  0.468795
MG Remaining discrepancy, due to discretization:         -0.203950 (  -0.01439%)
      ideal mu1:      -0.720771379588
             Q0:  -11507.264182075975
             G0:    -140.602969724465
   RMS gradient:       0.001822845859
MG BCs: +ve charge blocks (gridpoints):     30719 (   16962862).
MG BCs: -ve charge blocks (gridpoints):      8081 (    1068874).
MG BCs:     Elided blocks (gridpoints):    166393 (  172744969).
MG BCs: Computational effort saved:  99.9797%.
MG BCs: Charge after coarse-graining:           -9.0009586.
MG DL_MG: Calling solver with defect correction order = 8
MG DL_MG: Solver finished
MG Hartree energy from (\int phi*rho dr):              1442.965560
MG Hartree energy from (\int eps (grad phi)^2 dr):     1442.310771
MG Discrepancy due to finite box and discretization:     -0.654789 (  -0.04538%)
MG Correction to account for finite box:                  0.467216
MG Remaining discrepancy, due to discretization:         -0.187573 (  -0.01300%)
     Trial step:       0.500000000000
             Q1:  -11518.115825039451
 Quadratic coef:      59.449841898755
 Linear coef   :     -70.301484862232
           Qmin:  -11528.047663646252
Quadratic minimum step length (  0.295633607327) accepted
    Initial Ne1:    7192.00000000
      Final Ne1:    7192.00000000

=================== Penalty functional idempotency correction ==================
 RMS occupancy error at iteration   1:  0.003286 (step -0.4889 Ne1=   7192.0000)
 RMS occupancy error at iteration   2:  0.000024 (step -0.5000 Ne1=   7192.0000)
            Final RMS occupancy error   :  0.000000 (Ne1=   7192.0000)
               Final occupancy bounds   : [  0.0000,  1.0000]
================================================================================

    1        -1.150726418208E+04     1.8228E-03     1.6487E-03
MG BCs: +ve charge blocks (gridpoints):     30745 (   16930727).
MG BCs: -ve charge blocks (gridpoints):      8121 (    1077516).
MG BCs:     Elided blocks (gridpoints):    166367 (  172768462).
MG BCs: Computational effort saved:  99.9796%.
MG BCs: Charge after coarse-graining:           -9.0009506.
MG DL_MG: Calling solver with defect correction order = 8
MG DL_MG: Solver finished
MG Hartree energy from (\int phi*rho dr):              1424.620129
MG Hartree energy from (\int eps (grad phi)^2 dr):     1423.958971
MG Discrepancy due to finite box and discretization:     -0.661158 (  -0.04641%)
MG Correction to account for finite box:                  0.467764
MG Remaining discrepancy, due to discretization:         -0.193394 (  -0.01358%)
      ideal mu1:      -0.758426802043
             Q0:  -11528.425712599303
             G0:     -11.440100020712
   RMS gradient:       0.000516574978
MG BCs: +ve charge blocks (gridpoints):     30746 (   16947273).
MG BCs: -ve charge blocks (gridpoints):      8103 (    1072453).
MG BCs:     Elided blocks (gridpoints):    166366 (  172756979).
MG BCs: Computational effort saved:  99.9796%.
MG BCs: Charge after coarse-graining:           -9.0009544.
MG DL_MG: Calling solver with defect correction order = 8
MG DL_MG: Solver finished
MG Hartree energy from (\int phi*rho dr):              1430.036189
MG Hartree energy from (\int eps (grad phi)^2 dr):     1429.378959
MG Discrepancy due to finite box and discretization:     -0.657229 (  -0.04596%)
MG Correction to account for finite box:                  0.467134
MG Remaining discrepancy, due to discretization:         -0.190095 (  -0.01329%)
     Trial step:       0.384469509407
             Q1:  -11531.109544852283
 Quadratic coef:       1.714537389549
 Linear coef   :      -4.398369642529
           Qmin:  -11531.246539900918
Quadratic minimum step length (  0.493147314535) accepted
    Initial Ne1:    7191.99992166
      Final Ne1:    7192.00000000

=================== Penalty functional idempotency correction ==================
 RMS occupancy error at iteration   1:  0.001712 (step -0.4936 Ne1=   7192.0000)
 RMS occupancy error at iteration   2:  0.000009 (step -0.5000 Ne1=   7192.0000)
            Final RMS occupancy error   :  0.000000 (Ne1=   7192.0000)
               Final occupancy bounds   : [  0.0000,  1.0000]
================================================================================

    2        -1.152842571260E+04     5.1657E-04     4.6723E-04    -2.1162E+01
MG BCs: +ve charge blocks (gridpoints):     30744 (   16952015).
MG BCs: -ve charge blocks (gridpoints):      8099 (    1070949).
MG BCs:     Elided blocks (gridpoints):    166368 (  172753741).
MG BCs: Computational effort saved:  99.9796%.
MG BCs: Charge after coarse-graining:           -9.0009556.
MG DL_MG: Calling solver with defect correction order = 8
MG DL_MG: Solver finished
MG Hartree energy from (\int phi*rho dr):              1431.607449
MG Hartree energy from (\int eps (grad phi)^2 dr):     1430.951258
MG Discrepancy due to finite box and discretization:     -0.656191 (  -0.04584%)
MG Correction to account for finite box:                  0.466966
MG Remaining discrepancy, due to discretization:         -0.189224 (  -0.01322%)
      ideal mu1:      -0.778978449809
             Q0:  -11531.279606452677
             G0:      -1.798988676887
   RMS gradient:       0.000204967620
MG BCs: +ve charge blocks (gridpoints):     30753 (   16951232).
MG BCs: -ve charge blocks (gridpoints):      8108 (    1071849).
MG BCs:     Elided blocks (gridpoints):    166359 (  172753624).
MG BCs: Computational effort saved:  99.9796%.
MG BCs: Charge after coarse-graining:           -9.0009554.
MG DL_MG: Calling solver with defect correction order = 8
MG DL_MG: Solver finished
MG Hartree energy from (\int phi*rho dr):              1429.499784
MG Hartree energy from (\int eps (grad phi)^2 dr):     1428.843947
MG Discrepancy due to finite box and discretization:     -0.655837 (  -0.04588%)
MG Correction to account for finite box:                  0.466817
MG Remaining discrepancy, due to discretization:         -0.189020 (  -0.01322%)
     Trial step:       0.435430942957
             Q1:  -11531.729845800321
 Quadratic coef:       0.333095988304
 Linear coef   :      -0.783335335947
           Qmin:  -11531.740145058731
Quadratic minimum step length (  0.511997225964) accepted
    Initial Ne1:    7191.99997042
      Final Ne1:    7192.00000000

=================== Penalty functional idempotency correction ==================
 RMS occupancy error at iteration   1:  0.000565 (step -0.4977 Ne1=   7192.0000)
 RMS occupancy error at iteration   2:  0.000001 (step -0.5000 Ne1=   7192.0000)
            Final RMS occupancy error   :  0.000000 (Ne1=   7192.0000)
               Final occupancy bounds   : [  0.0000,  1.0000]
================================================================================

    3        -1.153127960645E+04     2.0497E-04     1.8539E-04    -2.8539E+00
MG BCs: +ve charge blocks (gridpoints):     30753 (   16951099).
MG BCs: -ve charge blocks (gridpoints):      8108 (    1071986).
MG BCs:     Elided blocks (gridpoints):    166359 (  172753620).
MG BCs: Computational effort saved:  99.9796%.
MG BCs: Charge after coarse-graining:           -9.0009555.
MG DL_MG: Calling solver with defect correction order = 8
MG DL_MG: Solver finished
MG Hartree energy from (\int phi*rho dr):              1429.137072
MG Hartree energy from (\int eps (grad phi)^2 dr):     1428.481289
MG Discrepancy due to finite box and discretization:     -0.655783 (  -0.04589%)
MG Correction to account for finite box:                  0.466791
MG Remaining discrepancy, due to discretization:         -0.188992 (  -0.01322%)
      ideal mu1:      -0.780193878718
             Q0:  -11531.744192057988
             G0:      -0.421572549354
   RMS gradient:       0.000099332183
MG BCs: +ve charge blocks (gridpoints):     30748 (   16952053).
MG BCs: -ve charge blocks (gridpoints):      8106 (    1071732).
MG BCs:     Elided blocks (gridpoints):    166364 (  172752920).
MG BCs: Computational effort saved:  99.9796%.
MG BCs: Charge after coarse-graining:           -9.0009555.
MG DL_MG: Calling solver with defect correction order = 8
MG DL_MG: Solver finished
MG Hartree energy from (\int phi*rho dr):              1430.301943
MG Hartree energy from (\int eps (grad phi)^2 dr):     1429.646109
MG Discrepancy due to finite box and discretization:     -0.655834 (  -0.04585%)
MG Correction to account for finite box:                  0.466723
MG Remaining discrepancy, due to discretization:         -0.189112 (  -0.01322%)
     Trial step:       0.472164626897
             Q1:  -11531.840114977094
 Quadratic coef:       0.103128726369
 Linear coef   :      -0.199051645476
           Qmin:  -11531.840240848082
Quadratic minimum step length (  0.455669090606) accepted
    Initial Ne1:    7191.99999371
      Final Ne1:    7192.00000000

=================== Penalty functional idempotency correction ==================
 RMS occupancy error at iteration   1:  0.000181 (step -0.4992 Ne1=   7192.0000)
            Final RMS occupancy error   :  0.000000 (Ne1=   7192.0000)
               Final occupancy bounds   : [ -0.0000,  1.0000]
================================================================================

    4        -1.153174419206E+04     9.9332E-05     8.9844E-05    -4.6459E-01
MG BCs: +ve charge blocks (gridpoints):     30748 (   16952009).
MG BCs: -ve charge blocks (gridpoints):      8106 (    1071757).
MG BCs:     Elided blocks (gridpoints):    166364 (  172752939).
MG BCs: Computational effort saved:  99.9796%.
MG BCs: Charge after coarse-graining:           -9.0009555.
MG DL_MG: Calling solver with defect correction order = 8
MG DL_MG: Solver finished
MG Hartree energy from (\int phi*rho dr):              1430.261211
MG Hartree energy from (\int eps (grad phi)^2 dr):     1429.605379
MG Discrepancy due to finite box and discretization:     -0.655832 (  -0.04585%)
MG Correction to account for finite box:                  0.466725
MG Remaining discrepancy, due to discretization:         -0.189107 (  -0.01322%)
      ideal mu1:      -0.780410034895
             Q0:  -11531.840642979136
             G0:      -0.102145038304
   RMS gradient:       0.000049031667
MG BCs: +ve charge blocks (gridpoints):     30747 (   16952060).
MG BCs: -ve charge blocks (gridpoints):      8107 (    1071644).
MG BCs:     Elided blocks (gridpoints):    166365 (  172753001).
MG BCs: Computational effort saved:  99.9796%.
MG BCs: Charge after coarse-graining:           -9.0009555.
MG DL_MG: Calling solver with defect correction order = 8
MG DL_MG: Solver finished
MG Hartree energy from (\int phi*rho dr):              1430.655237
MG Hartree energy from (\int eps (grad phi)^2 dr):     1429.999269
MG Discrepancy due to finite box and discretization:     -0.655968 (  -0.04585%)
MG Correction to account for finite box:                  0.466726
MG Remaining discrepancy, due to discretization:         -0.189242 (  -0.01323%)
     Trial step:       0.463843536286
             Q1:  -11531.865564023610
 Quadratic coef:       0.022458271307
 Linear coef   :      -0.047379315781
           Qmin:  -11531.865631540513
Quadratic minimum step length (  0.489276068451) accepted
    Initial Ne1:    7192.00152967
      Final Ne1:    7192.00000000

=================== Penalty functional idempotency correction ==================
 RMS occupancy error at iteration   1:  0.000064 (step -0.4997 Ne1=   7192.0000)
            Final RMS occupancy error   :  0.000000 (Ne1=   7192.0000)
               Final occupancy bounds   : [ -0.0000,  1.0000]
================================================================================

    5        -1.153184064298E+04     4.9032E-05     4.4348E-05    -9.6451E-02
MG BCs: +ve charge blocks (gridpoints):     30747 (   16952034).
MG BCs: -ve charge blocks (gridpoints):      8107 (    1071641).
MG BCs:     Elided blocks (gridpoints):    166365 (  172753030).
MG BCs: Computational effort saved:  99.9796%.
MG BCs: Charge after coarse-graining:           -9.0009556.
MG DL_MG: Calling solver with defect correction order = 8
MG DL_MG: Solver finished
MG Hartree energy from (\int phi*rho dr):              1430.676894
MG Hartree energy from (\int eps (grad phi)^2 dr):     1430.020918
MG Discrepancy due to finite box and discretization:     -0.655976 (  -0.04585%)
MG Correction to account for finite box:                  0.466726
MG Remaining discrepancy, due to discretization:         -0.189249 (  -0.01323%)
      ideal mu1:      -0.780432193963
             Q0:  -11531.865678124945
             G0:      -0.029708916132
   RMS gradient:       0.000026465199
MG BCs: +ve charge blocks (gridpoints):     30747 (   16951675).
MG BCs: -ve charge blocks (gridpoints):      8107 (    1071855).
MG BCs:     Elided blocks (gridpoints):    166365 (  172753175).
MG BCs: Computational effort saved:  99.9796%.
MG BCs: Charge after coarse-graining:           -9.0009554.
MG DL_MG: Calling solver with defect correction order = 8
MG DL_MG: Solver finished
MG Hartree energy from (\int phi*rho dr):              1430.062147
MG Hartree energy from (\int eps (grad phi)^2 dr):     1429.406182
MG Discrepancy due to finite box and discretization:     -0.655964 (  -0.04587%)
MG Correction to account for finite box:                  0.466724
MG Remaining discrepancy, due to discretization:         -0.189241 (  -0.01323%)
     Trial step:       0.476390115148
             Q1:  -11531.874873956316
 Quadratic coef:       0.004957202606
 Linear coef   :      -0.014153033977
           Qmin:  -11531.875780010358
Quadratic minimum step length (  0.680057486308) accepted
    Initial Ne1:    7192.00091112
      Final Ne1:    7192.00000000

=================== Penalty functional idempotency correction ==================
 RMS occupancy error at iteration   1:  0.000037 (step -0.4998 Ne1=   7192.0000)
            Final RMS occupancy error   :  0.000000 (Ne1=   7192.0000)
               Final occupancy bounds   : [ -0.0000,  1.0000]
================================================================================

    6        -1.153186567812E+04     2.6465E-05     2.3937E-05    -2.5035E-02
MG BCs: +ve charge blocks (gridpoints):     30747 (   16951519).
MG BCs: -ve charge blocks (gridpoints):      8107 (    1071939).
MG BCs:     Elided blocks (gridpoints):    166365 (  172753247).
MG BCs: Computational effort saved:  99.9796%.
MG BCs: Charge after coarse-graining:           -9.0009554.
MG DL_MG: Calling solver with defect correction order = 8
MG DL_MG: Solver finished
MG Hartree energy from (\int phi*rho dr):              1429.798776
MG Hartree energy from (\int eps (grad phi)^2 dr):     1429.142816
MG Discrepancy due to finite box and discretization:     -0.655959 (  -0.04588%)
MG Correction to account for finite box:                  0.466723
MG Remaining discrepancy, due to discretization:         -0.189237 (  -0.01324%)
      ideal mu1:      -0.780103225821
             Q0:  -11531.875788472127
             G0:      -0.015037796451
   RMS gradient:       0.000018851452
MG BCs: +ve charge blocks (gridpoints):     30747 (   16951971).
MG BCs: -ve charge blocks (gridpoints):      8106 (    1071732).
MG BCs:     Elided blocks (gridpoints):    166365 (  172753002).
MG BCs: Computational effort saved:  99.9796%.
MG BCs: Charge after coarse-graining:           -9.0009555.
MG DL_MG: Calling solver with defect correction order = 8
MG DL_MG: Solver finished
MG Hartree energy from (\int phi*rho dr):              1430.361626
MG Hartree energy from (\int eps (grad phi)^2 dr):     1429.705698
MG Discrepancy due to finite box and discretization:     -0.655928 (  -0.04586%)
MG Correction to account for finite box:                  0.466713
MG Remaining discrepancy, due to discretization:         -0.189215 (  -0.01323%)
     Trial step:       0.569185966280
             Q1:  -11531.879435667302
 Quadratic coef:       0.004912107528
 Linear coef   :      -0.008559302703
           Qmin:  -11531.879517098911
Quadratic minimum step length (  0.495900685407) accepted
    Initial Ne1:    7192.00013779
      Final Ne1:    7192.00000000

=================== Penalty functional idempotency correction ==================
 RMS occupancy error at iteration   1:  0.000002 (step -0.5000 Ne1=   7192.0000)
            Final RMS occupancy error   :  0.000000 (Ne1=   7192.0000)
               Final occupancy bounds   : [  0.0000,  1.0000]
================================================================================

    7        -1.153187578847E+04     1.8851E-05     1.7051E-05    -1.0110E-02
MG BCs: +ve charge blocks (gridpoints):     30747 (   16951934).
MG BCs: -ve charge blocks (gridpoints):      8106 (    1071748).
MG BCs:     Elided blocks (gridpoints):    166365 (  172753023).
MG BCs: Computational effort saved:  99.9796%.
MG BCs: Charge after coarse-graining:           -9.0009555.
MG DL_MG: Calling solver with defect correction order = 8
MG DL_MG: Solver finished
MG Hartree energy from (\int phi*rho dr):              1430.289041
MG Hartree energy from (\int eps (grad phi)^2 dr):     1429.633109
MG Discrepancy due to finite box and discretization:     -0.655932 (  -0.04586%)
MG Correction to account for finite box:                  0.466714
MG Remaining discrepancy, due to discretization:         -0.189218 (  -0.01323%)
      ideal mu1:      -0.780473986478
             Q0:  -11531.879517284920
             G0:      -0.008497149621
   RMS gradient:       0.000014171131
MG BCs: +ve charge blocks (gridpoints):     30747 (   16952011).
MG BCs: -ve charge blocks (gridpoints):      8106 (    1071683).
MG BCs:     Elided blocks (gridpoints):    166365 (  172753011).
MG BCs: Computational effort saved:  99.9796%.
MG BCs: Charge after coarse-graining:           -9.0009555.
MG DL_MG: Calling solver with defect correction order = 8
MG DL_MG: Solver finished
MG Hartree energy from (\int phi*rho dr):              1430.367703
MG Hartree energy from (\int eps (grad phi)^2 dr):     1429.711799
MG Discrepancy due to finite box and discretization:     -0.655903 (  -0.04586%)
MG Correction to account for finite box:                  0.466711
MG Remaining discrepancy, due to discretization:         -0.189193 (  -0.01323%)
     Trial step:       0.531281197486
             Q1:  -11531.882789681898
 Quadratic coef:       0.001241978847
 Linear coef   :      -0.004514375826
           Qmin:  -11531.883619526505
Quadratic minimum step length (  0.965557102621) accepted
    Initial Ne1:    7192.00015075
      Final Ne1:    7192.00000000

=================== Penalty functional idempotency correction ==================
 RMS occupancy error at iteration   1:  0.000020 (step -0.4993 Ne1=   7192.0000)
            Final RMS occupancy error   :  0.000000 (Ne1=   7192.0000)
               Final occupancy bounds   : [ -0.0000,  1.0000]
================================================================================

    8        -1.153187951728E+04     1.4171E-05     1.2817E-05    -3.7288E-03
MG BCs: +ve charge blocks (gridpoints):     30747 (   16952092).
MG BCs: -ve charge blocks (gridpoints):      8106 (    1071628).
MG BCs:     Elided blocks (gridpoints):    166365 (  172752985).
MG BCs: Computational effort saved:  99.9796%.
MG BCs: Charge after coarse-graining:           -9.0009556.
MG DL_MG: Calling solver with defect correction order = 8
MG DL_MG: Solver finished
MG Hartree energy from (\int phi*rho dr):              1430.430928
MG Hartree energy from (\int eps (grad phi)^2 dr):     1429.775048
MG Discrepancy due to finite box and discretization:     -0.655880 (  -0.04585%)
MG Correction to account for finite box:                  0.466708
MG Remaining discrepancy, due to discretization:         -0.189172 (  -0.01322%)
      ideal mu1:      -0.780582760587
             Q0:  -11531.883612133213
             G0:      -0.011135674661
   RMS gradient:       0.000016251897
MG BCs: +ve charge blocks (gridpoints):     30746 (   16951995).
MG BCs: -ve charge blocks (gridpoints):      8106 (    1071742).
MG BCs:     Elided blocks (gridpoints):    166366 (  172752968).
MG BCs: Computational effort saved:  99.9796%.
MG BCs: Charge after coarse-graining:           -9.0009555.
MG DL_MG: Calling solver with defect correction order = 8
MG DL_MG: Solver finished
MG Hartree energy from (\int phi*rho dr):              1430.124203
MG Hartree energy from (\int eps (grad phi)^2 dr):     1429.468369
MG Discrepancy due to finite box and discretization:     -0.655835 (  -0.04586%)
MG Correction to account for finite box:                  0.466707
MG Remaining discrepancy, due to discretization:         -0.189127 (  -0.01322%)
     Trial step:       0.716227850423
             Q1:  -11531.888533920166
 Quadratic coef:       0.003053893373
 Linear coef   :      -0.007975680325
           Qmin:  -11531.888819541336
Quadratic minimum step length (  0.935265851915) accepted
    Initial Ne1:    7192.00038834
      Final Ne1:    7192.00000000

=================== Penalty functional idempotency correction ==================
 RMS occupancy error at iteration   1:  0.000100 (step -0.4959 Ne1=   7192.0000)
 RMS occupancy error at iteration   2:  0.000000 (step -0.5000 Ne1=   7192.0000)
            Final RMS occupancy error   :  0.000000 (Ne1=   7192.0000)
               Final occupancy bounds   : [  0.0000,  1.0000]
================================================================================

    9        -1.153188361213E+04     1.6252E-05     1.4699E-05    -4.0948E-03
MG BCs: +ve charge blocks (gridpoints):     30746 (   16951923).
MG BCs: -ve charge blocks (gridpoints):      8106 (    1071790).
MG BCs:     Elided blocks (gridpoints):    166366 (  172752992).
MG BCs: Computational effort saved:  99.9796%.
MG BCs: Charge after coarse-graining:           -9.0009555.
MG DL_MG: Calling solver with defect correction order = 8
MG DL_MG: Solver finished
MG Hartree energy from (\int phi*rho dr):              1430.028679
MG Hartree energy from (\int eps (grad phi)^2 dr):     1429.372859
MG Discrepancy due to finite box and discretization:     -0.655820 (  -0.04586%)
MG Correction to account for finite box:                  0.466707
MG Remaining discrepancy, due to discretization:         -0.189113 (  -0.01322%)
      ideal mu1:      -0.780335855356
   10        -1.153188879220E+04     1.7125E-05     1.5489E-05    -5.1801E-03
Finished density kernel iterations (  10)

Writing density kernel to file "host_17201.vacuum_dkn" ... done


>>> Density kernel optimised for the current NGWF basis:
     ~~~~~~~~~~~~~~~~~~~~~~~~~~~~~~~~~~~~~~~~~~~~~~~~~~~~~~~~~~~
     Total energy                =  -1.15318887922000E+04  Eh
     Estimated bandgap           =  -2.3548E-01  Eh
     RMS occupancy error         =   1.4878E-11
     [H,K] commutator            =   1.5489E-05
     Occupancy bounds            = [  0.000:  1.000]
     ~~~~~~~~~~~~~~~~~~~~~~~~~~~~~~~~~~~~~~~~~~~~~~~~~~~~~~~~~~~




################################################################################
########################### NGWF CG iteration  001 #############################
################################################################################
****** Reciprocal space K.E. preconditioning with k_zero =  3.5000 a0^-1 *******

>>> Checking for convergence of NGWFs:   NOT CONVERGED
  ========================================================================
         NGWF RMS gradient =  1.6313E-03 >  2.0000E-06  | above tolerance
  ========================================================================

>>> Improving NGWFs using line search:
============ Calculation of NGWF S^-1 using Hotelling algorithm ================ 
         Iteration  |  Frobenius norm and Maximum abs value    (of I-S*S_n^-1)   
               1       0.20371332E+00     0.58145892E-02
               2       0.98168561E-03     0.47786266E-04
               3       0.40591310E-07     0.39050356E-08
               4       0.13499026E-12     0.68833828E-14
================================================================================
MG BCs: +ve charge blocks (gridpoints):     30320 (   16891945).
MG BCs: -ve charge blocks (gridpoints):      8101 (    1071567).
MG BCs:     Elided blocks (gridpoints):    166797 (  172813193).
MG BCs: Computational effort saved:  99.9799%.
MG BCs: Charge after coarse-graining:           -9.0009601.
MG DL_MG: Calling solver with defect correction order = 8
MG DL_MG: Solver finished
MG Hartree energy from (\int phi*rho dr):              1397.794664
MG Hartree energy from (\int eps (grad phi)^2 dr):     1397.139719
MG Discrepancy due to finite box and discretization:     -0.654945 (  -0.04686%)
MG Correction to account for finite box:                  0.466650
MG Remaining discrepancy, due to discretization:         -0.188295 (  -0.01347%)
============ Calculation of NGWF S^-1 using Hotelling algorithm ================ 
         Iteration  |  Frobenius norm and Maximum abs value    (of I-S*S_n^-1)   
               1       0.18316627E+01     0.45038286E-01
               2       0.70349553E-01     0.27972630E-02
               3       0.14654442E-03     0.13418431E-04
               4       0.13787050E-08     0.31872927E-09
               5       0.11240714E-12     0.53290705E-14
================================================================================
------------------------------- NGWF line search -------------------------------
RMS gradient                =       0.00163134724777
Trial step length           =               0.122474
Gradient along search dir.  =       -283.26351525238
Functional at step 0        =  -11531.88879220001400
Functional at step 1        =  -11563.85737438406795
Functional predicted        =  -11642.35004834836218
Selected quadratic step     =               0.779919
--------------------------- NGWF line search finished --------------------------
                                               
Writing NGWFs to file "host_17201.vacuum_tightbox_ngwfs"....  done

>>> Optimising kernel for current NGWFs:
   Initial electron number for spin 1:    7226.48035453
     Final electron number for spin 1:    7192.00000000

=================== Penalty functional idempotency correction ==================
 RMS occupancy error at iteration   1:  0.004324 (step -0.4853 Ne1=   7192.0000)
 RMS occupancy error at iteration   2:  0.000076 (step -0.5003 Ne1=   7192.0000)
            Final RMS occupancy error   :  0.000000 (Ne1=   7192.0000)
               Final occupancy bounds   : [  0.0000,  1.0000]
================================================================================

................................................................................
<<<<<<<<<<<<<< LNV (Original version) density kernel optimisation >>>>>>>>>>>>>>
~~~~~~~~~~~~~~~~~~~~~~~~~~~~~~~~~~~~~~~~~~~~~~~~~~~~~~~~~~~~~~~~~~~~~~~~~~~~~~~~
   iter  |      energy (Eh)       | rms gradient |  commutator  |   dE (Eh)
MG BCs: +ve charge blocks (gridpoints):     24366 (   16533251).
MG BCs: -ve charge blocks (gridpoints):      8240 (    1056127).
MG BCs:     Elided blocks (gridpoints):    172754 (  173187327).
MG BCs: Computational effort saved:  99.9829%.
MG BCs: Charge after coarse-graining:           -9.0006801.
MG DL_MG: Calling solver with defect correction order = 8
MG DL_MG: Solver finished
MG Hartree energy from (\int phi*rho dr):              1246.388495
MG Hartree energy from (\int eps (grad phi)^2 dr):     1245.733261
MG Discrepancy due to finite box and discretization:     -0.655234 (  -0.05257%)
MG Correction to account for finite box:                  0.466375
MG Remaining discrepancy, due to discretization:         -0.188859 (  -0.01515%)
      ideal mu1:      -0.719838742375
             Q0:  -11641.584125854308
             G0:      -9.565763508966
   RMS gradient:       0.000475458394
MG BCs: +ve charge blocks (gridpoints):     24420 (   16549077).
MG BCs: -ve charge blocks (gridpoints):      8209 (    1052352).
MG BCs:     Elided blocks (gridpoints):    172700 (  173175276).
MG BCs: Computational effort saved:  99.9829%.
MG BCs: Charge after coarse-graining:           -9.0006750.
MG DL_MG: Calling solver with defect correction order = 8
MG DL_MG: Solver finished
MG Hartree energy from (\int phi*rho dr):              1264.105778
MG Hartree energy from (\int eps (grad phi)^2 dr):     1263.443751
MG Discrepancy due to finite box and discretization:     -0.662028 (  -0.05237%)
MG Correction to account for finite box:                  0.466317
MG Remaining discrepancy, due to discretization:         -0.195711 (  -0.01548%)
     Trial step:       0.818451862171
             Q1:  -11639.683019877062
 Quadratic coef:       9.730222934248
 Linear coef   :      -7.829116957002
           Qmin:  -11643.158988854380
Quadratic minimum step length (  0.329270736956) accepted
    Initial Ne1:    7191.99948059
      Final Ne1:    7192.00000000

=================== Penalty functional idempotency correction ==================
 RMS occupancy error at iteration   1:  0.000346 (step -0.4986 Ne1=   7192.0000)
 RMS occupancy error at iteration   2:  0.000000 (step -0.5000 Ne1=   7192.0000)
            Final RMS occupancy error   :  0.000000 (Ne1=   7192.0000)
               Final occupancy bounds   : [  0.0000,  1.0000]
================================================================================

    1        -1.164158412585E+04     4.7546E-04     4.3004E-04
MG BCs: +ve charge blocks (gridpoints):     24385 (   16539637).
MG BCs: -ve charge blocks (gridpoints):      8228 (    1054688).
MG BCs:     Elided blocks (gridpoints):    172735 (  173182380).
MG BCs: Computational effort saved:  99.9829%.
MG BCs: Charge after coarse-graining:           -9.0006780.
MG DL_MG: Calling solver with defect correction order = 8
MG DL_MG: Solver finished
MG Hartree energy from (\int phi*rho dr):              1252.348473
MG Hartree energy from (\int eps (grad phi)^2 dr):     1251.690622
MG Discrepancy due to finite box and discretization:     -0.657852 (  -0.05253%)
MG Correction to account for finite box:                  0.466335
MG Remaining discrepancy, due to discretization:         -0.191516 (  -0.01529%)
      ideal mu1:      -0.726849062725
             Q0:  -11643.128687168937
             G0:      -0.963162269280
   RMS gradient:       0.000151832766
MG BCs: +ve charge blocks (gridpoints):     24389 (   16539474).
MG BCs: -ve charge blocks (gridpoints):      8231 (    1055446).
MG BCs:     Elided blocks (gridpoints):    172731 (  173181785).
MG BCs: Computational effort saved:  99.9829%.
MG BCs: Charge after coarse-graining:           -9.0006778.
MG DL_MG: Calling solver with defect correction order = 8
MG DL_MG: Solver finished
MG Hartree energy from (\int phi*rho dr):              1253.468900
MG Hartree energy from (\int eps (grad phi)^2 dr):     1252.810623
MG Discrepancy due to finite box and discretization:     -0.658277 (  -0.05252%)
MG Correction to account for finite box:                  0.466354
MG Remaining discrepancy, due to discretization:         -0.191923 (  -0.01531%)
     Trial step:       0.519126427588
             Q1:  -11643.324407027219
 Quadratic coef:       0.304283129757
 Linear coef   :      -0.500002988039
           Qmin:  -11643.334090429584
Quadratic minimum step length (  0.426518494750) accepted
    Initial Ne1:    7191.99993138
      Final Ne1:    7192.00000000

=================== Penalty functional idempotency correction ==================
 RMS occupancy error at iteration   1:  0.000140 (step -0.4994 Ne1=   7192.0000)
            Final RMS occupancy error   :  0.000000 (Ne1=   7192.0000)
               Final occupancy bounds   : [ -0.0000,  1.0000]
================================================================================

    2        -1.164312868717E+04     1.5183E-04     1.3733E-04    -1.5446E+00
MG BCs: +ve charge blocks (gridpoints):     24388 (   16539494).
MG BCs: -ve charge blocks (gridpoints):      8231 (    1055331).
MG BCs:     Elided blocks (gridpoints):    172732 (  173181880).
MG BCs: Computational effort saved:  99.9829%.
MG BCs: Charge after coarse-graining:           -9.0006778.
MG DL_MG: Calling solver with defect correction order = 8
MG DL_MG: Solver finished
MG Hartree energy from (\int phi*rho dr):              1253.268836
MG Hartree energy from (\int eps (grad phi)^2 dr):     1252.610638
MG Discrepancy due to finite box and discretization:     -0.658198 (  -0.05252%)
MG Correction to account for finite box:                  0.466350
MG Remaining discrepancy, due to discretization:         -0.191848 (  -0.01531%)
      ideal mu1:      -0.727829478890
             Q0:  -11643.334534113645
             G0:      -0.143586971931
   RMS gradient:       0.000058188546
MG BCs: +ve charge blocks (gridpoints):     24387 (   16538940).
MG BCs: -ve charge blocks (gridpoints):      8233 (    1055678).
MG BCs:     Elided blocks (gridpoints):    172733 (  173182087).
MG BCs: Computational effort saved:  99.9829%.
MG BCs: Charge after coarse-graining:           -9.0006778.
MG DL_MG: Calling solver with defect correction order = 8
MG DL_MG: Solver finished
MG Hartree energy from (\int phi*rho dr):              1252.793726
MG Hartree energy from (\int eps (grad phi)^2 dr):     1252.135558
MG Discrepancy due to finite box and discretization:     -0.658168 (  -0.05254%)
MG Correction to account for finite box:                  0.466348
MG Remaining discrepancy, due to discretization:         -0.191820 (  -0.01531%)
     Trial step:       0.470549702454
             Q1:  -11643.377899710205
 Quadratic coef:       0.024199210358
 Linear coef   :      -0.067564806918
           Qmin:  -11643.381694775773
Quadratic minimum step length (  0.656893330837) accepted
    Initial Ne1:    7192.00057433
      Final Ne1:    7192.00000000

=================== Penalty functional idempotency correction ==================
 RMS occupancy error at iteration   1:  0.000061 (step -0.4998 Ne1=   7192.0000)
            Final RMS occupancy error   :  0.000000 (Ne1=   7192.0000)
               Final occupancy bounds   : [ -0.0000,  1.0000]
================================================================================

    3        -1.164333453411E+04     5.8189E-05     5.2630E-05    -2.0585E-01
MG BCs: +ve charge blocks (gridpoints):     24387 (   16538673).
MG BCs: -ve charge blocks (gridpoints):      8233 (    1055844).
MG BCs:     Elided blocks (gridpoints):    172733 (  173182188).
MG BCs: Computational effort saved:  99.9829%.
MG BCs: Charge after coarse-graining:           -9.0006778.
MG DL_MG: Calling solver with defect correction order = 8
MG DL_MG: Solver finished
MG Hartree energy from (\int phi*rho dr):              1252.605720
MG Hartree energy from (\int eps (grad phi)^2 dr):     1251.947564
MG Discrepancy due to finite box and discretization:     -0.658156 (  -0.05254%)
MG Correction to account for finite box:                  0.466347
MG Remaining discrepancy, due to discretization:         -0.191809 (  -0.01531%)
      ideal mu1:      -0.726811221527
             Q0:  -11643.381779258838
             G0:      -0.034566680477
   RMS gradient:       0.000028540501
MG BCs: +ve charge blocks (gridpoints):     24387 (   16538474).
MG BCs: -ve charge blocks (gridpoints):      8231 (    1055874).
MG BCs:     Elided blocks (gridpoints):    172733 (  173182357).
MG BCs: Computational effort saved:  99.9829%.
MG BCs: Charge after coarse-graining:           -9.0006778.
MG DL_MG: Calling solver with defect correction order = 8
MG DL_MG: Solver finished
MG Hartree energy from (\int phi*rho dr):              1252.612475
MG Hartree energy from (\int eps (grad phi)^2 dr):     1251.954423
MG Discrepancy due to finite box and discretization:     -0.658052 (  -0.05253%)
MG Correction to account for finite box:                  0.466352
MG Remaining discrepancy, due to discretization:         -0.191699 (  -0.01530%)
     Trial step:       0.555968489547
             Q1:  -11643.390170448460
 Quadratic coef:       0.010826795511
 Linear coef   :      -0.019217985133
           Qmin:  -11643.390307427497
Quadratic minimum step length (  0.493432897843) accepted
    Initial Ne1:    7192.00020755
      Final Ne1:    7192.00000000

=================== Penalty functional idempotency correction ==================
 RMS occupancy error at iteration   1:  0.000017 (step -0.4999 Ne1=   7192.0000)
            Final RMS occupancy error   :  0.000000 (Ne1=   7192.0000)
               Final occupancy bounds   : [ -0.0000,  1.0000]
================================================================================

    4        -1.164338177926E+04     2.8541E-05     2.5814E-05    -4.7245E-02
MG BCs: +ve charge blocks (gridpoints):     24387 (   16538493).
MG BCs: -ve charge blocks (gridpoints):      8232 (    1055871).
MG BCs:     Elided blocks (gridpoints):    172733 (  173182341).
MG BCs: Computational effort saved:  99.9829%.
MG BCs: Charge after coarse-graining:           -9.0006778.
MG DL_MG: Calling solver with defect correction order = 8
MG DL_MG: Solver finished
MG Hartree energy from (\int phi*rho dr):              1252.611521
MG Hartree energy from (\int eps (grad phi)^2 dr):     1251.953458
MG Discrepancy due to finite box and discretization:     -0.658063 (  -0.05254%)
MG Correction to account for finite box:                  0.466352
MG Remaining discrepancy, due to discretization:         -0.191711 (  -0.01530%)
      ideal mu1:      -0.726832418213
             Q0:  -11643.390312027885
             G0:      -0.010896365863
   RMS gradient:       0.000016043988
MG BCs: +ve charge blocks (gridpoints):     24387 (   16538939).
MG BCs: -ve charge blocks (gridpoints):      8232 (    1055699).
MG BCs:     Elided blocks (gridpoints):    172733 (  173182067).
MG BCs: Computational effort saved:  99.9829%.
MG BCs: Charge after coarse-graining:           -9.0006778.
MG DL_MG: Calling solver with defect correction order = 8
MG DL_MG: Solver finished
MG Hartree energy from (\int phi*rho dr):              1252.995202
MG Hartree energy from (\int eps (grad phi)^2 dr):     1252.337178
MG Discrepancy due to finite box and discretization:     -0.658024 (  -0.05252%)
MG Correction to account for finite box:                  0.466347
MG Remaining discrepancy, due to discretization:         -0.191676 (  -0.01530%)
     Trial step:       0.523768214869
             Q1:  -11643.393291871995
 Quadratic coef:       0.002727325988
 Linear coef   :      -0.005707170097
           Qmin:  -11643.393297717043
Quadratic minimum step length (  0.548015585091) accepted
    Initial Ne1:    7192.00008406
      Final Ne1:    7192.00000000

=================== Penalty functional idempotency correction ==================
 RMS occupancy error at iteration   1:  0.000008 (step -0.5000 Ne1=   7192.0000)
            Final RMS occupancy error   :  0.000000 (Ne1=   7192.0000)
               Final occupancy bounds   : [ -0.0000,  1.0000]
================================================================================

    5        -1.164339031203E+04     1.6044E-05     1.4511E-05    -8.5328E-03
MG BCs: +ve charge blocks (gridpoints):     24387 (   16538969).
MG BCs: -ve charge blocks (gridpoints):      8232 (    1055689).
MG BCs:     Elided blocks (gridpoints):    172733 (  173182047).
MG BCs: Computational effort saved:  99.9829%.
MG BCs: Charge after coarse-graining:           -9.0006778.
MG DL_MG: Calling solver with defect correction order = 8
MG DL_MG: Solver finished
MG Hartree energy from (\int phi*rho dr):              1253.012986
MG Hartree energy from (\int eps (grad phi)^2 dr):     1252.354964
MG Discrepancy due to finite box and discretization:     -0.658022 (  -0.05252%)
MG Correction to account for finite box:                  0.466347
MG Remaining discrepancy, due to discretization:         -0.191675 (  -0.01530%)
      ideal mu1:      -0.727149268139
             Q0:  -11643.393298566691
             G0:      -0.003140087041
   RMS gradient:       0.000008612809
MG BCs: +ve charge blocks (gridpoints):     24387 (   16538976).
MG BCs: -ve charge blocks (gridpoints):      8232 (    1055715).
MG BCs:     Elided blocks (gridpoints):    172733 (  173182014).
MG BCs: Computational effort saved:  99.9829%.
MG BCs: Charge after coarse-graining:           -9.0006777.
MG DL_MG: Calling solver with defect correction order = 8
MG DL_MG: Solver finished
MG Hartree energy from (\int phi*rho dr):              1252.990613
MG Hartree energy from (\int eps (grad phi)^2 dr):     1252.332596
MG Discrepancy due to finite box and discretization:     -0.658017 (  -0.05252%)
MG Correction to account for finite box:                  0.466346
MG Remaining discrepancy, due to discretization:         -0.191670 (  -0.01530%)
     Trial step:       0.535754743071
             Q1:  -11643.394334196695
 Quadratic coef:       0.000646686522
 Linear coef   :      -0.001682316526
           Qmin:  -11643.394392678289
Quadratic minimum step length (  0.696867050746) accepted
    Initial Ne1:    7192.00003740
      Final Ne1:    7192.00000000

=================== Penalty functional idempotency correction ==================
 RMS occupancy error at iteration   1:  0.000005 (step -0.5000 Ne1=   7192.0000)
            Final RMS occupancy error   :  0.000000 (Ne1=   7192.0000)
               Final occupancy bounds   : [  0.0000,  1.0000]
================================================================================

    6        -1.164339329857E+04     8.6128E-06     7.7901E-06    -2.9865E-03
MG BCs: +ve charge blocks (gridpoints):     24387 (   16538979).
MG BCs: -ve charge blocks (gridpoints):      8232 (    1055727).
MG BCs:     Elided blocks (gridpoints):    172733 (  173181999).
MG BCs: Computational effort saved:  99.9829%.
MG BCs: Charge after coarse-graining:           -9.0006777.
MG DL_MG: Calling solver with defect correction order = 8
MG DL_MG: Solver finished
MG Hartree energy from (\int phi*rho dr):              1252.983875
MG Hartree energy from (\int eps (grad phi)^2 dr):     1252.325860
MG Discrepancy due to finite box and discretization:     -0.658015 (  -0.05252%)
MG Correction to account for finite box:                  0.466346
MG Remaining discrepancy, due to discretization:         -0.191669 (  -0.01530%)
      ideal mu1:      -0.727140948098
             Q0:  -11643.394392728922
             G0:      -0.001621203802
   RMS gradient:       0.000006189727
MG BCs: +ve charge blocks (gridpoints):     24386 (   16538783).
MG BCs: -ve charge blocks (gridpoints):      8232 (    1055783).
MG BCs:     Elided blocks (gridpoints):    172734 (  173182139).
MG BCs: Computational effort saved:  99.9829%.
MG BCs: Charge after coarse-graining:           -9.0006778.
MG DL_MG: Calling solver with defect correction order = 8
MG DL_MG: Solver finished
MG Hartree energy from (\int phi*rho dr):              1252.878518
MG Hartree energy from (\int eps (grad phi)^2 dr):     1252.220492
MG Discrepancy due to finite box and discretization:     -0.658026 (  -0.05252%)
MG Correction to account for finite box:                  0.466350
MG Remaining discrepancy, due to discretization:         -0.191676 (  -0.01530%)
     Trial step:       0.611023590156
             Q1:  -11643.394732789486
 Quadratic coef:       0.000650533204
 Linear coef   :      -0.000990593768
           Qmin:  -11643.394769833429
Quadratic minimum step length (  0.465215423739) accepted
    Initial Ne1:    7191.99999779
      Final Ne1:    7192.00000000

=================== Penalty functional idempotency correction ==================
 RMS occupancy error at iteration   1:  0.000000 (step -0.5000 Ne1=   7192.0000)
            Final RMS occupancy error   :  0.000000 (Ne1=   7192.0000)
               Final occupancy bounds   : [  0.0000,  1.0000]
================================================================================

    7        -1.164339439273E+04     6.1897E-06     5.5985E-06    -1.0942E-03
MG BCs: +ve charge blocks (gridpoints):     24386 (   16538819).
MG BCs: -ve charge blocks (gridpoints):      8232 (    1055769).
MG BCs:     Elided blocks (gridpoints):    172734 (  173182117).
MG BCs: Computational effort saved:  99.9829%.
MG BCs: Charge after coarse-graining:           -9.0006778.
MG DL_MG: Calling solver with defect correction order = 8
MG DL_MG: Solver finished
MG Hartree energy from (\int phi*rho dr):              1252.903621
MG Hartree energy from (\int eps (grad phi)^2 dr):     1252.245598
MG Discrepancy due to finite box and discretization:     -0.658023 (  -0.05252%)
MG Correction to account for finite box:                  0.466349
MG Remaining discrepancy, due to discretization:         -0.191675 (  -0.01530%)
      ideal mu1:      -0.727030823632
             Q0:  -11643.394769831561
             G0:      -0.000937820690
   RMS gradient:       0.000004707721
MG BCs: +ve charge blocks (gridpoints):     24386 (   16538772).
MG BCs: -ve charge blocks (gridpoints):      8232 (    1055792).
MG BCs:     Elided blocks (gridpoints):    172734 (  173182141).
MG BCs: Computational effort saved:  99.9829%.
MG BCs: Charge after coarse-graining:           -9.0006778.
MG DL_MG: Calling solver with defect correction order = 8
MG DL_MG: Solver finished
MG Hartree energy from (\int phi*rho dr):              1252.863185
MG Hartree energy from (\int eps (grad phi)^2 dr):     1252.205153
MG Discrepancy due to finite box and discretization:     -0.658032 (  -0.05252%)
MG Correction to account for finite box:                  0.466351
MG Remaining discrepancy, due to discretization:         -0.191680 (  -0.01530%)
     Trial step:       0.533158136400
             Q1:  -11643.395159178879
 Quadratic coef:       0.000110659414
 Linear coef   :      -0.000500006731
           Qmin:  -11643.395334642821
Quadratic minimum step length (  1.204518659290) accepted
    Initial Ne1:    7191.99999667
      Final Ne1:    7192.00000000

=================== Penalty functional idempotency correction ==================
 RMS occupancy error at iteration   1:  0.000006 (step -0.4996 Ne1=   7192.0000)
            Final RMS occupancy error   :  0.000000 (Ne1=   7192.0000)
               Final occupancy bounds   : [ -0.0000,  1.0000]
================================================================================

    8        -1.164339476983E+04     4.7077E-06     4.2580E-06    -3.7710E-04
MG BCs: +ve charge blocks (gridpoints):     24386 (   16538713).
MG BCs: -ve charge blocks (gridpoints):      8232 (    1055818).
MG BCs:     Elided blocks (gridpoints):    172734 (  173182174).
[...]
MG DL_MG: Calling solver with defect correction order = 8
MG DL_MG: Solver finished
MG Hartree energy from (\int phi*rho dr):              1210.225056
MG Hartree energy from (\int eps (grad phi)^2 dr):     1210.028247
MG Discrepancy due to finite box and discretization:     -0.196809 (  -0.01626%)
MG Correction to account for finite box:                  0.006429
MG Remaining discrepancy, due to discretization:         -0.190380 (  -0.01573%)
             Q2:  -11677.689475013874
  Cubic LS coeff:       1.222168547716
Predicted energy:  -11677.689475014700
Cubic minimum step length accepted
    Initial Ne1:    7192.00000000
      Final Ne1:    7192.00000000

=================== Penalty functional idempotency correction ==================
 RMS occupancy error at iteration   1:  0.000000 (step -0.5000 Ne1=   7192.0000)
            Final RMS occupancy error   :  0.000000 (Ne1=   7192.0000)
               Final occupancy bounds   : [ -0.0000,  1.0000]
================================================================================

    7        -1.167768947501E+04     9.1692E-09     8.2933E-09    -1.2806E-09

Reusing previously generated solute cavity.
MG BCs: +ve charge blocks (gridpoints):     28931 (   18719111).
MG BCs: -ve charge blocks (gridpoints):      8227 (    1025403).
MG BCs:     Elided blocks (gridpoints):    168189 (  171032191).
MG BCs: Computational effort saved:  99.9805%.
MG BCs: Charge after coarse-graining:           -9.0009559.
MG DL_MG: Calling solver with defect correction order = 8
MG DL_MG: Solver finished
MG Hartree energy from (\int phi*rho dr):              1210.225006
MG Hartree energy from (\int eps (grad phi)^2 dr):     1210.028197
MG Discrepancy due to finite box and discretization:     -0.196809 (  -0.01626%)
MG Correction to account for finite box:                  0.006429
MG Remaining discrepancy, due to discretization:         -0.190380 (  -0.01573%)
      ideal mu1:      -0.482020672151
             Q0:  -11677.689475015039
             G0:      -0.000000003973
   RMS gradient:       0.000000008948

Reusing previously generated solute cavity.
MG BCs: +ve charge blocks (gridpoints):     28931 (   18719111).
MG BCs: -ve charge blocks (gridpoints):      8227 (    1025403).
MG BCs:     Elided blocks (gridpoints):    168189 (  171032191).
MG BCs: Computational effort saved:  99.9805%.
MG BCs: Charge after coarse-graining:           -9.0009559.
MG DL_MG: Calling solver with defect correction order = 8
MG DL_MG: Solver finished
MG Hartree energy from (\int phi*rho dr):              1210.225012
MG Hartree energy from (\int eps (grad phi)^2 dr):     1210.028203
MG Discrepancy due to finite box and discretization:     -0.196809 (  -0.01626%)
MG Correction to account for finite box:                  0.006429
MG Remaining discrepancy, due to discretization:         -0.190380 (  -0.01573%)
     Trial step:       0.652019788004
             Q1:  -11677.689475016668
 Quadratic coef:       0.000000000960
 Linear coef   :      -0.000000002590
           Qmin:  -11677.689475016785
Quadratic minimum step length (  0.879322008834) accepted
    Initial Ne1:    7192.00000000
      Final Ne1:    7192.00000000

=================== Penalty functional idempotency correction ==================
 RMS occupancy error at iteration   1:  0.000000 (step -0.5000 Ne1=   7192.0000)
            Final RMS occupancy error   :  0.000000 (Ne1=   7192.0000)
               Final occupancy bounds   : [  0.0000,  1.0000]
================================================================================

    8        -1.167768947502E+04     8.9482E-09     8.0935E-09    -3.6089E-09

Reusing previously generated solute cavity.
MG BCs: +ve charge blocks (gridpoints):     28931 (   18719112).
MG BCs: -ve charge blocks (gridpoints):      8227 (    1025403).
MG BCs:     Elided blocks (gridpoints):    168189 (  171032190).
MG BCs: Computational effort saved:  99.9805%.
MG BCs: Charge after coarse-graining:           -9.0009559.
MG DL_MG: Calling solver with defect correction order = 8
MG DL_MG: Solver finished
MG Hartree energy from (\int phi*rho dr):              1210.225014
MG Hartree energy from (\int eps (grad phi)^2 dr):     1210.028205
MG Discrepancy due to finite box and discretization:     -0.196809 (  -0.01626%)
MG Correction to account for finite box:                  0.006429
MG Remaining discrepancy, due to discretization:         -0.190380 (  -0.01573%)
      ideal mu1:      -0.482020693620
             Q0:  -11677.689475016668
             G0:      -0.000000002302
   RMS gradient:       0.000000007760

Reusing previously generated solute cavity.
MG BCs: +ve charge blocks (gridpoints):     28931 (   18719111).
MG BCs: -ve charge blocks (gridpoints):      8227 (    1025403).
MG BCs:     Elided blocks (gridpoints):    168189 (  171032191).
MG BCs: Computational effort saved:  99.9805%.
MG BCs: Charge after coarse-graining:           -9.0009559.
MG DL_MG: Calling solver with defect correction order = 8
MG DL_MG: Solver finished
MG Hartree energy from (\int phi*rho dr):              1210.225055
MG Hartree energy from (\int eps (grad phi)^2 dr):     1210.028246
MG Discrepancy due to finite box and discretization:     -0.196809 (  -0.01626%)
MG Correction to account for finite box:                  0.006429
MG Remaining discrepancy, due to discretization:         -0.190380 (  -0.01573%)
     Trial step:       0.757189110980
             Q1:  -11677.689475015621
 Quadratic coef:       0.000000002790
 Linear coef   :      -0.000000001743
           Qmin:  -11677.689475016941
Quadratic minimum step length (  0.236447460535) accepted
    Initial Ne1:    7192.00000000
      Final Ne1:    7192.00000000

=================== Penalty functional idempotency correction ==================
 RMS occupancy error at iteration   1:  0.000000 (step -0.5000 Ne1=   7192.0000)
            Final RMS occupancy error   :  0.000000 (Ne1=   7192.0000)
               Final occupancy bounds   : [ -0.0000,  1.0000]
================================================================================

    9        -1.167768947502E+04     7.7603E-09     7.0190E-09    -1.6298E-09

Reusing previously generated solute cavity.
MG BCs: +ve charge blocks (gridpoints):     28931 (   18719112).
MG BCs: -ve charge blocks (gridpoints):      8227 (    1025403).
MG BCs:     Elided blocks (gridpoints):    168189 (  171032190).
MG BCs: Computational effort saved:  99.9805%.
MG BCs: Charge after coarse-graining:           -9.0009559.
MG DL_MG: Calling solver with defect correction order = 8
MG DL_MG: Solver finished
MG Hartree energy from (\int phi*rho dr):              1210.225027
MG Hartree energy from (\int eps (grad phi)^2 dr):     1210.028218
MG Discrepancy due to finite box and discretization:     -0.196809 (  -0.01626%)
MG Correction to account for finite box:                  0.006429
MG Remaining discrepancy, due to discretization:         -0.190380 (  -0.01573%)
      ideal mu1:      -0.482020696304
   10        -1.167768947502E+04     5.1908E-09     4.6950E-09     0.0000E+00
Finished density kernel iterations (  10)

Writing density kernel to file "host_17201.dkn" ... done


>>> Density kernel optimised for the current NGWF basis:
     ~~~~~~~~~~~~~~~~~~~~~~~~~~~~~~~~~~~~~~~~~~~~~~~~~~~~~~~~~~~
     Total energy                =  -1.16776894750167E+04  Eh
     Estimated bandgap           =   8.9225E-02  Eh
     RMS occupancy error         =   8.0059E-16
     [H,K] commutator            =   4.6950E-09
     Occupancy bounds            = [ -0.000:  1.000]
     ~~~~~~~~~~~~~~~~~~~~~~~~~~~~~~~~~~~~~~~~~~~~~~~~~~~~~~~~~~~




################################################################################
########################### NGWF CG iteration  004 #############################
################################################################################
****** Reciprocal space K.E. preconditioning with k_zero =  3.5000 a0^-1 *******

>>> Checking for convergence of NGWFs: 
           ........................................................
           |         *** NGWF optimisation converged ***          |
           | RMS NGWF gradient =    0.00000195176445              |
           | Criteria satisfied:                                  |
           | -> RMS NGWF gradient lower than set threshold.       |
           ========================================================

Reusing previously generated solute cavity.
MG BCs: +ve charge blocks (gridpoints):     28931 (   18719112).
MG BCs: -ve charge blocks (gridpoints):      8227 (    1025403).
MG BCs:     Elided blocks (gridpoints):    168189 (  171032190).
MG BCs: Computational effort saved:  99.9805%.
MG BCs: Charge after coarse-graining:           -9.0009559.
MG DL_MG: Calling solver with defect correction order = 8
MG DL_MG: Solver finished
MG Hartree energy from (\int phi*rho dr):              1210.225027
MG Hartree energy from (\int eps (grad phi)^2 dr):     1210.028218
MG Discrepancy due to finite box and discretization:     -0.196809 (  -0.01626%)
MG Correction to account for finite box:                  0.006429
MG Remaining discrepancy, due to discretization:         -0.190380 (  -0.01573%)

================================================================================
           ---------------- ENERGY COMPONENTS (Eh) ----------------
           | Kinetic                    :     8522.45048389458680 |
           | Pseudo. (local,OBC,corr'd) :    -5045.69810302956557 |
           | Pseudopotential (non-local):     1403.84289488420427 |
           | Hartree (molecular)        :     1210.22502657118071 |
           | Exchange-correlation       :    -3356.62239163403910 |
           | Ion-ion (open BC)          :   820960.01805744133890 |
           | Dispersion Correction      :       -3.25859865149237 |
           | Smeared ion non-self corr. :  -820912.12901378888637 |
           | Smeared ion self corr.     :   -14457.16956389741972 |
           | Solvent cavitation energy  :        2.31871633367582 |
           | Solute-solvent dis-rep en. :       -1.66698314018789 |
           | Total                      :   -11677.68947501660114 |
           --------------------------------------------------------
           ------ LOCAL ENERGY COMPONENTS FROM MATRIX TRACES ------
           | Pseudopotential (local)    :    -5045.69810302956830 |
           | Hartree                    :    -1993.64058920119214 |
           --------------------------------------------------------
           Integrated density           :     7191.99999999754891
           Integrated density tr(KS)    :     7192.00000000000000
================================================================================


                        <<<<< CALCULATION SUMMARY >>>>>                         
|ITER|    RMS GRADIENT   |     TOTAL ENERGY    |   step   |     Epredicted              
   0     0.00004060983576 -11677.62646729836706   0.619067 -11677.68080084193571        
   1     0.00000997255112 -11677.68893818208016   0.084486 -11677.68938534409062        
   2     0.00000438647055 -11677.68945698416792   0.015378 -11677.68947273134654        
   3     0.00000195176445 -11677.68947501666844  <-- CG                                 

=================== Finished the calculation in solvent ========================
= Adjusting the following parameters: 
= read_denskern: F
= read_tightbox_ngwfs: F
= maxit_pen: 0 (restored to user-specified value)
= restart read filename prefix: ""
= restart write filename prefix: ""
================================================================================

================================================================================
IS: Calculation in solvent completed (NGWFs converged).      

Individual components of total energy in solvent:     hartree           kcal/mol
- Usual non-electrostatic DFT terms:    -12888.56623478133588    -8087697.243952
- Electrostatic fixed charge energy:      1210.22502657118071      759427.653446
- Apolar cavitation energy:                  2.31871633367582        1455.016435
- Apolar dispersion-repulsion energy:       -1.66698314018789       -1046.047691
 -------------------------------------------------------------------------------
- Total energy in solvent:              -11677.68947501666844    -7327860.621761

Components of total energy in solvent:                hartree           kcal/mol
- Usual non-electrostatic DFT terms:    -12888.56623478133588    -8087697.243952
- Electrostatic energy:                   1210.22502657118071      759427.653446
- Apolar energy terms:                       0.65173319348793         408.968745
 -------------------------------------------------------------------------------
- Total energy in solvent:              -11677.68947501666844    -7327860.621761

Calculation of free energy of solvation:              hartree           kcal/mol
- Total energy in solvent:         (+)  -11677.68947501666844    -7327860.621761
- Total energy in vacuum:          (-)  -11673.81587364734150    -7325429.900256
 -------------------------------------------------------------------------------
- Total free energy of solvation:           -3.87360136932693       -2430.721505

Components of polar term in f.e. of solvation:        hartree           kcal/mol
- Electrostatic:                            -4.66927569944801       -2930.014675
- Change in nonelectrostatic DFT terms:      0.14394113663366          90.324425
 -------------------------------------------------------------------------------
- Polar term in f.e. of solvation:          -4.52533456281435       -2839.690250

Components of free energy of solvation:               hartree           kcal/mol
- Polar term in f.e. of solvation: (+)      -4.52533456281435       -2839.690250
- Apolar (cavitation, dis., rep.): (+)       0.65173319348793         408.968745
 -------------------------------------------------------------------------------
- Total free energy of solvation:           -3.87360136932642       -2430.721505
================================================================================


------------------------------ TIMING INFORMATION ------------------------------
AVERAGE TIME:   32536.309s on     30 node(s)                                    
TOTAL TIME:     32536.311s on     30 node(s)                                    
================= AVERAGE TIMINGS FROM ALL NODES (CUMULATIVE) ==================
|| TAG                                    #calls    cpu time   %total  Gflops ||
|| work_imbalance                       :     1        0.00s   0.000%  ------ ||
|| parallel_prepare_fd_halos_alloc      :  1827        0.04s   0.000%  ------ ||
|| parallel_prepare_fd_halos_request    :  1827        0.04s   0.000%  ------ ||
|| sparse_set_to_garbage                :   164        0.05s   0.000%  ------ ||
|| ngwfs_initialise_from_radial         :     1        0.20s   0.001%  ------ ||
|| basis_extract_function_from_box      :  6721        0.27s   0.001%  ------ ||
|| parallel_prepare_fd_halos_satisfy    :  1827        0.70s   0.002%  ------ ||
|| pseudopotentials_nonlocal_mat        :    28        0.81s   0.003%  ------ ||
|| restart_ngwfs_tightbox_input         :     1        1.40s   0.004%  ------ ||
|| parallel_prepare_fd_halos_comms_imbal:  1827        5.45s   0.017%  ------ ||
|| openbc_locps_radial                  :     1        7.04s   0.022%  ------ ||
|| parallel_prepare_fd_halos_clear      :  1827       12.72s   0.039%  ------ ||
|| density_init_guess_real              :     1       15.20s   0.047%  ------ ||
|| restart_kernel_read                  :     1       15.99s   0.049%  ------ ||
|| sparse_init                          :     2       22.53s   0.069%  ------ ||
|| parallel_prepare_fd_halos_comms_wait :  1827       26.69s   0.082%  ------ ||
|| projectors_func_ovlp_box             :    28       27.23s   0.084%  ------ ||
|| projectors_init_fftbox_recip         :   238       29.75s   0.091%  ------ ||
|| function_ops_brappd_ketppd           :    28       30.73s   0.094%  ------ ||
|| palser_mano_kernel_optimise          :     1       44.61s   0.137%  ------ ||
|| parallel_prepare_fd_halos            :  1827       45.65s   0.140%  ------ ||
|| basis_copy_function_to_box           : 109.1k      47.44s   0.146%  ------ ||
|| restart_kernel_write                 :    16       53.31s   0.164%  ------ ||
|| fourier_apply_box_pair               :  9552       58.01s   0.178% 476.614 ||
|| restart_ngwfs_tightbox_output        :    13       62.65s   0.193%  ------ ||
|| ngwf_gradient_coeffs                 :    15       63.76s   0.196%  ------ ||
|| sparse_embed_hotelling_invert_embed  :    28       92.19s   0.283%  ------ ||
|| pseudo_make_structure_factor         :     2      106.64s   0.328%  ------ ||
|| sparse_trace                         :  4728      116.67s   0.359%  ------ ||
|| finite_difference_derivative         :  1827      134.72s   0.414%  ------ ||
|| integrals_kinetic                    :    28      201.87s   0.620%  ------ ||
|| projectors_gradient_batch            :   210      240.25s   0.738%  ------ ||
|| fourier_apply_cell_forward           :  1217      256.71s   0.789%  64.531 ||
|| fourier_apply_cell_backward          :  1219      258.17s   0.793%  64.270 ||
|| kernel_purify                        :   464      338.62s   1.041%  ------ ||
|| openbc_locps_on_grid                 :     2      356.04s   1.094%  ------ ||
|| basis_dot_function_with_box          : 16.62M     364.95s   1.122%  ------ ||
|| lnv_gradient_norm                    :   150      501.15s   1.540%  ------ ||
|| kernel_fix                           :   150      532.05s   1.635%  ------ ||
|| hamiltonian_energy_components        :     4      552.75s   1.699%  ------ ||
|| xc_energy_potential                  :   304      615.13s   1.891%  ------ ||
|| basis_add_function_to_box            : 34.56M     700.37s   2.153%  ------ ||
|| ngwf_gradient_build_batch            :   210      950.78s   2.922%  ------ ||
|| cell_grid_extract_box_real           : 57373     1017.66s   3.128%  ------ ||
|| cell_grid_deposit_box_real           : 67663     1019.10s   3.132%  ------ ||
|| ngwf_gradient_batch                  :   210     1318.08s   4.051%  ------ ||
|| integrals_locpot_mat_els_batch       :  2226     1358.98s   4.177%  ------ ||
|| ngwf_gradient_lnv                    :    15     1551.38s   4.768%  ------ ||
|| density_batch_row_sums               :  4242     1572.24s   4.832%  ------ ||
|| density_fftbox_deposit_to_cell       : 65751     2066.54s   6.351%  ------ ||
|| sparse_product                       :  6117     2097.55s   6.447%  ------ ||
|| multigrid_prepare_bound_cond         :   304     3187.69s   9.797%  ------ ||
|| potential_apply_to_ngwf_batch        :  2226     3988.93s  12.260%  ------ ||
|| density_fftbox_interpolate_multiply  : 65751     4595.26s  14.123%  ------ ||
|| integrals_locpot_dbl_grid            :   159     5355.48s  16.460%  ------ ||
|| fourier_apply_box                    : 227.7k    5508.57s  16.931% 580.269 ||
|| density_batch_interp_deposit         :  4242     7285.09s  22.391%  ------ ||
|| dl_mg_solver_calls                   :   304     7945.21s  24.420%  ------ ||
|| density_on_dbl_grid                  :   303     9683.19s  29.761%  ------ ||
|| multigrid_calculate_hartree          :   304    11313.59s  34.772%  ------ ||
|| hamiltonian_lhxc_calculate           :   299    21457.95s  65.951%  ------ ||
|| lnv_denskernel_optimise_cg           :    15    27668.40s  85.039%  ------ ||
|| ngwf_cg_optimise                     :     2    31264.21s  96.090%  ------ ||
|| total_time                           :     1    32536.31s 100.000%  ------ ||
================================================================================
Overhead of generating timer report: 
- 0 ms averaging over threads,
- 5 ms ensuring consistency across MPI ranks,
- 0 ms printing in order.

Job completed: 19-01-2020 07:45 (-0000)

