 +---------------------------------------------------------------+
 |                                                               |
 |        ####### #     # ####### ####### ####### ######         |
 |        #     # ##    # #          #    #       #     #        |
 |        #     # # #   # #          #    #       #     #        |
 |        #     # #  #  # #####      #    #####   ######         |
 |        #     # #   # # #          #    #       #              |
 |        #     # #    ## #          #    #       #              |
 |        ####### #     # #######    #    ####### #              |
 |                                                               |
 |        Linear-Scaling Ab Initio Total Energy Program          |
 |                                                               |
 |          Release for academic collaborators of ODG            |
 |                                             Version 5.3.2.6.  |
 |                                                               |
 +---------------------------------------------------------------+
 |                                                               |
 |  Authors:                                                     |
 |  Jacek Dziedzic, Peter D. Haynes, Nicholas D. M. Hine,        |
 |  Arash. A. Mostofi, Mike C. Payne and Chris-Kriton Skylaris   |
 |                                                               |
 |  Contributors:                                                |
 |  J. Aarons, L. Andrinopoulos, P. W. Avraam, R. A. Bell,       |
 |  A. Bhandari, G. A. Bramley, R. J. Charlton, S. J. Clark,     |
 |  R. J. Clements, G. C. Constantinescu, F. Corsetti,           |
 |  N. Corsini, O. Dieguez, S. M. M. Dubois, K. K. B. Duff,      |
 |  J. M. Escartin, A. Greco, H. Helal, Q. O. Hill, L. P. Lee,   |
 |  J.-H. Li, E. B. Linscott, G. Moynihan, D. D. O`Regan,        |
 |  O. K. Okan, M. J. S. Phipps, C. J. Pickard,                  |
 |  J. C. A. Prentice, M. I. J. Probert, L. E. Ratcliff,         |
 |  M. Robinson, A. Ruiz Serrano, J. S. Spencer, E. W. Tait,     |
 |  G. Teobaldi, D. Turban, V. Vitale, K. A. Wilkinson,          |
 |  C. Weber, J. C. Womack, N. Yeung and T. J. Zuehlsdorff       |
 |                                                               |
 |                                   Copyright (c) 2004-2019     |
 |                                                               |
 |  Please cite:                                                 |
 |  "Introducing ONETEP: Linear-scaling density functional       |
 |   simulations on parallel computers".                         |
 |   C.-K. Skylaris, P. D. Haynes, A. A. Mostofi, M. C. Payne.   |
 |   J. Chem. Phys. 122 084119 (2005).                           |
 |                                                               |
 |          in all publications arising from your use of ONETEP. |
 |                                                               |
 +---------------------------------------------------------------+
 |                                                               |
 |   ONETEP is based on developments described in the following  |
 |   publications:                                               |
 |                                                               |
 |  "Nonorthogonal generalized Wannier function pseudopotential  |
 |   plane-wave method".                                         |
 |   C.-K. Skylaris, A. A. Mostofi, P. D. Haynes, O. Dieguez,    |
 |   M. C. Payne.                                                |
 |   Phys. Rev. B 66 035119 (2002).                              |
 |                                                               |
 |  "Preconditioned iterative minimization for linear-scaling    |
 |   electronic structure calculations".                         |
 |   A. A. Mostofi, P. D. Haynes, C.-K. Skylaris, M. C. Payne.   |
 |   J. Chem. Phys. 119(17), pp.8842-8848 (2003).                |
 |                                                               |
 |  "Total-energy calculations on a real space grid with         |
 |   localized functions and a plane-wave basis".                |
 |   A. A. Mostofi, C.-K. Skylaris, P. D. Haynes, M. C. Payne.   |
 |   Comput. Phys. Commun. 147, pp.788-802 (2002).               |
 |                                                               |
 |  "Accurate kinetic energy evaluation in electronic structure  |
 |   calculations with localized functions on real space grids"  |
 |   C.-K. Skylaris, A. A. Mostofi, P. D. Haynes, C. J. Pickard, |
 |   M. C. Payne.                                                |
 |   Comput. Phys. Commun. 140, pp.315-322 (2001).               |
 |                                                               |
 |  "Accurate ionic forces and geometry optimization in linear-  |
 |   scaling density-functional theory with local orbitals"      |
 |   N. D. M. Hine, M. Robinson, P. D. Haynes, C.-K. Skylaris,   |
 |   M. C. Payne, and A. A. Mostofi.                             |
 |   Phys. Rev. B 83 195102 (2011).                              |
 |                                                               |
 +---------------------------------------------------------------+

Job started: 26-05-2020 07:19 (+0100)
 
Reading parameters from file "host_23661.dat" ...... done

If your calculation crashes here, before "Checking processes and threads..."
is displayed, then your stack size is insufficient.
If so, use "ulimit -s unlimited" at runtime.
You can disable this check with "check_stack_size F".

Checking processes and threads...
   Determining the default number of threads...
      No default threads set at compilation time: defaulting to 1.
      OpenMP library call suggests 4 threads.
      Hybrid MPI-OpenMP compilation detected.
      Number of MPI processes > 1.
      OMP_NUM_THREADS environment variable present and
      its value matches the one obtained from the OpenMP library call.
      Using this value as default.
      Default threads: 4
      Default applies to threads_max and threads_num_fftboxes.
      Settings in the input file override this default.
   ... done

   Running with 60 MPI processes.
   There are 6 MPI processes running on the same node as the root process.
   Each MPI process is using: 
               1 threads for simulation cell FFTs.
               1 threads for parallel FFT box operations.
               4 threads for loops over batched FFT box operations.
               4 threads in other parallel regions.
... done

Basic input checks...... done

Reading geometry and species blocks from file "host_23661.dat" ...
  <species_atomic_set> block not found: NGWF initialisation set to SOLVE
IS: Dielectric excluded regions:
    - NONE.
    
  Number of PPD points along a3 set to 1.  This is 
  the default value, it may have been provided also in the input file.
... done
 Writing xyz coordinates to file "host_23661.xyz" ... done


--------------------------------------------------------------------------------
---------------------------------- INPUT FILE ----------------------------------
--------------------------------------------------------------------------------

cutoff_energy       : 800 eV                                                    
xc_functional PBE                                                               
task SINGLEPOINT                                                                
write_xyz true                                                                  
output_detail VERBOSE                                                           
ngwf_threshold_orig : 0.000002                                                  
kernel_cutoff       : 1000                                                      
k_zero              : 3.5                                                       
elec_cg_max 0                                                                   
occ_mix 1.0                                                                     
dispersion 1                                                                    
maxit_ngwf_cg 40                                                                
minit_lnv 10                                                                    
maxit_lnv 10                                                                    
write_denskern T                                                                
write_tightbox_ngwfs T                                                          
charge 9                                                                        
is_implicit_solvent T                                                           
is_auto_solvation T                                                             
is_include_apolar T                                                             
is_smeared_ion_rep T                                                            
is_solvent_surf_tension 4.7624E-5 Ha/bohr**2                                    
is_apolar_scaling_factor 0.281075                                               
is_solvation_beta 1.3                                                           
is_density_threshold 0.00035                                                    
is_bulk_permittivity 78.54                                                      
is_dielectric_model fix_initial                                                 
is_smeared_ion_width 0.8                                                        
mg_defco_fd_order 8                                                             
is_bc_coarseness 10                                                             
is_bc_surface_coarseness 1                                                      
fine_grid_scale 2.0                                                             
%block species                                                                  
N   N   7 4 8.0                                                                 
H   H   1 1 8.0                                                                 
C   C   6 4 8.0                                                                 
S   S  16 9 8.0                                                                 
O   O   8 4 8.0                                                                 
%endblock species                                                               
%block species_pot                                                              
N   N_00.recpot                                                                 
H   H_04.recpot                                                                 
C   C_01.recpot                                                                 
S   S_00.recpot                                                                 
O   O_02.recpot                                                                 
%endblock species_pot                                                           
%block lattice_cart                                                             
139.252   0.000   0.000                                                         
0.000 142.425   0.000                                                           
0.000   0.000   162.84                                                          
%endblock lattice_cart                                                          
%block positions_abs                                                            
     Hash =   000001645259199109952529
%endblock positions_abs                                                         

--------------------------------------------------------------------------------
-------------------------------- END INPUT FILE --------------------------------
--------------------------------------------------------------------------------


 
 ESDF WARNING(1): "kernelcutoff" (esdf_physical) has no units. Assume "bohr".
 ESDF WARNING(2): "kzero" (esdf_physical) has no units. Assume "1/bohr".
 ESDF WARNING(3
 ): "issmearedionwidth" (esdf_physical) has no units. Assume "bohr".
<<<<<<<<<<<<<<<<<<<<<<<<<<<<<<<<< Full system >>>>>>>>>>>>>>>>>>>>>>>>>>>>>>>>>>
<<<<<<<<<<<<<<<<<<<<<<<<< Pseudopotential information >>>>>>>>>>>>>>>>>>>>>>>>>>
File: N_00.recpot [ 2001 points up to Gmax=  52.9 (1/bohr)]
  Atomic number:  7;  ionic charge:  5.000000
    Shell 1: l = 0; rc = 1.48 bohr
File: H_04.recpot [ 2001 points up to Gmax=  52.9 (1/bohr)]
  Atomic number:  1;  ionic charge:  1.000000
    Local potential
File: C_01.recpot [ 2001 points up to Gmax=  52.9 (1/bohr)]
  Atomic number:  6;  ionic charge:  4.000000
    Shell 1: l = 0; rc = 1.48 bohr
File: S_00.recpot [ 2001 points up to Gmax=  52.9 (1/bohr)]
  Atomic number: 16;  ionic charge:  6.000000
    Shell 1: l = 0; rc = 1.90 bohr
    Shell 2: l = 2; rc = 1.84 bohr
File: O_02.recpot [ 2001 points up to Gmax=  52.9 (1/bohr)]
  Atomic number:  8;  ionic charge:  6.000000
    Shell 1: l = 0; rc = 1.31 bohr
<<<<<<<<<<<<<<<<<<<<<<<<<<<<<<<<<<<<<<<<>>>>>>>>>>>>>>>>>>>>>>>>>>>>>>>>>>>>>>>>

-------------------------- Atom counting information ---------------------------
Symbol    Natoms    Nngwfs    Nprojs
  N        236       944       236
  H       1311      1311         0
  C        810      3240       810
  S          6        54        36
  O        239       956       239
.......   ......    ......    ......
Totals:   2602      6505      1321
--------------------------------------------------------------------------------

=============================== PSINC grid sizes ===============================
                      Simulation cell:  275 x 280 x 320
                              FFT-box:   99 x  99 x  99
                                  PPD:    5 x   5 x   1
Grid space d1=  0.506370909091a0 (KE cutoff=  29.62556Eh = 806.15239eV)
Grid space d2=  0.508660714286a0 (KE cutoff=  29.35943Eh = 798.91072eV)
Grid space d3=  0.508875000000a0 (KE cutoff=  29.33471Eh = 798.23802eV)
================================================================================

********************* Fourier parallelisation information **********************
       Coarse grid (whole simulation cell) dimensions:    275   280   320
          Real-space ('12') slabs/node (min max mean):      5     6     5
         Recip-space ('23') slabs/node (min max mean):      2     3     2
********************************************************************************

********************* Fourier parallelisation information **********************
       Double grid (whole simulation cell) dimensions:    550   560   640
          Real-space ('12') slabs/node (min max mean):     10    11    10
         Recip-space ('23') slabs/node (min max mean):      4     5     4
********************************************************************************
ONETEP fine grid is 550 x 560 x 640 gridpoints, 139.2520 x 142.4250 x 162.8400 bohr.
FD multigrid is     545 x 553 x 633 gridpoints, 137.9861 x 140.6447 x 161.0589 bohr.


Calculating local pseudopotential in open BC on a radial grid ...
Discrepancy between calculated realspace psloc and -Z/x on [5a0,257.280a0]:
max |rel. diff| # avg |rel. diff| #  avg rel. diff #  f # pseudopotential file
 0.000256370913    0.000003612608   0.000000072509   55  'N_00.recpot'
 0.000395389207    0.000016224277  -0.000000076597   55  'H_04.recpot'
 0.000377360759    0.000017565724   0.000000149252   55  'C_01.recpot'
 0.000469715301    0.000020587835   0.000000455518   55  'S_00.recpot'
 0.000665442002    0.000026079317   0.000000158685   55  'O_02.recpot'
... done

Atom SCF Calculation for N  : Z (AE atom) =   7 : Z (PS atom) =   5
Config String:
Orbitals (num,occ):  2     2.00 3.00
Orbitals   (num,l):  2        0    1
Real-space Grid (nr,dr,rmax): 1203    0.0066555740    8.0000000000
Spherical Bessel Basis (nsws,lmax,cutoff):   47    1  176.3951722778
Confining potential (l,width,scale):  0    3.0000000000  100.0000000000
Confining potential (l,width,scale):  1    3.0000000000  100.0000000000
  1         -4.7312375307   -3.4155304497    7.0523828109   -1.9351020946
  2         -9.7309464766   -2.0532547791    8.2966052865   -2.2494486027
  3         -9.6627394379   -2.1124926340    8.2327997121   -2.2369778124
  4         -9.6814993499   -2.1215521045    8.2229805960   -2.2365178421
  5         -9.6843326483   -2.1250939529    8.2191374534   -2.2362718126
  6         -9.6859628709   -2.1267894855    8.2172963573   -2.2362066344
  7         -9.6867347035   -2.1276425665    8.2163697352   -2.2361903369
  8         -9.6870802100   -2.1280764625    8.2158983890   -2.2361891460
  9         -9.6872290423   -2.1282977424    8.2156580222   -2.2361920435
 10         -9.6872901988   -2.1284107021    8.2155353368   -2.2361953393
 11         -9.6873135296   -2.1284684031    8.2154726809   -2.2361979819
 12         -9.6873212476   -2.1284978948    8.2154406648   -2.2361998431
 13         -9.6873229586   -2.1285129774    8.2154242957   -2.2362010676
 14         -9.6873226456   -2.1285206957    8.2154159216   -2.2362018403
 15         -9.6873218534   -2.1285246479    8.2154116349   -2.2362023142
 16         -9.6873212599   -2.1285262679    8.2154098784   -2.2362025420
 17         -9.6873207834   -2.1285272564    8.2154088068   -2.2362026955
 18         -9.6873204210   -2.1285278596    8.2154081529   -2.2362027982
 19         -9.6873201550   -2.1285282280    8.2154077538   -2.2362028667
 20         -9.6873199645   -2.1285284529    8.2154075102   -2.2362029121
 21         -9.6873198305   -2.1285285903    8.2154073614   -2.2362029421
 22         -9.6873197377   -2.1285286742    8.2154072705   -2.2362029618
Atom SCF converged after  22 iterations to a total energy of     -9.68731974

Atom SCF Calculation for H  : Z (AE atom) =   1 : Z (PS atom) =   1
Config String:
Orbitals (num,occ):  1     1.00
Orbitals   (num,l):  1        0
Real-space Grid (nr,dr,rmax): 1203    0.0066555740    8.0000000000
Spherical Bessel Basis (nsws,lmax,cutoff):   47    0  176.3951722778
Confining potential (l,width,scale):  0    3.0000000000  100.0000000000
  1         -0.3194257691   -0.2393854593    0.2820953124   -0.2424203209
  2         -0.3951823392   -0.2377116493    0.2886404059   -0.2475147891
  3         -0.4317044583   -0.2352244387    0.2921333887   -0.2514046172
  4         -0.4470703708   -0.2341892222    0.2934391879   -0.2531009782
  5         -0.4532132900   -0.2338556667    0.2938388426   -0.2537313520
  6         -0.4556579251   -0.2337612552    0.2939448584   -0.2539550462
  7         -0.4566418315   -0.2337377355    0.2939680120   -0.2540342273
  8         -0.4570437922   -0.2337331116    0.2939708287   -0.2540627372
  9         -0.4572102946   -0.2337328328    0.2939698291   -0.2540732650
 10         -0.4572800424   -0.2337332404    0.2939687193   -0.2540772588
 11         -0.4573095100   -0.2337335791    0.2939680317   -0.2540788122
 12         -0.4573220379   -0.2337337762    0.2939676699   -0.2540794294
 13         -0.4573273880   -0.2337338775    0.2939674931   -0.2540796787
 14         -0.4573296803   -0.2337339266    0.2939674099   -0.2540797808
 15         -0.4573306647   -0.2337339495    0.2939673718   -0.2540798230
 16         -0.4573310882   -0.2337339601    0.2939673545   -0.2540798406
 17         -0.4573312706   -0.2337339649    0.2939673467   -0.2540798479
 18         -0.4573313493   -0.2337339670    0.2939673433   -0.2540798510
Atom SCF converged after  18 iterations to a total energy of     -0.45733135

Atom SCF Calculation for C  : Z (AE atom) =   6 : Z (PS atom) =   4
Config String:
Orbitals (num,occ):  2     2.00 2.00
Orbitals   (num,l):  2        0    1
Real-space Grid (nr,dr,rmax): 1203    0.0066555740    8.0000000000
Spherical Bessel Basis (nsws,lmax,cutoff):   47    1  176.3951722778
Confining potential (l,width,scale):  0    3.0000000000  100.0000000000
Confining potential (l,width,scale):  1    3.0000000000  100.0000000000
  1         -5.2976922011   -1.3069684169    4.5135249990   -1.4493313817
  2         -5.3721716256   -1.3429755895    4.4750154450   -1.4361613026
  3         -5.3809959565   -1.3617365618    4.4541655428   -1.4305930207
  4         -5.3918938866   -1.3667928461    4.4484735100   -1.4294652294
  5         -5.3956096428   -1.3688539142    4.4461376126   -1.4290734646
  6         -5.3968271862   -1.3696852393    4.4451910874   -1.4289366866
  7         -5.3972028401   -1.3700178062    4.4448112275   -1.4288900460
  8         -5.3973067903   -1.3701500158    4.4446598370   -1.4288749220
  9         -5.3973286940   -1.3702023868    4.4445997329   -1.4288704293
 10         -5.3973289850   -1.3702230869    4.4445759233   -1.4288693188
 11         -5.3973254264   -1.3702312560    4.4445665049   -1.4288691775
 12         -5.3973224003   -1.3702344755    4.4445627836   -1.4288692549
 13         -5.3973208708   -1.3702354890    4.4445616088   -1.4288693270
 14         -5.3973198783   -1.3702360102    4.4445610034   -1.4288693814
 15         -5.3973192535   -1.3702362780    4.4445606917   -1.4288694190
 16         -5.3973188684   -1.3702364155    4.4445605313   -1.4288694437
 17         -5.3973186349   -1.3702364860    4.4445604489   -1.4288694595
 18         -5.3973184951   -1.3702365221    4.4445604065   -1.4288694693
 19         -5.3973184122   -1.3702365405    4.4445603848   -1.4288694753
Atom SCF converged after  19 iterations to a total energy of     -5.39731841

Atom SCF Calculation for S  : Z (AE atom) =  16 : Z (PS atom) =   6
Config String:
Orbitals (num,occ):  3     2.00 4.00 0.00
Orbitals   (num,l):  3        0    1    2
Real-space Grid (nr,dr,rmax): 1203    0.0066555740    8.0000000000
Spherical Bessel Basis (nsws,lmax,cutoff):   47    2  176.3951722778
Confining potential (l,width,scale):  0    3.0000000000  100.0000000000
Confining potential (l,width,scale):  1    3.0000000000  100.0000000000
Confining potential (l,width,scale):  2    3.0000000000  100.0000000000
  1        -12.4735062396   -1.0328741412   10.1554312477   -2.4512393157
  2         -9.9458301913   -2.4607392455    8.3041325857   -2.0306994528
  3        -10.1450417646   -2.2931184565    8.4831893826   -2.0812538287
  4        -10.1528335592   -2.2733105793    8.5050388867   -2.0896035179
  5        -10.1571940363   -2.2633716629    8.5160794258   -2.0939370707
  6        -10.1594380571   -2.2584938667    8.5215163935   -2.0961289008
  7        -10.1605856507   -2.2561081821    8.5241804044   -2.0972291378
  8        -10.1611799191   -2.2549395235    8.5254868240   -2.0977806248
  9        -10.1614918752   -2.2543658586    8.5261285885   -2.0980571586
 10        -10.1616572884   -2.2540839121    8.5264441898   -2.0981959233
 11        -10.1617455602   -2.2539453058    8.5265994231   -2.0982656006
 12        -10.1617928447   -2.2538772062    8.5266757320   -2.0983006047
 13        -10.1618182292   -2.2538437891    8.5267131983   -2.0983181961
 14        -10.1618318741   -2.2538274201    8.5267315620   -2.0983270391
 15        -10.1618392144   -2.2538194197    8.5267405433   -2.0983314852
 16        -10.1618431651   -2.2538155200    8.5267449245   -2.0983337210
 17        -10.1618452923   -2.2538136252    8.5267470551   -2.0983348455
 18        -10.1618464380   -2.2538127080    8.5267480875   -2.0983354110
 19        -10.1618470552   -2.2538122659    8.5267485856   -2.0983356955
 20        -10.1618473878   -2.2538120540    8.5267488248   -2.0983358386
 21        -10.1618475670   -2.2538119530    8.5267489389   -2.0983359106
 22        -10.1618476637   -2.2538119053    8.5267489929   -2.0983359468
Atom SCF converged after  22 iterations to a total energy of    -10.16184766

Atom SCF Calculation for O  : Z (AE atom) =   8 : Z (PS atom) =   6
Config String:
Orbitals (num,occ):  2     2.00 4.00
Orbitals   (num,l):  2        0    1
Real-space Grid (nr,dr,rmax): 1203    0.0066555740    8.0000000000
Spherical Bessel Basis (nsws,lmax,cutoff):   47    1  176.3951722778
Confining potential (l,width,scale):  0    3.0000000000  100.0000000000
Confining potential (l,width,scale):  1    3.0000000000  100.0000000000
  1         -1.8735052164   -7.5539365035   10.1554312477   -2.4512393157
  2        -16.0318313751   -3.1285771268   13.6395848164   -3.2358799643
  3        -15.9524020423   -3.0762819706   13.6967272503   -3.2536856837
  4        -15.8521515939   -3.0781493909   13.6951909330   -3.2561700440
  5        -15.8357139793   -3.0748501933   13.6988803334   -3.2580493133
  6        -15.8246052853   -3.0740779781   13.6997881576   -3.2588327446
  7        -15.8189019501   -3.0737449687   13.7001869911   -3.2592378801
  8        -15.8159785510   -3.0736026016   13.7003615168   -3.2594475790
  9        -15.8144776168   -3.0735437994   13.7004360379   -3.2595560735
 10        -15.8137058024   -3.0735207882   13.7004667348   -3.2596122456
 11        -15.8133083127   -3.0735125946   13.7004786868   -3.2596413656
 12        -15.8131032938   -3.0735102195   13.7004828997   -3.2596564858
 13        -15.8129973902   -3.0735099286   13.7004840891   -3.2596643505
 14        -15.8129426040   -3.0735102506   13.7004842061   -3.2596684489
 15        -15.8129142203   -3.0735106556   13.7004840157   -3.2596705887
 16        -15.8128994940   -3.0735109855   13.7004837906   -3.2596717080
 17        -15.8128918425   -3.0735112169   13.7004836103   -3.2596722946
 18        -15.8128878614   -3.0735113674   13.7004834848   -3.2596726026
 19        -15.8128857871   -3.0735114608   13.7004834035   -3.2596727646
 20        -15.8128847048   -3.0735115170   13.7004833533   -3.2596728500
 21        -15.8128841394   -3.0735115501   13.7004833231   -3.2596728951
 22        -15.8128838436   -3.0735115693   13.7004833054   -3.2596729190
 23        -15.8128836887   -3.0735115802   13.7004832951   -3.2596729316
 24        -15.8128836074   -3.0735115864   13.7004832893   -3.2596729383
Atom SCF converged after  24 iterations to a total energy of    -15.81288361

========================== Calculation in vacuum ==============================
= Adjusting the following parameters: 
= is_implicit_solvent: F
= is_include_apolar: F
= write_denskern: T
= write_tightbox_ngwfs: T
= restart read filename prefix: ""
= restart write filename prefix: "vacuum_"
===============================================================================

Determining parallel strategy ...
... using space-filling curve
... NGWF load balancing: max    109;  min    108;  average    108
... Projector load balancing: max     25;  min     21;  average     22
... done
Calculating direct Ion-Ion energy ...
Ion-Ion Energy        :    828397.58439606195316
======================= Empirical dispersion information =======================
Model : Elstner
Dispersion Correction Energy: -0.33435279E+01 Hartree
================================================================================
Basis initialisation ...... NGWF spheres initialised
... Projector spheres initialised
... NGWF tight boxes initialised
... Tight-boxes gathered
... NGWF basis size (local,global):    1374988  82717899
... Nonlocal pseudopotential projector initialisation
... done

========================== Sparse matrix information ===========================
                        Overlap matrix filling:   6.86%
                        Density kernel filling: 100.00%
              NGWF-Proj overlap matrix filling:   1.81%
                    Hamiltonian matrix filling:   7.78%
                  NGWF diagonal matrix filling:   0.05%
                             KS matrix filling: 100.00% 
                           KSKS matrix filling: 100.00% 
================================================================================

Sparse matrix initialisation ... done

Generating smeared ion density ... done
Smeared ion self correction:     -14457.169564
Smeared ion non-self correction: -828349.633268
NGWF initialisation ...... done
============ Calculation of NGWF S^-1 using Hotelling algorithm ================ 
         Iteration  |  Frobenius norm and Maximum abs value    (of I-S*S_n^-1)   
               1       0.78475100E+02     0.98254938E+00
               2       0.76621282E+02     0.96553580E+00
               3       0.73621671E+02     0.93274900E+00
               4       0.69360525E+02     0.87176727E+00
               5       0.64052811E+02     0.76768607E+00
               6       0.58086219E+02     0.70576739E+00
               7       0.52085957E+02     0.67371924E+00
               8       0.46538629E+02     0.64646150E+00
               9       0.40473390E+02     0.60648972E+00
              10       0.32214381E+02     0.53748922E+00
              11       0.21658227E+02     0.42629000E+00
              12       0.11077007E+02     0.28872834E+00
              13       0.36595955E+01     0.14347450E+00
              14       0.58312205E+00     0.39653899E-01
              15       0.29167683E-01     0.37484148E-02
              16       0.21486356E-03     0.45089936E-04
              17       0.30618322E-07     0.77319400E-08
              18       0.94817097E-13     0.48849813E-14
================================================================================
Calculating local pseudopotential in open BC on the fine real space grid ...
... done

MG BCs: +ve charge blocks (gridpoints):     19609 (   15354706).
MG BCs: -ve charge blocks (gridpoints):      7981 (    1056051).
MG BCs:     Elided blocks (gridpoints):    177511 (  174365948).
MG BCs: Computational effort saved:  99.9855%.
MG BCs: Charge after coarse-graining:           -9.0002165.
MG DL_MG: Calling solver with defect correction order = 8
MG DL_MG: Solver finished
MG Hartree energy from (\int phi*rho dr):              1462.279162
MG Hartree energy from (\int eps (grad phi)^2 dr):     1461.656273
MG Discrepancy due to finite box and discretization:     -0.622890 (  -0.04260%)
MG Correction to account for finite box:                  0.463254
MG Remaining discrepancy, due to discretization:         -0.159636 (  -0.01092%)
Up spin density kernel initialisation ... 
======= Optimisation of K by Palser-Manolopoulos canonical purification ======== 
         Iteration  |  Band structure energy |    c_n   
               1       -2582.25723906826579    0.5269153
               2       -2758.00123736062005    0.5170603
               3       -2938.06804438081372    0.5153548
               4       -3088.38241014174127    0.5287115
               5       -3180.79441275731733    0.5642133
               6       -3219.48078722186256    0.6094783
               7       -3232.60019702833779    0.6224434
               8       -3238.25390961269568    0.6214356
               9       -3241.00317772201015    0.6354897
              10       -3242.15553295001746    0.6621007
              11       -3242.60410168159115    0.6797287
              12       -3242.79982025147001    0.6709685
              13       -3242.90352862080908    0.6248630
              14       -3242.96724130064922    0.5288840
              15       -3243.00619380978924    0.3680262
              16       -3243.01258898134802    0.2775205
              17       -3243.01324536254469    0.2599459
              18       -3243.01349118894541    0.2819134
              19       -3243.01372187519610    0.3173920
              20       -3243.01396939172082    0.3642631
              21       -3243.01421492609370    0.4194744
              22       -3243.01442869483708    0.4696263
              23       -3243.01458652864221    0.4955035
              24       -3243.01468964641072    0.4999012
              25       -3243.01473820599222    0.5000000
              26       -3243.01474642161111    0.5000000
              27       -3243.01474661106295    0.5000000
Termination criterion satisfied: band energy change below threshold.
Final occupancy bounds: [    0.00000000003448:    0.99999999999981]
Closest occupancy to 0.5:     0.99999999999691
================================================================================
... done

Writing density kernel to file "host_23661.vacuum_dkn" ... done

>>> Optimising kernel for current NGWFs:
   Initial electron number for spin 1:    7192.00000000
     Final electron number for spin 1:    7192.00000000

=================== Penalty functional idempotency correction ==================
 RMS occupancy error at iteration   1:  0.000000 (step -0.5000 Ne1=   7192.0000)
            Final RMS occupancy error   :  0.000000 (Ne1=   7192.0000)
               Final occupancy bounds   : [ -0.0000,  1.0000]
================================================================================

................................................................................
<<<<<<<<<<<<<< LNV (Original version) density kernel optimisation >>>>>>>>>>>>>>
~~~~~~~~~~~~~~~~~~~~~~~~~~~~~~~~~~~~~~~~~~~~~~~~~~~~~~~~~~~~~~~~~~~~~~~~~~~~~~~~
   iter  |      energy (Eh)       | rms gradient |  commutator  |   dE (Eh)
MG BCs: +ve charge blocks (gridpoints):     30455 (   16607585).
MG BCs: -ve charge blocks (gridpoints):      8276 (    1088233).
MG BCs:     Elided blocks (gridpoints):    166646 (  173080887).
MG BCs: Computational effort saved:  99.9797%.
MG BCs: Charge after coarse-graining:           -9.0009437.
MG DL_MG: Calling solver with defect correction order = 8
MG DL_MG: Solver finished
MG Hartree energy from (\int phi*rho dr):              1417.132743
MG Hartree energy from (\int eps (grad phi)^2 dr):     1416.451989
MG Discrepancy due to finite box and discretization:     -0.680754 (  -0.04804%)
MG Correction to account for finite box:                  0.476443
MG Remaining discrepancy, due to discretization:         -0.204311 (  -0.01442%)
      ideal mu1:      -0.703408322517
             Q0:  -11505.914656173438
             G0:    -143.393490271568
   RMS gradient:       0.001840845826
MG BCs: +ve charge blocks (gridpoints):     30438 (   16689067).
MG BCs: -ve charge blocks (gridpoints):      8195 (    1068025).
MG BCs:     Elided blocks (gridpoints):    166661 (  173019613).
MG BCs: Computational effort saved:  99.9797%.
MG BCs: Charge after coarse-graining:           -9.0009652.
MG DL_MG: Calling solver with defect correction order = 8
MG DL_MG: Solver finished
MG Hartree energy from (\int phi*rho dr):              1442.943035
MG Hartree energy from (\int eps (grad phi)^2 dr):     1442.279894
MG Discrepancy due to finite box and discretization:     -0.663141 (  -0.04596%)
MG Correction to account for finite box:                  0.475290
MG Remaining discrepancy, due to discretization:         -0.187851 (  -0.01302%)
     Trial step:       0.500000000000
             Q1:  -11517.222876037937
 Quadratic coef:      60.388525271286
 Linear coef   :     -71.696745135784
           Qmin:  -11527.195285398830
Quadratic minimum step length (  0.296814439555) accepted
    Initial Ne1:    7192.00000000
      Final Ne1:    7192.00000000

=================== Penalty functional idempotency correction ==================
 RMS occupancy error at iteration   1:  0.003348 (step -0.4887 Ne1=   7192.0000)
 RMS occupancy error at iteration   2:  0.000026 (step -0.5001 Ne1=   7192.0000)
            Final RMS occupancy error   :  0.000000 (Ne1=   7192.0000)
               Final occupancy bounds   : [  0.0000,  1.0000]
================================================================================

    1        -1.150591465617E+04     1.8408E-03     1.6650E-03
MG BCs: +ve charge blocks (gridpoints):     30456 (   16657247).
MG BCs: -ve charge blocks (gridpoints):      8228 (    1076498).
MG BCs:     Elided blocks (gridpoints):    166642 (  173042960).
MG BCs: Computational effort saved:  99.9797%.
MG BCs: Charge after coarse-graining:           -9.0009568.
MG DL_MG: Calling solver with defect correction order = 8
MG DL_MG: Solver finished
MG Hartree energy from (\int phi*rho dr):              1424.575744
MG Hartree energy from (\int eps (grad phi)^2 dr):     1423.906471
MG Discrepancy due to finite box and discretization:     -0.669273 (  -0.04698%)
MG Correction to account for finite box:                  0.475613
MG Remaining discrepancy, due to discretization:         -0.193660 (  -0.01359%)
      ideal mu1:      -0.747898845199
             Q0:  -11527.578685445711
             G0:     -11.862555897256
   RMS gradient:       0.000526015461
MG BCs: +ve charge blocks (gridpoints):     30446 (   16674214).
MG BCs: -ve charge blocks (gridpoints):      8214 (    1071213).
MG BCs:     Elided blocks (gridpoints):    166652 (  173031278).
MG BCs: Computational effort saved:  99.9797%.
MG BCs: Charge after coarse-graining:           -9.0009605.
MG DL_MG: Calling solver with defect correction order = 8
MG DL_MG: Solver finished
MG Hartree energy from (\int phi*rho dr):              1429.827535
MG Hartree energy from (\int eps (grad phi)^2 dr):     1429.162523
MG Discrepancy due to finite box and discretization:     -0.665012 (  -0.04651%)
MG Correction to account for finite box:                  0.474646
MG Remaining discrepancy, due to discretization:         -0.190366 (  -0.01331%)
     Trial step:       0.385236576375
             Q1:  -11530.352640640922
 Quadratic coef:       1.795935225711
 Linear coef   :      -4.569890420921
           Qmin:  -11530.485791748913
Quadratic minimum step length (  0.490131524501) accepted
    Initial Ne1:    7191.99989730
      Final Ne1:    7192.00000000

=================== Penalty functional idempotency correction ==================
 RMS occupancy error at iteration   1:  0.001752 (step -0.4933 Ne1=   7192.0000)
 RMS occupancy error at iteration   2:  0.000011 (step -0.5001 Ne1=   7192.0000)
            Final RMS occupancy error   :  0.000000 (Ne1=   7192.0000)
               Final occupancy bounds   : [  0.0000,  1.0000]
================================================================================

    2        -1.152757868545E+04     5.2602E-04     4.7577E-04    -2.1664E+01
MG BCs: +ve charge blocks (gridpoints):     30451 (   16678534).
MG BCs: -ve charge blocks (gridpoints):      8211 (    1069897).
MG BCs:     Elided blocks (gridpoints):    166647 (  173028274).
MG BCs: Computational effort saved:  99.9797%.
MG BCs: Charge after coarse-graining:           -9.0009617.
MG DL_MG: Calling solver with defect correction order = 8
MG DL_MG: Solver finished
MG Hartree energy from (\int phi*rho dr):              1431.304895
MG Hartree energy from (\int eps (grad phi)^2 dr):     1430.640951
MG Discrepancy due to finite box and discretization:     -0.663944 (  -0.04639%)
MG Correction to account for finite box:                  0.474398
MG Remaining discrepancy, due to discretization:         -0.189546 (  -0.01324%)
      ideal mu1:      -0.772007746327
             Q0:  -11530.520795397577
             G0:      -1.910127022868
   RMS gradient:       0.000211143551
MG BCs: +ve charge blocks (gridpoints):     30453 (   16678480).
MG BCs: -ve charge blocks (gridpoints):      8219 (    1070847).
MG BCs:     Elided blocks (gridpoints):    166645 (  173027378).
MG BCs: Computational effort saved:  99.9797%.
MG BCs: Charge after coarse-graining:           -9.0009611.
MG DL_MG: Calling solver with defect correction order = 8
MG DL_MG: Solver finished
MG Hartree energy from (\int phi*rho dr):              1429.068870
MG Hartree energy from (\int eps (grad phi)^2 dr):     1428.405536
MG Discrepancy due to finite box and discretization:     -0.663334 (  -0.04642%)
MG Correction to account for finite box:                  0.474023
MG Remaining discrepancy, due to discretization:         -0.189312 (  -0.01325%)
     Trial step:       0.434530310189
             Q1:  -11531.011740915710
 Quadratic coef:       0.339062569614
 Linear coef   :      -0.830008087746
           Qmin:  -11531.028749892899
Quadratic minimum step length (  0.531854153406) accepted
    Initial Ne1:    7191.99993908
      Final Ne1:    7192.00000000

=================== Penalty functional idempotency correction ==================
 RMS occupancy error at iteration   1:  0.000644 (step -0.4966 Ne1=   7192.0000)
 RMS occupancy error at iteration   2:  0.000004 (step -0.5000 Ne1=   7192.0000)
            Final RMS occupancy error   :  0.000000 (Ne1=   7192.0000)
               Final occupancy bounds   : [  0.0000,  1.0000]
================================================================================

    3        -1.153052079540E+04     2.1114E-04     1.9097E-04    -2.9421E+00
MG BCs: +ve charge blocks (gridpoints):     30453 (   16678490).
MG BCs: -ve charge blocks (gridpoints):      8224 (    1070993).
MG BCs:     Elided blocks (gridpoints):    166645 (  173027222).
MG BCs: Computational effort saved:  99.9797%.
MG BCs: Charge after coarse-graining:           -9.0009610.
MG DL_MG: Calling solver with defect correction order = 8
MG DL_MG: Solver finished
MG Hartree energy from (\int phi*rho dr):              1428.577669
MG Hartree energy from (\int eps (grad phi)^2 dr):     1427.914459
MG Discrepancy due to finite box and discretization:     -0.663209 (  -0.04642%)
MG Correction to account for finite box:                  0.473940
MG Remaining discrepancy, due to discretization:         -0.189270 (  -0.01325%)
      ideal mu1:      -0.773066216300
             Q0:  -11531.033415116835
             G0:      -0.505062086663
   RMS gradient:       0.000108705163
MG BCs: +ve charge blocks (gridpoints):     30447 (   16679317).
MG BCs: -ve charge blocks (gridpoints):      8220 (    1070747).
MG BCs:     Elided blocks (gridpoints):    166651 (  173026641).
MG BCs: Computational effort saved:  99.9797%.
MG BCs: Charge after coarse-graining:           -9.0009612.
MG DL_MG: Calling solver with defect correction order = 8
MG DL_MG: Solver finished
MG Hartree energy from (\int phi*rho dr):              1429.888613
MG Hartree energy from (\int eps (grad phi)^2 dr):     1429.225482
MG Discrepancy due to finite box and discretization:     -0.663131 (  -0.04638%)
MG Correction to account for finite box:                  0.473753
MG Remaining discrepancy, due to discretization:         -0.189378 (  -0.01324%)
     Trial step:       0.480735634476
             Q1:  -11531.162640946335
 Quadratic coef:       0.113575513182
 Linear coef   :      -0.242801342681
           Qmin:  -11531.163180086318
Quadratic minimum step length (  0.513857495580) accepted
    Initial Ne1:    7191.99998465
      Final Ne1:    7192.00000000

=================== Penalty functional idempotency correction ==================
 RMS occupancy error at iteration   1:  0.000320 (step -0.4931 Ne1=   7192.0000)
 RMS occupancy error at iteration   2:  0.000005 (step -0.5000 Ne1=   7192.0000)
            Final RMS occupancy error   :  0.000000 (Ne1=   7192.0000)
               Final occupancy bounds   : [  0.0000,  1.0000]
================================================================================

    4        -1.153103341512E+04     1.0871E-04     9.8321E-05    -5.1262E-01
MG BCs: +ve charge blocks (gridpoints):     30447 (   16679395).
MG BCs: -ve charge blocks (gridpoints):      8220 (    1070712).
MG BCs:     Elided blocks (gridpoints):    166651 (  173026598).
MG BCs: Computational effort saved:  99.9797%.
MG BCs: Charge after coarse-graining:           -9.0009613.
MG DL_MG: Calling solver with defect correction order = 8
MG DL_MG: Solver finished
MG Hartree energy from (\int phi*rho dr):              1429.979688
MG Hartree energy from (\int eps (grad phi)^2 dr):     1429.316562
MG Discrepancy due to finite box and discretization:     -0.663126 (  -0.04637%)
MG Correction to account for finite box:                  0.473740
MG Remaining discrepancy, due to discretization:         -0.189386 (  -0.01324%)
      ideal mu1:      -0.773379242689
             Q0:  -11531.163783392985
             G0:      -0.206964412624
   RMS gradient:       0.000069782824
MG BCs: +ve charge blocks (gridpoints):     30448 (   16679499).
MG BCs: -ve charge blocks (gridpoints):      8214 (    1070526).
MG BCs:     Elided blocks (gridpoints):    166650 (  173026680).
MG BCs: Computational effort saved:  99.9797%.
MG BCs: Charge after coarse-graining:           -9.0009612.
MG DL_MG: Calling solver with defect correction order = 8
MG DL_MG: Solver finished
MG Hartree energy from (\int phi*rho dr):              1430.359640
MG Hartree energy from (\int eps (grad phi)^2 dr):     1429.696408
MG Discrepancy due to finite box and discretization:     -0.663232 (  -0.04637%)
MG Correction to account for finite box:                  0.473682
MG Remaining discrepancy, due to discretization:         -0.189550 (  -0.01325%)
     Trial step:       0.497020733136
             Q1:  -11531.232411029865
 Quadratic coef:       0.034237967217
 Linear coef   :      -0.102865604096
           Qmin:  -11531.241046540934
Quadratic minimum step length (  0.746632205686) accepted
    Initial Ne1:    7191.99999026
      Final Ne1:    7192.00000000

=================== Penalty functional idempotency correction ==================
 RMS occupancy error at iteration   1:  0.000678 (step -0.4595 Ne1=   7192.0000)
 RMS occupancy error at iteration   2:  0.000021 (step -0.4999 Ne1=   7192.0000)
            Final RMS occupancy error   :  0.000000 (Ne1=   7192.0000)
               Final occupancy bounds   : [ -0.0000,  1.0000]
================================================================================

    5        -1.153116378339E+04     6.9783E-05     6.3117E-05    -1.3037E-01
MG BCs: +ve charge blocks (gridpoints):     30450 (   16679531).
MG BCs: -ve charge blocks (gridpoints):      8214 (    1070431).
MG BCs:     Elided blocks (gridpoints):    166648 (  173026743).
MG BCs: Computational effort saved:  99.9797%.
MG BCs: Charge after coarse-graining:           -9.0009612.
MG DL_MG: Calling solver with defect correction order = 8
MG DL_MG: Solver finished
MG Hartree energy from (\int phi*rho dr):              1430.549472
MG Hartree energy from (\int eps (grad phi)^2 dr):     1429.886187
MG Discrepancy due to finite box and discretization:     -0.663286 (  -0.04637%)
MG Correction to account for finite box:                  0.473653
MG Remaining discrepancy, due to discretization:         -0.189633 (  -0.01326%)
      ideal mu1:      -0.773501651304
             Q0:  -11531.239685696550
             G0:      -0.214117053677
   RMS gradient:       0.000071914617
MG BCs: +ve charge blocks (gridpoints):     30448 (   16678785).
MG BCs: -ve charge blocks (gridpoints):      8218 (    1070878).
MG BCs:     Elided blocks (gridpoints):    166650 (  173027042).
MG BCs: Computational effort saved:  99.9797%.
MG BCs: Charge after coarse-graining:           -9.0009610.
MG DL_MG: Calling solver with defect correction order = 8
MG DL_MG: Solver finished
MG Hartree energy from (\int phi*rho dr):              1429.090898
MG Hartree energy from (\int eps (grad phi)^2 dr):     1428.427709
MG Discrepancy due to finite box and discretization:     -0.663189 (  -0.04641%)
MG Correction to account for finite box:                  0.473582
MG Remaining discrepancy, due to discretization:         -0.189607 (  -0.01327%)
     Trial step:       0.609172952661
             Q1:  -11531.330762253725
 Quadratic coef:       0.039357760628
 Linear coef   :      -0.130434317803
           Qmin:  -11531.347752765085
Quadratic minimum step length (  1.009420470526) accepted
    Initial Ne1:    7192.00004921
      Final Ne1:    7192.00000000

=================== Penalty functional idempotency correction ==================
 RMS occupancy error at iteration   1:  0.004153 (step -0.3162 Ne1=   7192.0000)
 RMS occupancy error at iteration   2:  0.000349 (step -0.4840 Ne1=   7192.0000)
 RMS occupancy error at iteration   3:  0.000008 (step -0.5003 Ne1=   7192.0000)
            Final RMS occupancy error   :  0.000000 (Ne1=   7192.0000)
               Final occupancy bounds   : [  0.0000,  1.0000]
================================================================================

    6        -1.153123968570E+04     7.1915E-05     6.5045E-05    -7.5902E-02
MG BCs: +ve charge blocks (gridpoints):     30449 (   16678233).
MG BCs: -ve charge blocks (gridpoints):      8220 (    1071293).
MG BCs:     Elided blocks (gridpoints):    166649 (  173027179).
MG BCs: Computational effort saved:  99.9797%.
MG BCs: Charge after coarse-graining:           -9.0009608.
MG DL_MG: Calling solver with defect correction order = 8
MG DL_MG: Solver finished
MG Hartree energy from (\int phi*rho dr):              1428.154637
MG Hartree energy from (\int eps (grad phi)^2 dr):     1427.491488
MG Discrepancy due to finite box and discretization:     -0.663149 (  -0.04643%)
MG Correction to account for finite box:                  0.473555
MG Remaining discrepancy, due to discretization:         -0.189593 (  -0.01328%)
      ideal mu1:      -0.773463958785
             Q0:  -11531.337052944931
             G0:      -0.307663476365
   RMS gradient:       0.000085268902
MG BCs: +ve charge blocks (gridpoints):     30446 (   16680184).
MG BCs: -ve charge blocks (gridpoints):      8217 (    1070320).
MG BCs:     Elided blocks (gridpoints):    166652 (  173026201).
MG BCs: Computational effort saved:  99.9797%.
MG BCs: Charge after coarse-graining:           -9.0009615.
MG DL_MG: Calling solver with defect correction order = 8
MG DL_MG: Solver finished
MG Hartree energy from (\int phi*rho dr):              1430.640928
MG Hartree energy from (\int eps (grad phi)^2 dr):     1429.978061
MG Discrepancy due to finite box and discretization:     -0.662867 (  -0.04633%)
MG Correction to account for finite box:                  0.473491
MG Remaining discrepancy, due to discretization:         -0.189376 (  -0.01324%)
     Trial step:       0.784163024190
             Q1:  -11531.435349144973
 Quadratic coef:       0.142962122018
 Linear coef   :      -0.241258322059
           Qmin:  -11531.438837909265
Quadratic minimum step length (  0.661664267312) accepted
    Initial Ne1:    7191.99994116
      Final Ne1:    7192.00000000

=================== Penalty functional idempotency correction ==================
 RMS occupancy error at iteration   1:  0.000191 (step -0.4885 Ne1=   7192.0000)
 RMS occupancy error at iteration   2:  0.000001 (step -0.5000 Ne1=   7192.0000)
            Final RMS occupancy error   :  0.000000 (Ne1=   7192.0000)
               Final occupancy bounds   : [  0.0000,  1.0000]
================================================================================

    7        -1.153133705294E+04     8.5269E-05     7.7124E-05    -9.7367E-02
MG BCs: +ve charge blocks (gridpoints):     30446 (   16679839).
MG BCs: -ve charge blocks (gridpoints):      8217 (    1070478).
MG BCs:     Elided blocks (gridpoints):    166652 (  173026388).
MG BCs: Computational effort saved:  99.9797%.
MG BCs: Charge after coarse-graining:           -9.0009614.
MG DL_MG: Calling solver with defect correction order = 8
MG DL_MG: Solver finished
MG Hartree energy from (\int phi*rho dr):              1430.251306
MG Hartree energy from (\int eps (grad phi)^2 dr):     1429.588396
MG Discrepancy due to finite box and discretization:     -0.662909 (  -0.04635%)
MG Correction to account for finite box:                  0.473500
MG Remaining discrepancy, due to discretization:         -0.189409 (  -0.01324%)
      ideal mu1:      -0.774517001505
             Q0:  -11531.438979321858
             G0:      -0.229782302383
   RMS gradient:       0.000073653783
MG BCs: +ve charge blocks (gridpoints):     30448 (   16679752).
MG BCs: -ve charge blocks (gridpoints):      8217 (    1070430).
MG BCs:     Elided blocks (gridpoints):    166650 (  173026523).
MG BCs: Computational effort saved:  99.9797%.
MG BCs: Charge after coarse-graining:           -9.0009615.
MG DL_MG: Calling solver with defect correction order = 8
MG DL_MG: Solver finished
MG Hartree energy from (\int phi*rho dr):              1430.047258
MG Hartree energy from (\int eps (grad phi)^2 dr):     1429.384393
MG Discrepancy due to finite box and discretization:     -0.662866 (  -0.04635%)
MG Correction to account for finite box:                  0.473608
MG Remaining discrepancy, due to discretization:         -0.189258 (  -0.01323%)
     Trial step:       0.720314273671
             Q1:  -11531.528809650103
 Quadratic coef:       0.075685143998
 Linear coef   :      -0.165515472243
           Qmin:  -11531.529470566587
Quadratic minimum step length (  0.787625885821) accepted
    Initial Ne1:    7191.99994753
      Final Ne1:    7192.00000000

=================== Penalty functional idempotency correction ==================
 RMS occupancy error at iteration   1:  0.001153 (step -0.4384 Ne1=   7192.0000)
 RMS occupancy error at iteration   2:  0.000026 (step -0.4996 Ne1=   7192.0000)
            Final RMS occupancy error   :  0.000000 (Ne1=   7192.0000)
               Final occupancy bounds   : [ -0.0000,  1.0000]
================================================================================

    8        -1.153143897932E+04     7.3654E-05     6.6618E-05    -1.0193E-01
MG BCs: +ve charge blocks (gridpoints):     30448 (   16679662).
MG BCs: -ve charge blocks (gridpoints):      8217 (    1070449).
MG BCs:     Elided blocks (gridpoints):    166650 (  173026594).
MG BCs: Computational effort saved:  99.9797%.
MG BCs: Charge after coarse-graining:           -9.0009615.
MG DL_MG: Calling solver with defect correction order = 8
MG DL_MG: Solver finished
MG Hartree energy from (\int phi*rho dr):              1430.030894
MG Hartree energy from (\int eps (grad phi)^2 dr):     1429.368035
MG Discrepancy due to finite box and discretization:     -0.662860 (  -0.04635%)
MG Correction to account for finite box:                  0.473616
MG Remaining discrepancy, due to discretization:         -0.189244 (  -0.01323%)
      ideal mu1:      -0.774167946025
             Q0:  -11531.529464115039
             G0:      -0.201464748030
   RMS gradient:       0.000068741250
MG BCs: +ve charge blocks (gridpoints):     30450 (   16678915).
MG BCs: -ve charge blocks (gridpoints):      8220 (    1070810).
MG BCs:     Elided blocks (gridpoints):    166648 (  173026980).
MG BCs: Computational effort saved:  99.9797%.
MG BCs: Charge after coarse-graining:           -9.0009613.
MG DL_MG: Calling solver with defect correction order = 8
MG DL_MG: Solver finished
MG Hartree energy from (\int phi*rho dr):              1428.876026
MG Hartree energy from (\int eps (grad phi)^2 dr):     1428.213053
MG Discrepancy due to finite box and discretization:     -0.662974 (  -0.04640%)
MG Correction to account for finite box:                  0.473772
MG Remaining discrepancy, due to discretization:         -0.189202 (  -0.01324%)
     Trial step:       0.753218539250
             Q1:  -11531.597554935375
 Quadratic coef:       0.083656162886
 Linear coef   :      -0.151746983222
           Qmin:  -11531.598278970163
Quadratic minimum step length (  0.683145372051) accepted
    Initial Ne1:    7192.00008921
      Final Ne1:    7192.00000000

=================== Penalty functional idempotency correction ==================
 RMS occupancy error at iteration   1:  0.002427 (step -0.3891 Ne1=   7192.0000)
 RMS occupancy error at iteration   2:  0.000058 (step -0.4991 Ne1=   7192.0000)
 RMS occupancy error at iteration   3:  0.000000 (step -0.5000 Ne1=   7192.0000)
            Final RMS occupancy error   :  0.000000 (Ne1=   7192.0000)
               Final occupancy bounds   : [  0.0000,  1.0000]
================================================================================

    9        -1.153152946412E+04     6.8741E-05     6.2175E-05    -9.0485E-02
MG BCs: +ve charge blocks (gridpoints):     30450 (   16678969).
MG BCs: -ve charge blocks (gridpoints):      8220 (    1070790).
MG BCs:     Elided blocks (gridpoints):    166648 (  173026946).
MG BCs: Computational effort saved:  99.9797%.
MG BCs: Charge after coarse-graining:           -9.0009613.
MG DL_MG: Calling solver with defect correction order = 8
MG DL_MG: Solver finished
MG Hartree energy from (\int phi*rho dr):              1428.984715
MG Hartree energy from (\int eps (grad phi)^2 dr):     1428.321754
MG Discrepancy due to finite box and discretization:     -0.662961 (  -0.04639%)
MG Correction to account for finite box:                  0.473758
MG Remaining discrepancy, due to discretization:         -0.189203 (  -0.01324%)
      ideal mu1:      -0.773289118153
   10        -1.153160193080E+04     5.5554E-05     5.0248E-05    -7.2467E-02
Finished density kernel iterations (  10)

Writing density kernel to file "host_23661.vacuum_dkn" ... done


>>> Density kernel optimised for the current NGWF basis:
     ~~~~~~~~~~~~~~~~~~~~~~~~~~~~~~~~~~~~~~~~~~~~~~~~~~~~~~~~~~~
     Total energy                =  -1.15316019307961E+04  Eh
     Estimated bandgap           =  -4.4137E-01  Eh
     RMS occupancy error         =   5.2540E-12
     [H,K] commutator            =   5.0248E-05
     Occupancy bounds            = [  0.000:  1.000]
     ~~~~~~~~~~~~~~~~~~~~~~~~~~~~~~~~~~~~~~~~~~~~~~~~~~~~~~~~~~~




################################################################################
########################### NGWF CG iteration  001 #############################
################################################################################
****** Reciprocal space K.E. preconditioning with k_zero =  3.5000 a0^-1 *******

>>> Checking for convergence of NGWFs:   NOT CONVERGED
  ========================================================================
         NGWF RMS gradient =  1.6313E-03 >  2.0000E-06  | above tolerance
  ========================================================================

>>> Improving NGWFs using line search:
============ Calculation of NGWF S^-1 using Hotelling algorithm ================ 
         Iteration  |  Frobenius norm and Maximum abs value    (of I-S*S_n^-1)   
               1       0.20370579E+00     0.53726166E-02
               2       0.97390403E-03     0.42674865E-04
               3       0.38768067E-07     0.29404132E-08
               4       0.12775747E-12     0.55511151E-14
================================================================================
MG BCs: +ve charge blocks (gridpoints):     29995 (   16615936).
MG BCs: -ve charge blocks (gridpoints):      8204 (    1070616).
MG BCs:     Elided blocks (gridpoints):    167110 (  173090153).
MG BCs: Computational effort saved:  99.9800%.
MG BCs: Charge after coarse-graining:           -9.0009649.
MG DL_MG: Calling solver with defect correction order = 8
MG DL_MG: Solver finished
MG Hartree energy from (\int phi*rho dr):              1396.815709
MG Hartree energy from (\int eps (grad phi)^2 dr):     1396.153701
MG Discrepancy due to finite box and discretization:     -0.662008 (  -0.04739%)
MG Correction to account for finite box:                  0.473666
MG Remaining discrepancy, due to discretization:         -0.188343 (  -0.01348%)
============ Calculation of NGWF S^-1 using Hotelling algorithm ================ 
         Iteration  |  Frobenius norm and Maximum abs value    (of I-S*S_n^-1)   
               1       0.18298407E+01     0.42498910E-01
               2       0.69947927E-01     0.22826041E-02
               3       0.14153687E-03     0.86265757E-05
               4       0.11007482E-08     0.13054202E-09
               5       0.10928446E-12     0.53290705E-14
================================================================================
------------------------------- NGWF line search -------------------------------
RMS gradient                =       0.00163129342931
Trial step length           =               0.122474
Gradient along search dir.  =       -283.24482572304
Functional at step 0        =  -11531.60193079605233
Functional at step 1        =  -11563.56597980333026
Functional predicted        =  -11641.95769280463719
Selected quadratic step     =               0.779225
--------------------------- NGWF line search finished --------------------------
                                               
Writing NGWFs to file "host_23661.vacuum_tightbox_ngwfs"....  done

>>> Optimising kernel for current NGWFs:
   Initial electron number for spin 1:    7226.57223615
     Final electron number for spin 1:    7192.00000000

=================== Penalty functional idempotency correction ==================
 RMS occupancy error at iteration   1:  0.004343 (step -0.4854 Ne1=   7192.0000)
 RMS occupancy error at iteration   2:  0.000074 (step -0.5003 Ne1=   7192.0000)
            Final RMS occupancy error   :  0.000000 (Ne1=   7192.0000)
               Final occupancy bounds   : [  0.0000,  1.0000]
================================================================================

................................................................................
<<<<<<<<<<<<<< LNV (Original version) density kernel optimisation >>>>>>>>>>>>>>
~~~~~~~~~~~~~~~~~~~~~~~~~~~~~~~~~~~~~~~~~~~~~~~~~~~~~~~~~~~~~~~~~~~~~~~~~~~~~~~~
   iter  |      energy (Eh)       | rms gradient |  commutator  |   dE (Eh)
MG BCs: +ve charge blocks (gridpoints):     24028 (   16242187).
MG BCs: -ve charge blocks (gridpoints):      8307 (    1054919).
MG BCs:     Elided blocks (gridpoints):    173092 (  173479599).
MG BCs: Computational effort saved:  99.9831%.
MG BCs: Charge after coarse-graining:           -9.0006807.
MG DL_MG: Calling solver with defect correction order = 8
MG DL_MG: Solver finished
MG Hartree energy from (\int phi*rho dr):              1245.833960
MG Hartree energy from (\int eps (grad phi)^2 dr):     1245.171999
MG Discrepancy due to finite box and discretization:     -0.661961 (  -0.05313%)
MG Correction to account for finite box:                  0.473260
MG Remaining discrepancy, due to discretization:         -0.188701 (  -0.01515%)
      ideal mu1:      -0.714527803105
             Q0:  -11641.194563685567
             G0:      -9.739608352398
   RMS gradient:       0.000479759348
MG BCs: +ve charge blocks (gridpoints):     24092 (   16255421).
MG BCs: -ve charge blocks (gridpoints):      8283 (    1051873).
MG BCs:     Elided blocks (gridpoints):    173028 (  173469411).
MG BCs: Computational effort saved:  99.9830%.
MG BCs: Charge after coarse-graining:           -9.0006764.
MG DL_MG: Calling solver with defect correction order = 8
MG DL_MG: Solver finished
MG Hartree energy from (\int phi*rho dr):              1260.757580
MG Hartree energy from (\int eps (grad phi)^2 dr):     1260.090391
MG Discrepancy due to finite box and discretization:     -0.667189 (  -0.05292%)
MG Correction to account for finite box:                  0.472382
MG Remaining discrepancy, due to discretization:         -0.194807 (  -0.01545%)
     Trial step:       0.717326814800
             Q1:  -11640.600374460337
 Quadratic coef:       7.580671462061
 Linear coef   :      -6.986482236830
           Qmin:  -11642.804280393706
Quadratic minimum step length (  0.330550603247) accepted
    Initial Ne1:    7191.99954136
      Final Ne1:    7192.00000000

=================== Penalty functional idempotency correction ==================
 RMS occupancy error at iteration   1:  0.000351 (step -0.4986 Ne1=   7192.0000)
 RMS occupancy error at iteration   2:  0.000000 (step -0.5000 Ne1=   7192.0000)
            Final RMS occupancy error   :  0.000000 (Ne1=   7192.0000)
               Final occupancy bounds   : [  0.0000,  1.0000]
================================================================================

    1        -1.164119456369E+04     4.7976E-04     4.3393E-04
MG BCs: +ve charge blocks (gridpoints):     24062 (   16248231).
MG BCs: -ve charge blocks (gridpoints):      8295 (    1053617).
MG BCs:     Elided blocks (gridpoints):    173058 (  173474857).
MG BCs: Computational effort saved:  99.9830%.
MG BCs: Charge after coarse-graining:           -9.0006788.
MG DL_MG: Calling solver with defect correction order = 8
MG DL_MG: Solver finished
MG Hartree energy from (\int phi*rho dr):              1251.788693
MG Hartree energy from (\int eps (grad phi)^2 dr):     1251.124432
MG Discrepancy due to finite box and discretization:     -0.664260 (  -0.05306%)
MG Correction to account for finite box:                  0.472824
MG Remaining discrepancy, due to discretization:         -0.191437 (  -0.01529%)
      ideal mu1:      -0.720795620959
             Q0:  -11642.779835692258
             G0:      -0.988328732568
   RMS gradient:       0.000153458641
MG BCs: +ve charge blocks (gridpoints):     24060 (   16247642).
MG BCs: -ve charge blocks (gridpoints):      8300 (    1054383).
MG BCs:     Elided blocks (gridpoints):    173060 (  173474680).
MG BCs: Computational effort saved:  99.9830%.
MG BCs: Charge after coarse-graining:           -9.0006787.
MG DL_MG: Calling solver with defect correction order = 8
MG DL_MG: Solver finished
MG Hartree energy from (\int phi*rho dr):              1252.747188
MG Hartree energy from (\int eps (grad phi)^2 dr):     1252.082610
MG Discrepancy due to finite box and discretization:     -0.664578 (  -0.05305%)
MG Correction to account for finite box:                  0.472732
MG Remaining discrepancy, due to discretization:         -0.191845 (  -0.01531%)
     Trial step:       0.486942308038
             Q1:  -11642.985827116412
 Quadratic coef:       0.275267649982
 Linear coef   :      -0.481259074137
           Qmin:  -11642.990185779214
Quadratic minimum step length (  0.425668262035) accepted
    Initial Ne1:    7191.99993956
      Final Ne1:    7192.00000000

=================== Penalty functional idempotency correction ==================
 RMS occupancy error at iteration   1:  0.000146 (step -0.4993 Ne1=   7192.0000)
 RMS occupancy error at iteration   2:  0.000000 (step -0.5000 Ne1=   7192.0000)
            Final RMS occupancy error   :  0.000000 (Ne1=   7192.0000)
               Final occupancy bounds   : [  0.0000,  1.0000]
================================================================================

    2        -1.164277983569E+04     1.5346E-04     1.3880E-04    -1.5853E+00
MG BCs: +ve charge blocks (gridpoints):     24058 (   16247690).
MG BCs: -ve charge blocks (gridpoints):      8298 (    1054293).
MG BCs:     Elided blocks (gridpoints):    173062 (  173474722).
MG BCs: Computational effort saved:  99.9830%.
MG BCs: Charge after coarse-graining:           -9.0006787.
MG DL_MG: Calling solver with defect correction order = 8
MG DL_MG: Solver finished
MG Hartree energy from (\int phi*rho dr):              1252.626347
MG Hartree energy from (\int eps (grad phi)^2 dr):     1251.961811
MG Discrepancy due to finite box and discretization:     -0.664536 (  -0.05305%)
MG Correction to account for finite box:                  0.472744
MG Remaining discrepancy, due to discretization:         -0.191793 (  -0.01531%)
      ideal mu1:      -0.721631032981
             Q0:  -11642.990626918036
             G0:      -0.160846904110
   RMS gradient:       0.000061588947
MG BCs: +ve charge blocks (gridpoints):     24058 (   16247133).
MG BCs: -ve charge blocks (gridpoints):      8298 (    1054700).
MG BCs:     Elided blocks (gridpoints):    173062 (  173474872).
MG BCs: Computational effort saved:  99.9830%.
MG BCs: Charge after coarse-graining:           -9.0006786.
MG DL_MG: Calling solver with defect correction order = 8
MG DL_MG: Solver finished
MG Hartree energy from (\int phi*rho dr):              1252.157811
MG Hartree energy from (\int eps (grad phi)^2 dr):     1251.493391
MG Discrepancy due to finite box and discretization:     -0.664420 (  -0.05306%)
MG Correction to account for finite box:                  0.472643
MG Remaining discrepancy, due to discretization:         -0.191777 (  -0.01532%)
     Trial step:       0.455275615396
             Q1:  -11643.040560580790
 Quadratic coef:       0.023296010499
 Linear coef   :      -0.073229673253
           Qmin:  -11643.048175237791
Quadratic minimum step length (  0.715566396177) accepted
    Initial Ne1:    7191.99998363
      Final Ne1:    7192.00000000

=================== Penalty functional idempotency correction ==================
 RMS occupancy error at iteration   1:  0.000136 (step -0.4938 Ne1=   7192.0000)
 RMS occupancy error at iteration   2:  0.000001 (step -0.5000 Ne1=   7192.0000)
            Final RMS occupancy error   :  0.000000 (Ne1=   7192.0000)
               Final occupancy bounds   : [  0.0000,  1.0000]
================================================================================

    3        -1.164299062692E+04     6.1589E-05     5.5706E-05    -2.1079E-01
MG BCs: +ve charge blocks (gridpoints):     24059 (   16246763).
MG BCs: -ve charge blocks (gridpoints):      8299 (    1054917).
MG BCs:     Elided blocks (gridpoints):    173061 (  173475025).
MG BCs: Computational effort saved:  99.9830%.
MG BCs: Charge after coarse-graining:           -9.0006787.
MG DL_MG: Calling solver with defect correction order = 8
MG DL_MG: Solver finished
MG Hartree energy from (\int phi*rho dr):              1251.890265
MG Hartree energy from (\int eps (grad phi)^2 dr):     1251.225911
MG Discrepancy due to finite box and discretization:     -0.664354 (  -0.05307%)
MG Correction to account for finite box:                  0.472585
MG Remaining discrepancy, due to discretization:         -0.191769 (  -0.01532%)
      ideal mu1:      -0.720811157786
             Q0:  -11643.048251293832
             G0:      -0.060069420440
   RMS gradient:       0.000037630221
MG BCs: +ve charge blocks (gridpoints):     24058 (   16246695).
MG BCs: -ve charge blocks (gridpoints):      8297 (    1054967).
MG BCs:     Elided blocks (gridpoints):    173062 (  173475043).
MG BCs: Computational effort saved:  99.9830%.
MG BCs: Charge after coarse-graining:           -9.0006786.
MG DL_MG: Calling solver with defect correction order = 8
MG DL_MG: Solver finished
MG Hartree energy from (\int phi*rho dr):              1251.892304
MG Hartree energy from (\int eps (grad phi)^2 dr):     1251.228133
MG Discrepancy due to finite box and discretization:     -0.664172 (  -0.05305%)
MG Correction to account for finite box:                  0.472530
MG Remaining discrepancy, due to discretization:         -0.191642 (  -0.01531%)
     Trial step:       0.570771347718
             Q1:  -11643.068650002591
 Quadratic coef:       0.013887195302
 Linear coef   :      -0.034285904061
           Qmin:  -11643.069413292200
Quadratic minimum step length (  0.704584735899) accepted
    Initial Ne1:    7191.99999381
      Final Ne1:    7192.00000000

=================== Penalty functional idempotency correction ==================
 RMS occupancy error at iteration   1:  0.000195 (step -0.4870 Ne1=   7192.0000)
 RMS occupancy error at iteration   2:  0.000002 (step -0.5000 Ne1=   7192.0000)
            Final RMS occupancy error   :  0.000000 (Ne1=   7192.0000)
               Final occupancy bounds   : [  0.0000,  1.0000]
================================================================================

    4        -1.164304825129E+04     3.7630E-05     3.4036E-05    -5.7624E-02
MG BCs: +ve charge blocks (gridpoints):     24058 (   16246710).
MG BCs: -ve charge blocks (gridpoints):      8297 (    1054957).
MG BCs:     Elided blocks (gridpoints):    173062 (  173475038).
MG BCs: Computational effort saved:  99.9830%.
MG BCs: Charge after coarse-graining:           -9.0006786.
MG DL_MG: Calling solver with defect correction order = 8
MG DL_MG: Solver finished
MG Hartree energy from (\int phi*rho dr):              1251.893590
MG Hartree energy from (\int eps (grad phi)^2 dr):     1251.229462
MG Discrepancy due to finite box and discretization:     -0.664129 (  -0.05305%)
MG Correction to account for finite box:                  0.472516
MG Remaining discrepancy, due to discretization:         -0.191613 (  -0.01531%)
      ideal mu1:      -0.721217474810
             Q0:  -11643.069410894765
             G0:      -0.049992563774
   RMS gradient:       0.000034340329
MG BCs: +ve charge blocks (gridpoints):     24059 (   16247693).
MG BCs: -ve charge blocks (gridpoints):      8296 (    1054589).
MG BCs:     Elided blocks (gridpoints):    173061 (  173474423).
MG BCs: Computational effort saved:  99.9830%.
MG BCs: Charge after coarse-graining:           -9.0006785.
MG DL_MG: Calling solver with defect correction order = 8
MG DL_MG: Solver finished
MG Hartree energy from (\int phi*rho dr):              1252.610570
MG Hartree energy from (\int eps (grad phi)^2 dr):     1251.946623
MG Discrepancy due to finite box and discretization:     -0.663946 (  -0.05301%)
MG Correction to account for finite box:                  0.472409
MG Remaining discrepancy, due to discretization:         -0.191537 (  -0.01529%)
     Trial step:       0.634158323521
             Q1:  -11643.089231388294
 Quadratic coef:       0.011882706902
 Linear coef   :      -0.031703200431
           Qmin:  -11643.090557021776
Quadratic minimum step length (  0.845970897120) accepted
    Initial Ne1:    7191.99999351
      Final Ne1:    7192.00000000

=================== Penalty functional idempotency correction ==================
 RMS occupancy error at iteration   1:  0.000632 (step -0.4589 Ne1=   7192.0000)
 RMS occupancy error at iteration   2:  0.000012 (step -0.4994 Ne1=   7192.0000)
            Final RMS occupancy error   :  0.000000 (Ne1=   7192.0000)
               Final occupancy bounds   : [ -0.0000,  1.0000]
================================================================================

    5        -1.164306941089E+04     3.4340E-05     3.1060E-05    -2.1160E-02
MG BCs: +ve charge blocks (gridpoints):     24059 (   16248050).
MG BCs: -ve charge blocks (gridpoints):      8296 (    1054468).
MG BCs:     Elided blocks (gridpoints):    173061 (  173474187).
MG BCs: Computational effort saved:  99.9830%.
MG BCs: Charge after coarse-graining:           -9.0006784.
MG DL_MG: Calling solver with defect correction order = 8
MG DL_MG: Solver finished
MG Hartree energy from (\int phi*rho dr):              1252.851504
MG Hartree energy from (\int eps (grad phi)^2 dr):     1252.187619
MG Discrepancy due to finite box and discretization:     -0.663885 (  -0.05299%)
MG Correction to account for finite box:                  0.472373
MG Remaining discrepancy, due to discretization:         -0.191512 (  -0.01529%)
      ideal mu1:      -0.722454269120
             Q0:  -11643.090545243118
             G0:      -0.046791953043
   RMS gradient:       0.000033007196
MG BCs: +ve charge blocks (gridpoints):     24058 (   16248175).
MG BCs: -ve charge blocks (gridpoints):      8296 (    1054486).
MG BCs:     Elided blocks (gridpoints):    173062 (  173474044).
MG BCs: Computational effort saved:  99.9830%.
MG BCs: Charge after coarse-graining:           -9.0006784.
MG DL_MG: Calling solver with defect correction order = 8
MG DL_MG: Solver finished
MG Hartree energy from (\int phi*rho dr):              1252.701769
MG Hartree energy from (\int eps (grad phi)^2 dr):     1252.038011
MG Discrepancy due to finite box and discretization:     -0.663758 (  -0.05299%)
MG Correction to account for finite box:                  0.472238
MG Remaining discrepancy, due to discretization:         -0.191519 (  -0.01529%)
     Trial step:       0.732447599399
             Q1:  -11643.113059482072
 Quadratic coef:       0.011758414723
 Linear coef   :      -0.034272653677
           Qmin:  -11643.115519162175
Quadratic minimum step length (  1.067445038411) accepted
    Initial Ne1:    7192.00017528
      Final Ne1:    7192.00000000

=================== Penalty functional idempotency correction ==================
 RMS occupancy error at iteration   1:  0.001898 (step -0.3965 Ne1=   7192.0000)
 RMS occupancy error at iteration   2:  0.000086 (step -0.4952 Ne1=   7192.0000)
 RMS occupancy error at iteration   3:  0.000001 (step -0.5000 Ne1=   7192.0000)
            Final RMS occupancy error   :  0.000000 (Ne1=   7192.0000)
               Final occupancy bounds   : [  0.0000,  1.0000]
================================================================================

    6        -1.164309054524E+04     3.3007E-05     2.9854E-05    -2.1134E-02
MG BCs: +ve charge blocks (gridpoints):     24058 (   16248235).
MG BCs: -ve charge blocks (gridpoints):      8295 (    1054481).
MG BCs:     Elided blocks (gridpoints):    173062 (  173473989).
MG BCs: Computational effort saved:  99.9830%.
MG BCs: Charge after coarse-graining:           -9.0006784.
MG DL_MG: Calling solver with defect correction order = 8
MG DL_MG: Solver finished
MG Hartree energy from (\int phi*rho dr):              1252.635484
MG Hartree energy from (\int eps (grad phi)^2 dr):     1251.971780
MG Discrepancy due to finite box and discretization:     -0.663704 (  -0.05298%)
MG Correction to account for finite box:                  0.472181
MG Remaining discrepancy, due to discretization:         -0.191523 (  -0.01529%)
      ideal mu1:      -0.722703563487
             Q0:  -11643.115842903615
             G0:      -0.053206913711
   RMS gradient:       0.000035459837
MG BCs: +ve charge blocks (gridpoints):     24058 (   16246443).
MG BCs: -ve charge blocks (gridpoints):      8298 (    1055004).
MG BCs:     Elided blocks (gridpoints):    173062 (  173475258).
MG BCs: Computational effort saved:  99.9830%.
MG BCs: Charge after coarse-graining:           -9.0006787.
MG DL_MG: Calling solver with defect correction order = 8
MG DL_MG: Solver finished
MG Hartree energy from (\int phi*rho dr):              1251.850311
MG Hartree energy from (\int eps (grad phi)^2 dr):     1251.186488
MG Discrepancy due to finite box and discretization:     -0.663823 (  -0.05303%)
MG Correction to account for finite box:                  0.472245
MG Remaining discrepancy, due to discretization:         -0.191578 (  -0.01530%)
     Trial step:       0.884221440519
             Q1:  -11643.124018455157
 Quadratic coef:       0.038871142346
 Linear coef   :      -0.047046693887
           Qmin:  -11643.130078344562
Quadratic minimum step length (  0.535097413276) accepted
    Initial Ne1:    7191.99999995
      Final Ne1:    7192.00000000

=================== Penalty functional idempotency correction ==================
 RMS occupancy error at iteration   1:  0.000021 (step -0.4989 Ne1=   7192.0000)
            Final RMS occupancy error   :  0.000000 (Ne1=   7192.0000)
               Final occupancy bounds   : [ -0.0000,  1.0000]
================================================================================

    7        -1.164311584290E+04     3.5460E-05     3.2073E-05    -2.5298E-02
MG BCs: +ve charge blocks (gridpoints):     24058 (   16247095).
MG BCs: -ve charge blocks (gridpoints):      8297 (    1054834).
MG BCs:     Elided blocks (gridpoints):    173062 (  173474776).
MG BCs: Computational effort saved:  99.9830%.
MG BCs: Charge after coarse-graining:           -9.0006786.
MG DL_MG: Calling solver with defect correction order = 8
MG DL_MG: Solver finished
MG Hartree energy from (\int phi*rho dr):              1252.157571
MG Hartree energy from (\int eps (grad phi)^2 dr):     1251.493793
MG Discrepancy due to finite box and discretization:     -0.663777 (  -0.05301%)
MG Correction to account for finite box:                  0.472221
MG Remaining discrepancy, due to discretization:         -0.191556 (  -0.01530%)
      ideal mu1:      -0.722185406473
             Q0:  -11643.130077537266
             G0:      -0.036958837764
   RMS gradient:       0.000029548474
MG BCs: +ve charge blocks (gridpoints):     24057 (   16246858).
MG BCs: -ve charge blocks (gridpoints):      8297 (    1054876).
MG BCs:     Elided blocks (gridpoints):    173063 (  173474971).
MG BCs: Computational effort saved:  99.9830%.
MG BCs: Charge after coarse-graining:           -9.0006786.
MG DL_MG: Calling solver with defect correction order = 8
MG DL_MG: Solver finished
MG Hartree energy from (\int phi*rho dr):              1251.934927
MG Hartree energy from (\int eps (grad phi)^2 dr):     1251.271130
MG Discrepancy due to finite box and discretization:     -0.663797 (  -0.05302%)
MG Correction to account for finite box:                  0.472173
[...]
MG Hartree energy from (\int phi*rho dr):              1209.566243
MG Hartree energy from (\int eps (grad phi)^2 dr):     1209.369479
MG Discrepancy due to finite box and discretization:     -0.196765 (  -0.01627%)
MG Correction to account for finite box:                  0.006359
MG Remaining discrepancy, due to discretization:         -0.190406 (  -0.01574%)
             Q2:  -11677.812320523430
  Cubic LS coeff:       0.809189520192
Predicted energy:  -11677.812320523555
Cubic minimum step length accepted
    Initial Ne1:    7192.00000000
      Final Ne1:    7192.00000000

=================== Penalty functional idempotency correction ==================
 RMS occupancy error at iteration   1:  0.000000 (step -0.5000 Ne1=   7192.0000)
            Final RMS occupancy error   :  0.000000 (Ne1=   7192.0000)
               Final occupancy bounds   : [  0.0000,  1.0000]
================================================================================

    7        -1.167781232052E+04     9.5454E-09     8.6336E-09    -1.3970E-09

Reusing previously generated solute cavity.
MG BCs: +ve charge blocks (gridpoints):     28673 (   18417207).
MG BCs: -ve charge blocks (gridpoints):      8289 (    1024069).
MG BCs:     Elided blocks (gridpoints):    168447 (  171335429).
MG BCs: Computational effort saved:  99.9806%.
MG BCs: Charge after coarse-graining:           -9.0009477.
MG DL_MG: Calling solver with defect correction order = 8
MG DL_MG: Solver finished
MG Hartree energy from (\int phi*rho dr):              1209.566230
MG Hartree energy from (\int eps (grad phi)^2 dr):     1209.369465
MG Discrepancy due to finite box and discretization:     -0.196765 (  -0.01627%)
MG Correction to account for finite box:                  0.006359
MG Remaining discrepancy, due to discretization:         -0.190406 (  -0.01574%)
      ideal mu1:      -0.481284422171
             Q0:  -11677.812320523779
             G0:      -0.000000003351
   RMS gradient:       0.000000007354

Reusing previously generated solute cavity.
MG BCs: +ve charge blocks (gridpoints):     28673 (   18417207).
MG BCs: -ve charge blocks (gridpoints):      8289 (    1024070).
MG BCs:     Elided blocks (gridpoints):    168447 (  171335428).
MG BCs: Computational effort saved:  99.9806%.
MG BCs: Charge after coarse-graining:           -9.0009477.
MG DL_MG: Calling solver with defect correction order = 8
MG DL_MG: Solver finished
MG Hartree energy from (\int phi*rho dr):              1209.566218
MG Hartree energy from (\int eps (grad phi)^2 dr):     1209.369453
MG Discrepancy due to finite box and discretization:     -0.196765 (  -0.01627%)
MG Correction to account for finite box:                  0.006359
MG Remaining discrepancy, due to discretization:         -0.190406 (  -0.01574%)
     Trial step:       0.519818420969
             Q1:  -11677.812320525059
 Quadratic coef:       0.000000000460
 Linear coef   :      -0.000000001742
           Qmin:  -11677.812320525427
Quadratic minimum step length (  0.983632845557) accepted
    Initial Ne1:    7192.00000000
      Final Ne1:    7192.00000000

=================== Penalty functional idempotency correction ==================
 RMS occupancy error at iteration   1:  0.000000 (step -0.5000 Ne1=   7192.0000)
            Final RMS occupancy error   :  0.000000 (Ne1=   7192.0000)
               Final occupancy bounds   : [  0.0000,  1.0000]
================================================================================

    8        -1.167781232052E+04     7.3539E-09     6.6514E-09    -2.7940E-09

Reusing previously generated solute cavity.
MG BCs: +ve charge blocks (gridpoints):     28673 (   18417207).
MG BCs: -ve charge blocks (gridpoints):      8289 (    1024070).
MG BCs:     Elided blocks (gridpoints):    168447 (  171335428).
MG BCs: Computational effort saved:  99.9806%.
MG BCs: Charge after coarse-graining:           -9.0009477.
MG DL_MG: Calling solver with defect correction order = 8
MG DL_MG: Solver finished
MG Hartree energy from (\int phi*rho dr):              1209.566207
MG Hartree energy from (\int eps (grad phi)^2 dr):     1209.369442
MG Discrepancy due to finite box and discretization:     -0.196765 (  -0.01627%)
MG Correction to account for finite box:                  0.006359
MG Remaining discrepancy, due to discretization:         -0.190406 (  -0.01574%)
      ideal mu1:      -0.481284418548
             Q0:  -11677.812320525642
             G0:      -0.000000001951
   RMS gradient:       0.000000005819

Reusing previously generated solute cavity.
MG BCs: +ve charge blocks (gridpoints):     28673 (   18417207).
MG BCs: -ve charge blocks (gridpoints):      8289 (    1024070).
MG BCs:     Elided blocks (gridpoints):    168447 (  171335428).
MG BCs: Computational effort saved:  99.9806%.
MG BCs: Charge after coarse-graining:           -9.0009477.
MG DL_MG: Calling solver with defect correction order = 8
MG DL_MG: Solver finished
MG Hartree energy from (\int phi*rho dr):              1209.566225
MG Hartree energy from (\int eps (grad phi)^2 dr):     1209.369461
MG Discrepancy due to finite box and discretization:     -0.196765 (  -0.01627%)
MG Correction to account for finite box:                  0.006359
MG Remaining discrepancy, due to discretization:         -0.190406 (  -0.01574%)
     Trial step:       0.715059768544
             Q1:  -11677.812320525059
 Quadratic coef:       0.000000001977
 Linear coef   :      -0.000000001395
           Qmin:  -11677.812320525887
Quadratic minimum step length (  0.252212554068) accepted
    Initial Ne1:    7192.00000000
      Final Ne1:    7192.00000000

=================== Penalty functional idempotency correction ==================
 RMS occupancy error at iteration   1:  0.000000 (step -0.5000 Ne1=   7192.0000)
            Final RMS occupancy error   :  0.000000 (Ne1=   7192.0000)
               Final occupancy bounds   : [  0.0000,  1.0000]
================================================================================

    9        -1.167781232053E+04     5.8193E-09     5.2634E-09    -1.8626E-09

Reusing previously generated solute cavity.
MG BCs: +ve charge blocks (gridpoints):     28673 (   18417207).
MG BCs: -ve charge blocks (gridpoints):      8289 (    1024070).
MG BCs:     Elided blocks (gridpoints):    168447 (  171335428).
MG BCs: Computational effort saved:  99.9806%.
MG BCs: Charge after coarse-graining:           -9.0009477.
MG DL_MG: Calling solver with defect correction order = 8
MG DL_MG: Solver finished
MG Hartree energy from (\int phi*rho dr):              1209.566213
MG Hartree energy from (\int eps (grad phi)^2 dr):     1209.369449
MG Discrepancy due to finite box and discretization:     -0.196765 (  -0.01627%)
MG Correction to account for finite box:                  0.006359
MG Remaining discrepancy, due to discretization:         -0.190406 (  -0.01574%)
      ideal mu1:      -0.481284417527
   10        -1.167781232053E+04     3.9195E-09     3.5451E-09     0.0000E+00
Finished density kernel iterations (  10)

Writing density kernel to file "host_23661.dkn" ... done


>>> Density kernel optimised for the current NGWF basis:
     ~~~~~~~~~~~~~~~~~~~~~~~~~~~~~~~~~~~~~~~~~~~~~~~~~~~~~~~~~~~
     Total energy                =  -1.16778123205256E+04  Eh
     Estimated bandgap           =   8.9295E-02  Eh
     RMS occupancy error         =   3.3436E-16
     [H,K] commutator            =   3.5451E-09
     Occupancy bounds            = [  0.000:  1.000]
     ~~~~~~~~~~~~~~~~~~~~~~~~~~~~~~~~~~~~~~~~~~~~~~~~~~~~~~~~~~~




################################################################################
########################### NGWF CG iteration  004 #############################
################################################################################
****** Reciprocal space K.E. preconditioning with k_zero =  3.5000 a0^-1 *******

>>> Checking for convergence of NGWFs: 
           ........................................................
           |         *** NGWF optimisation converged ***          |
           | RMS NGWF gradient =    0.00000195202958              |
           | Criteria satisfied:                                  |
           | -> RMS NGWF gradient lower than set threshold.       |
           ========================================================

Reusing previously generated solute cavity.
MG BCs: +ve charge blocks (gridpoints):     28673 (   18417207).
MG BCs: -ve charge blocks (gridpoints):      8289 (    1024070).
MG BCs:     Elided blocks (gridpoints):    168447 (  171335428).
MG BCs: Computational effort saved:  99.9806%.
MG BCs: Charge after coarse-graining:           -9.0009477.
MG DL_MG: Calling solver with defect correction order = 8
MG DL_MG: Solver finished
MG Hartree energy from (\int phi*rho dr):              1209.566213
MG Hartree energy from (\int eps (grad phi)^2 dr):     1209.369449
MG Discrepancy due to finite box and discretization:     -0.196765 (  -0.01627%)
MG Correction to account for finite box:                  0.006359
MG Remaining discrepancy, due to discretization:         -0.190406 (  -0.01574%)

================================================================================
           ---------------- ENERGY COMPONENTS (Eh) ----------------
           | Kinetic                    :     8524.85861519848186 |
           | Pseudo. (local,OBC,corr'd) :    -5046.81149923045905 |
           | Pseudopotential (non-local):     1403.83105103944627 |
           | Hartree (molecular)        :     1209.56621334977240 |
           | Exchange-correlation       :    -3357.32061079503092 |
           | Ion-ion (open BC)          :   828397.58439606195316 |
           | Dispersion Correction      :       -3.34352785387300 |
           | Smeared ion non-self corr. :  -828349.63326777121983 |
           | Smeared ion self corr.     :   -14457.16956389741972 |
           | Solvent cavitation energy  :        2.22671305773700 |
           | Solute-solvent dis-rep en. :       -1.60083968503357 |
           | Total                      :   -11677.81232052563064 |
           --------------------------------------------------------
           ------ LOCAL ENERGY COMPONENTS FROM MATRIX TRACES ------
           | Pseudopotential (local)    :    -5046.81149923045996 |
           | Hartree                    :    -1991.16049591358842 |
           --------------------------------------------------------
           Integrated density           :     7191.99999999899319
           Integrated density tr(KS)    :     7192.00000000000182
================================================================================


                        <<<<< CALCULATION SUMMARY >>>>>                         
|ITER|    RMS GRADIENT   |     TOTAL ENERGY    |   step   |     Epredicted              
   0     0.00003967518368 -11677.75339562946465   0.606930 -11677.80424016793040        
   1     0.00001019179633 -11677.81173034128733   0.089146 -11677.81222313969374        
   2     0.00000442990585 -11677.81230159208644   0.015813 -11677.81231810716599        
   3     0.00000195202958 -11677.81232052564155  <-- CG                                 

=================== Finished the calculation in solvent ========================
= Adjusting the following parameters: 
= read_denskern: F
= read_tightbox_ngwfs: F
= maxit_pen: 0 (restored to user-specified value)
= restart read filename prefix: ""
= restart write filename prefix: ""
================================================================================

================================================================================
IS: Calculation in solvent completed (NGWFs converged).      

Individual components of total energy in solvent:     hartree           kcal/mol
- Usual non-electrostatic DFT terms:    -12888.00440724811597    -8087344.691859
- Electrostatic fixed charge energy:      1209.56621334977240      759014.241917
- Apolar cavitation energy:                  2.22671305773700        1397.283509
- Apolar dispersion-repulsion energy:       -1.60083968503357       -1004.542047
 -------------------------------------------------------------------------------
- Total energy in solvent:              -11677.81232052564155    -7327937.708480

Components of total energy in solvent:                hartree           kcal/mol
- Usual non-electrostatic DFT terms:    -12888.00440724811597    -8087344.691859
- Electrostatic energy:                   1209.56621334977240      759014.241917
- Apolar energy terms:                       0.62587337270343         392.741462
 -------------------------------------------------------------------------------
- Total energy in solvent:              -11677.81232052564155    -7327937.708480

Calculation of free energy of solvation:              hartree           kcal/mol
- Total energy in solvent:         (+)  -11677.81232052564155    -7327937.708480
- Total energy in vacuum:          (-)  -11674.06168221833650    -7325584.147460
 -------------------------------------------------------------------------------
- Total free energy of solvation:           -3.75063830730505       -2353.561021

Components of polar term in f.e. of solvation:        hartree           kcal/mol
- Electrostatic:                            -4.59672443109253       -2884.488068
- Change in nonelectrostatic DFT terms:      0.22021275108455         138.185585
 -------------------------------------------------------------------------------
- Polar term in f.e. of solvation:          -4.37651168000798       -2746.302483

Components of free energy of solvation:               hartree           kcal/mol
- Polar term in f.e. of solvation: (+)      -4.37651168000798       -2746.302483
- Apolar (cavitation, dis., rep.): (+)       0.62587337270343         392.741462
 -------------------------------------------------------------------------------
- Total free energy of solvation:           -3.75063830730455       -2353.561021
================================================================================


------------------------------ TIMING INFORMATION ------------------------------
AVERAGE TIME:   30682.272s on     60 node(s)                                    
TOTAL TIME:     30682.272s on     60 node(s)                                    
================= AVERAGE TIMINGS FROM ALL NODES (CUMULATIVE) ==================
|| TAG                                    #calls    cpu time   %total  Gflops ||
|| work_imbalance                       :     1        0.00s   0.000%  ------ ||
|| sparse_set_to_garbage                :   182        0.03s   0.000%  ------ ||
|| parallel_prepare_fd_halos_request    :  1953        0.03s   0.000%  ------ ||
|| ngwfs_initialise_from_radial         :     1        0.09s   0.000%  ------ ||
|| basis_extract_function_from_box      :  3577        0.16s   0.001%  ------ ||
|| parallel_prepare_fd_halos_satisfy    :  1953        0.67s   0.002%  ------ ||
|| parallel_prepare_fd_halos_alloc      :  1953        1.67s   0.005%  ------ ||
|| pseudopotentials_nonlocal_mat        :    31        1.96s   0.006%  ------ ||
|| restart_kernel_read                  :     1        4.16s   0.014%  ------ ||
|| openbc_locps_radial                  :     1        4.64s   0.015%  ------ ||
|| restart_ngwfs_tightbox_input         :     1        7.09s   0.023%  ------ ||
|| density_init_guess_real              :     1        9.70s   0.032%  ------ ||
|| parallel_prepare_fd_halos_comms_imbal:  1953       10.16s   0.033%  ------ ||
|| parallel_prepare_fd_halos_clear      :  1953       19.87s   0.065%  ------ ||
|| sparse_init                          :     2       21.57s   0.070%  ------ ||
|| projectors_func_ovlp_box             :    31       27.12s   0.088%  ------ ||
|| parallel_prepare_fd_halos_comms_wait :  1953       27.20s   0.089%  ------ ||
|| function_ops_brappd_ketppd           :    31       29.93s   0.098%  ------ ||
|| projectors_init_fftbox_recip         :   143       31.92s   0.104%  ------ ||
|| palser_mano_kernel_optimise          :     1       35.58s   0.116%  ------ ||
|| basis_copy_function_to_box           : 58328       41.83s   0.136%  ------ ||
|| ngwf_gradient_coeffs                 :    16       48.22s   0.157%  ------ ||
|| fourier_apply_box_pair               :  5156       53.25s   0.174% 560.553 ||
|| pseudo_make_structure_factor         :     2       56.42s   0.184%  ------ ||
|| parallel_prepare_fd_halos            :  1953       59.62s   0.194%  ------ ||
|| sparse_embed_hotelling_invert_embed  :    31       76.83s   0.250%  ------ ||
|| restart_kernel_write                 :    17      121.75s   0.397%  ------ ||
|| projectors_gradient_batch            :   112      150.08s   0.489%  ------ ||
|| finite_difference_derivative         :  1953      156.04s   0.509%  ------ ||
|| integrals_kinetic                    :    31      156.41s   0.510%  ------ ||
|| fourier_apply_cell_backward          :  1303      175.23s   0.571% 101.220 ||
|| sparse_trace                         :  5456      196.94s   0.642%  ------ ||
|| basis_dot_function_with_box          : 9.013M     199.05s   0.649%  ------ ||
|| fourier_apply_cell_forward           :  1301      234.53s   0.764%  75.509 ||
|| openbc_locps_on_grid                 :     2      264.83s   0.863%  ------ ||
|| kernel_purify                        :   496      293.40s   0.956%  ------ ||
|| lnv_gradient_norm                    :   160      422.43s   1.377%  ------ ||
|| basis_add_function_to_box            : 18.78M     435.39s   1.419%  ------ ||
|| xc_energy_potential                  :   325      473.84s   1.544%  ------ ||
|| hamiltonian_energy_components        :     4      477.55s   1.556%  ------ ||
|| kernel_fix                           :   160      541.31s   1.764%  ------ ||
|| ngwf_gradient_build_batch            :   112      755.45s   2.462%  ------ ||
|| integrals_locpot_mat_els_batch       :  1183      776.73s   2.532%  ------ ||
|| ngwf_gradient_batch                  :   112     1055.25s   3.439%  ------ ||
|| density_batch_row_sums               :  2268     1063.39s   3.466%  ------ ||
|| restart_ngwfs_tightbox_output        :    14     1086.31s   3.541%  ------ ||
|| ngwf_gradient_lnv                    :    16     1207.99s   3.937%  ------ ||
|| cell_grid_deposit_box_real           : 37312     1264.07s   4.120%  ------ ||
|| cell_grid_extract_box_real           : 41134     1458.42s   4.753%  ------ ||
|| density_fftbox_deposit_to_cell       : 35316     1817.21s   5.923%  ------ ||
|| sparse_product                       :  6765     1843.67s   6.009%  ------ ||
|| potential_apply_to_ngwf_batch        :  1183     3479.12s  11.339%  ------ ||
|| density_fftbox_interpolate_multiply  : 35316     3704.03s  12.072%  ------ ||
|| integrals_locpot_dbl_grid            :   169     4274.19s  13.930%  ------ ||
|| multigrid_prepare_bound_cond         :   325     4406.67s  14.362%  ------ ||
|| fourier_apply_box                    : 121.6k    4556.17s  14.850% 748.725 ||
|| density_batch_interp_deposit         :  2268     6392.33s  20.834%  ------ ||
|| dl_mg_solver_calls                   :   325     7499.42s  24.442%  ------ ||
|| density_on_dbl_grid                  :   324     7867.41s  25.642%  ------ ||
|| multigrid_calculate_hartree          :   325    12118.23s  39.496%  ------ ||
|| hamiltonian_lhxc_calculate           :   320    20420.39s  66.554%  ------ ||
|| lnv_denskernel_optimise_cg           :    16    25579.77s  83.370%  ------ ||
|| ngwf_cg_optimise                     :     2    29715.60s  96.849%  ------ ||
|| total_time                           :     1    30682.27s 100.000%  ------ ||
================================================================================
Overhead of generating timer report: 
- 0 ms averaging over threads,
- 15 ms ensuring consistency across MPI ranks,
- 1 ms printing in order.

Job completed: 26-05-2020 15:50 (+0100)

Application 40621533 resources: utime ~6429909s, stime ~206708s, Rss ~3638332, inblocks ~314245861, outblocks ~65609898
