 +---------------------------------------------------------------+
 |                                                               |
 |        ####### #     # ####### ####### ####### ######         |
 |        #     # ##    # #          #    #       #     #        |
 |        #     # # #   # #          #    #       #     #        |
 |        #     # #  #  # #####      #    #####   ######         |
 |        #     # #   # # #          #    #       #              |
 |        #     # #    ## #          #    #       #              |
 |        ####### #     # #######    #    ####### #              |
 |                                                               |
 |        Linear-Scaling Ab Initio Total Energy Program          |
 |                                                               |
 |          Release for academic collaborators of ODG            |
 |                                             Version 5.3.2.6.  |
 |                                                               |
 +---------------------------------------------------------------+
 |                                                               |
 |  Authors:                                                     |
 |  Jacek Dziedzic, Peter D. Haynes, Nicholas D. M. Hine,        |
 |  Arash. A. Mostofi, Mike C. Payne and Chris-Kriton Skylaris   |
 |                                                               |
 |  Contributors:                                                |
 |  J. Aarons, L. Andrinopoulos, P. W. Avraam, R. A. Bell,       |
 |  A. Bhandari, G. A. Bramley, R. J. Charlton, S. J. Clark,     |
 |  R. J. Clements, G. C. Constantinescu, F. Corsetti,           |
 |  N. Corsini, O. Dieguez, S. M. M. Dubois, K. K. B. Duff,      |
 |  J. M. Escartin, A. Greco, H. Helal, Q. O. Hill, L. P. Lee,   |
 |  J.-H. Li, E. B. Linscott, G. Moynihan, D. D. O`Regan,        |
 |  O. K. Okan, M. J. S. Phipps, C. J. Pickard,                  |
 |  J. C. A. Prentice, M. I. J. Probert, L. E. Ratcliff,         |
 |  M. Robinson, A. Ruiz Serrano, J. S. Spencer, E. W. Tait,     |
 |  G. Teobaldi, D. Turban, V. Vitale, K. A. Wilkinson,          |
 |  C. Weber, J. C. Womack, N. Yeung and T. J. Zuehlsdorff       |
 |                                                               |
 |                                   Copyright (c) 2004-2019     |
 |                                                               |
 |  Please cite:                                                 |
 |  "Introducing ONETEP: Linear-scaling density functional       |
 |   simulations on parallel computers".                         |
 |   C.-K. Skylaris, P. D. Haynes, A. A. Mostofi, M. C. Payne.   |
 |   J. Chem. Phys. 122 084119 (2005).                           |
 |                                                               |
 |          in all publications arising from your use of ONETEP. |
 |                                                               |
 +---------------------------------------------------------------+
 |                                                               |
 |   ONETEP is based on developments described in the following  |
 |   publications:                                               |
 |                                                               |
 |  "Nonorthogonal generalized Wannier function pseudopotential  |
 |   plane-wave method".                                         |
 |   C.-K. Skylaris, A. A. Mostofi, P. D. Haynes, O. Dieguez,    |
 |   M. C. Payne.                                                |
 |   Phys. Rev. B 66 035119 (2002).                              |
 |                                                               |
 |  "Preconditioned iterative minimization for linear-scaling    |
 |   electronic structure calculations".                         |
 |   A. A. Mostofi, P. D. Haynes, C.-K. Skylaris, M. C. Payne.   |
 |   J. Chem. Phys. 119(17), pp.8842-8848 (2003).                |
 |                                                               |
 |  "Total-energy calculations on a real space grid with         |
 |   localized functions and a plane-wave basis".                |
 |   A. A. Mostofi, C.-K. Skylaris, P. D. Haynes, M. C. Payne.   |
 |   Comput. Phys. Commun. 147, pp.788-802 (2002).               |
 |                                                               |
 |  "Accurate kinetic energy evaluation in electronic structure  |
 |   calculations with localized functions on real space grids"  |
 |   C.-K. Skylaris, A. A. Mostofi, P. D. Haynes, C. J. Pickard, |
 |   M. C. Payne.                                                |
 |   Comput. Phys. Commun. 140, pp.315-322 (2001).               |
 |                                                               |
 |  "Accurate ionic forces and geometry optimization in linear-  |
 |   scaling density-functional theory with local orbitals"      |
 |   N. D. M. Hine, M. Robinson, P. D. Haynes, C.-K. Skylaris,   |
 |   M. C. Payne, and A. A. Mostofi.                             |
 |   Phys. Rev. B 83 195102 (2011).                              |
 |                                                               |
 +---------------------------------------------------------------+

Job started: 21-05-2020 05:58 (+0100)
 
Reading parameters from file "host_8461.dat" ...... done

If your calculation crashes here, before "Checking processes and threads..."
is displayed, then your stack size is insufficient.
If so, use "ulimit -s unlimited" at runtime.
You can disable this check with "check_stack_size F".

Checking processes and threads...
   Determining the default number of threads...
      No default threads set at compilation time: defaulting to 1.
      OpenMP library call suggests 4 threads.
      Hybrid MPI-OpenMP compilation detected.
      Number of MPI processes > 1.
      OMP_NUM_THREADS environment variable present and
      its value matches the one obtained from the OpenMP library call.
      Using this value as default.
      Default threads: 4
      Default applies to threads_max and threads_num_fftboxes.
      Settings in the input file override this default.
   ... done

   Running with 40 MPI processes.
   There are 10 MPI processes running on the same node as the root process.
   Each MPI process is using: 
               1 threads for simulation cell FFTs.
               1 threads for parallel FFT box operations.
               4 threads for loops over batched FFT box operations.
               4 threads in other parallel regions.
... done

Basic input checks...... done

Reading geometry and species blocks from file "host_8461.dat" ...
  <species_atomic_set> block not found: NGWF initialisation set to SOLVE
IS: Dielectric excluded regions:
    - NONE.
    
  Number of PPD points along a3 set to 1.  This is 
  the default value, it may have been provided also in the input file.
... done
 Writing xyz coordinates to file "host_8461.xyz" ... done


--------------------------------------------------------------------------------
---------------------------------- INPUT FILE ----------------------------------
--------------------------------------------------------------------------------

cutoff_energy       : 800 eV                                                    
xc_functional PBE                                                               
task SINGLEPOINT                                                                
write_xyz true                                                                  
output_detail VERBOSE                                                           
ngwf_threshold_orig : 0.000002                                                  
kernel_cutoff       : 1000                                                      
k_zero              : 3.5                                                       
elec_cg_max 0                                                                   
occ_mix 1.0                                                                     
dispersion 1                                                                    
maxit_ngwf_cg 40                                                                
minit_lnv 10                                                                    
maxit_lnv 10                                                                    
write_denskern T                                                                
write_tightbox_ngwfs T                                                          
charge 9                                                                        
is_implicit_solvent T                                                           
is_auto_solvation T                                                             
is_include_apolar T                                                             
is_smeared_ion_rep T                                                            
is_solvent_surf_tension 4.7624E-5 Ha/bohr**2                                    
is_apolar_scaling_factor 0.281075                                               
is_solvation_beta 1.3                                                           
is_density_threshold 0.00035                                                    
is_bulk_permittivity 78.54                                                      
is_dielectric_model fix_initial                                                 
is_smeared_ion_width 0.8                                                        
mg_defco_fd_order 8                                                             
is_bc_coarseness 10                                                             
is_bc_surface_coarseness 1                                                      
fine_grid_scale 2.0                                                             
%block species                                                                  
N   N   7 4 8.0                                                                 
H   H   1 1 8.0                                                                 
C   C   6 4 8.0                                                                 
S   S  16 9 8.0                                                                 
O   O   8 4 8.0                                                                 
%endblock species                                                               
%block species_pot                                                              
N   N_00.recpot                                                                 
H   H_04.recpot                                                                 
C   C_01.recpot                                                                 
S   S_00.recpot                                                                 
O   O_02.recpot                                                                 
%endblock species_pot                                                           
%block lattice_cart                                                             
139.252   0.000   0.000                                                         
0.000 142.425   0.000                                                           
0.000   0.000   162.84                                                          
%endblock lattice_cart                                                          
%block positions_abs                                                            
     Hash =   000000075414299110858045
%endblock positions_abs                                                         

--------------------------------------------------------------------------------
-------------------------------- END INPUT FILE --------------------------------
--------------------------------------------------------------------------------


 
 ESDF WARNING(1): "kernelcutoff" (esdf_physical) has no units. Assume "bohr".
 ESDF WARNING(2): "kzero" (esdf_physical) has no units. Assume "1/bohr".
 ESDF WARNING(3
 ): "issmearedionwidth" (esdf_physical) has no units. Assume "bohr".
<<<<<<<<<<<<<<<<<<<<<<<<<<<<<<<<< Full system >>>>>>>>>>>>>>>>>>>>>>>>>>>>>>>>>>
<<<<<<<<<<<<<<<<<<<<<<<<< Pseudopotential information >>>>>>>>>>>>>>>>>>>>>>>>>>
File: N_00.recpot [ 2001 points up to Gmax=  52.9 (1/bohr)]
  Atomic number:  7;  ionic charge:  5.000000
    Shell 1: l = 0; rc = 1.48 bohr
File: H_04.recpot [ 2001 points up to Gmax=  52.9 (1/bohr)]
  Atomic number:  1;  ionic charge:  1.000000
    Local potential
File: C_01.recpot [ 2001 points up to Gmax=  52.9 (1/bohr)]
  Atomic number:  6;  ionic charge:  4.000000
    Shell 1: l = 0; rc = 1.48 bohr
File: S_00.recpot [ 2001 points up to Gmax=  52.9 (1/bohr)]
  Atomic number: 16;  ionic charge:  6.000000
    Shell 1: l = 0; rc = 1.90 bohr
    Shell 2: l = 2; rc = 1.84 bohr
File: O_02.recpot [ 2001 points up to Gmax=  52.9 (1/bohr)]
  Atomic number:  8;  ionic charge:  6.000000
    Shell 1: l = 0; rc = 1.31 bohr
<<<<<<<<<<<<<<<<<<<<<<<<<<<<<<<<<<<<<<<<>>>>>>>>>>>>>>>>>>>>>>>>>>>>>>>>>>>>>>>>

-------------------------- Atom counting information ---------------------------
Symbol    Natoms    Nngwfs    Nprojs
  N        236       944       236
  H       1311      1311         0
  C        810      3240       810
  S          6        54        36
  O        239       956       239
.......   ......    ......    ......
Totals:   2602      6505      1321
--------------------------------------------------------------------------------

=============================== PSINC grid sizes ===============================
                      Simulation cell:  275 x 280 x 320
                              FFT-box:   99 x  99 x  99
                                  PPD:    5 x   5 x   1
Grid space d1=  0.506370909091a0 (KE cutoff=  29.62556Eh = 806.15239eV)
Grid space d2=  0.508660714286a0 (KE cutoff=  29.35943Eh = 798.91072eV)
Grid space d3=  0.508875000000a0 (KE cutoff=  29.33471Eh = 798.23802eV)
================================================================================

********************* Fourier parallelisation information **********************
       Coarse grid (whole simulation cell) dimensions:    275   280   320
          Real-space ('12') slabs/node (min max mean):      8     8     8
         Recip-space ('23') slabs/node (min max mean):      3     4     3
********************************************************************************

********************* Fourier parallelisation information **********************
       Double grid (whole simulation cell) dimensions:    550   560   640
          Real-space ('12') slabs/node (min max mean):     16    16    16
         Recip-space ('23') slabs/node (min max mean):      6     7     6
********************************************************************************
ONETEP fine grid is 550 x 560 x 640 gridpoints, 139.2520 x 142.4250 x 162.8400 bohr.
FD multigrid is     545 x 553 x 633 gridpoints, 137.9861 x 140.6447 x 161.0589 bohr.


Calculating local pseudopotential in open BC on a radial grid ...
Discrepancy between calculated realspace psloc and -Z/x on [5a0,257.280a0]:
max |rel. diff| # avg |rel. diff| #  avg rel. diff #  f # pseudopotential file
 0.000256370913    0.000003612608   0.000000072509   55  'N_00.recpot'
 0.000395389207    0.000016224277  -0.000000076597   55  'H_04.recpot'
 0.000377360759    0.000017565724   0.000000149252   55  'C_01.recpot'
 0.000469715301    0.000020587835   0.000000455518   55  'S_00.recpot'
 0.000665442002    0.000026079317   0.000000158685   55  'O_02.recpot'
... done

Atom SCF Calculation for N  : Z (AE atom) =   7 : Z (PS atom) =   5
Config String:
Orbitals (num,occ):  2     2.00 3.00
Orbitals   (num,l):  2        0    1
Real-space Grid (nr,dr,rmax): 1203    0.0066555740    8.0000000000
Spherical Bessel Basis (nsws,lmax,cutoff):   47    1  176.3951722778
Confining potential (l,width,scale):  0    3.0000000000  100.0000000000
Confining potential (l,width,scale):  1    3.0000000000  100.0000000000
  1         -4.7312375307   -3.4155304497    7.0523828109   -1.9351020946
  2         -9.7309464766   -2.0532547791    8.2966052865   -2.2494486027
  3         -9.6627394379   -2.1124926340    8.2327997121   -2.2369778124
  4         -9.6814993499   -2.1215521045    8.2229805960   -2.2365178421
  5         -9.6843326483   -2.1250939529    8.2191374534   -2.2362718126
  6         -9.6859628709   -2.1267894855    8.2172963573   -2.2362066344
  7         -9.6867347035   -2.1276425665    8.2163697352   -2.2361903369
  8         -9.6870802100   -2.1280764625    8.2158983890   -2.2361891460
  9         -9.6872290423   -2.1282977424    8.2156580222   -2.2361920435
 10         -9.6872901988   -2.1284107021    8.2155353368   -2.2361953393
 11         -9.6873135296   -2.1284684031    8.2154726809   -2.2361979819
 12         -9.6873212476   -2.1284978948    8.2154406648   -2.2361998431
 13         -9.6873229586   -2.1285129774    8.2154242957   -2.2362010676
 14         -9.6873226456   -2.1285206957    8.2154159216   -2.2362018403
 15         -9.6873218534   -2.1285246479    8.2154116349   -2.2362023142
 16         -9.6873212599   -2.1285262679    8.2154098784   -2.2362025420
 17         -9.6873207834   -2.1285272564    8.2154088068   -2.2362026955
 18         -9.6873204210   -2.1285278597    8.2154081529   -2.2362027982
 19         -9.6873201550   -2.1285282280    8.2154077538   -2.2362028667
 20         -9.6873199645   -2.1285284529    8.2154075102   -2.2362029121
 21         -9.6873198305   -2.1285285903    8.2154073614   -2.2362029421
 22         -9.6873197377   -2.1285286742    8.2154072705   -2.2362029618
Atom SCF converged after  22 iterations to a total energy of     -9.68731974

Atom SCF Calculation for H  : Z (AE atom) =   1 : Z (PS atom) =   1
Config String:
Orbitals (num,occ):  1     1.00
Orbitals   (num,l):  1        0
Real-space Grid (nr,dr,rmax): 1203    0.0066555740    8.0000000000
Spherical Bessel Basis (nsws,lmax,cutoff):   47    0  176.3951722778
Confining potential (l,width,scale):  0    3.0000000000  100.0000000000
  1         -0.3194257691   -0.2393854593    0.2820953124   -0.2424203209
  2         -0.3951823392   -0.2377116493    0.2886404059   -0.2475147891
  3         -0.4317044583   -0.2352244387    0.2921333887   -0.2514046172
  4         -0.4470703708   -0.2341892222    0.2934391879   -0.2531009782
  5         -0.4532132900   -0.2338556667    0.2938388426   -0.2537313520
  6         -0.4556579251   -0.2337612552    0.2939448584   -0.2539550462
  7         -0.4566418315   -0.2337377355    0.2939680120   -0.2540342273
  8         -0.4570437922   -0.2337331116    0.2939708287   -0.2540627372
  9         -0.4572102946   -0.2337328328    0.2939698291   -0.2540732650
 10         -0.4572800424   -0.2337332404    0.2939687193   -0.2540772588
 11         -0.4573095100   -0.2337335791    0.2939680317   -0.2540788122
 12         -0.4573220379   -0.2337337762    0.2939676699   -0.2540794294
 13         -0.4573273880   -0.2337338775    0.2939674931   -0.2540796787
 14         -0.4573296803   -0.2337339266    0.2939674099   -0.2540797808
 15         -0.4573306647   -0.2337339495    0.2939673718   -0.2540798230
 16         -0.4573310882   -0.2337339601    0.2939673545   -0.2540798406
 17         -0.4573312706   -0.2337339649    0.2939673467   -0.2540798479
 18         -0.4573313493   -0.2337339670    0.2939673433   -0.2540798510
Atom SCF converged after  18 iterations to a total energy of     -0.45733135

Atom SCF Calculation for C  : Z (AE atom) =   6 : Z (PS atom) =   4
Config String:
Orbitals (num,occ):  2     2.00 2.00
Orbitals   (num,l):  2        0    1
Real-space Grid (nr,dr,rmax): 1203    0.0066555740    8.0000000000
Spherical Bessel Basis (nsws,lmax,cutoff):   47    1  176.3951722778
Confining potential (l,width,scale):  0    3.0000000000  100.0000000000
Confining potential (l,width,scale):  1    3.0000000000  100.0000000000
  1         -5.2976922011   -1.3069684169    4.5135249990   -1.4493313817
  2         -5.3721716256   -1.3429755895    4.4750154450   -1.4361613026
  3         -5.3809959565   -1.3617365618    4.4541655428   -1.4305930207
  4         -5.3918938866   -1.3667928461    4.4484735100   -1.4294652294
  5         -5.3956096428   -1.3688539142    4.4461376126   -1.4290734646
  6         -5.3968271862   -1.3696852393    4.4451910874   -1.4289366866
  7         -5.3972028401   -1.3700178062    4.4448112275   -1.4288900460
  8         -5.3973067903   -1.3701500158    4.4446598370   -1.4288749220
  9         -5.3973286940   -1.3702023868    4.4445997329   -1.4288704293
 10         -5.3973289850   -1.3702230869    4.4445759233   -1.4288693188
 11         -5.3973254264   -1.3702312560    4.4445665049   -1.4288691775
 12         -5.3973224003   -1.3702344755    4.4445627836   -1.4288692549
 13         -5.3973208708   -1.3702354890    4.4445616088   -1.4288693270
 14         -5.3973198783   -1.3702360102    4.4445610034   -1.4288693814
 15         -5.3973192535   -1.3702362780    4.4445606917   -1.4288694190
 16         -5.3973188684   -1.3702364155    4.4445605313   -1.4288694437
 17         -5.3973186349   -1.3702364860    4.4445604489   -1.4288694595
 18         -5.3973184951   -1.3702365221    4.4445604065   -1.4288694693
 19         -5.3973184122   -1.3702365405    4.4445603848   -1.4288694753
Atom SCF converged after  19 iterations to a total energy of     -5.39731841

Atom SCF Calculation for S  : Z (AE atom) =  16 : Z (PS atom) =   6
Config String:
Orbitals (num,occ):  3     2.00 4.00 0.00
Orbitals   (num,l):  3        0    1    2
Real-space Grid (nr,dr,rmax): 1203    0.0066555740    8.0000000000
Spherical Bessel Basis (nsws,lmax,cutoff):   47    2  176.3951722778
Confining potential (l,width,scale):  0    3.0000000000  100.0000000000
Confining potential (l,width,scale):  1    3.0000000000  100.0000000000
Confining potential (l,width,scale):  2    3.0000000000  100.0000000000
  1        -12.4735062396   -1.0328741412   10.1554312477   -2.4512393157
  2         -9.9458301913   -2.4607392455    8.3041325857   -2.0306994528
  3        -10.1450417646   -2.2931184565    8.4831893826   -2.0812538287
  4        -10.1528335592   -2.2733105793    8.5050388867   -2.0896035179
  5        -10.1571940363   -2.2633716629    8.5160794258   -2.0939370707
  6        -10.1594380571   -2.2584938667    8.5215163935   -2.0961289008
  7        -10.1605856507   -2.2561081821    8.5241804044   -2.0972291378
  8        -10.1611799191   -2.2549395235    8.5254868240   -2.0977806248
  9        -10.1614918752   -2.2543658586    8.5261285885   -2.0980571586
 10        -10.1616572884   -2.2540839121    8.5264441898   -2.0981959233
 11        -10.1617455602   -2.2539453058    8.5265994231   -2.0982656006
 12        -10.1617928447   -2.2538772062    8.5266757320   -2.0983006047
 13        -10.1618182292   -2.2538437891    8.5267131983   -2.0983181961
 14        -10.1618318741   -2.2538274201    8.5267315620   -2.0983270391
 15        -10.1618392144   -2.2538194197    8.5267405433   -2.0983314852
 16        -10.1618431651   -2.2538155200    8.5267449245   -2.0983337210
 17        -10.1618452923   -2.2538136252    8.5267470551   -2.0983348455
 18        -10.1618464380   -2.2538127080    8.5267480875   -2.0983354110
 19        -10.1618470552   -2.2538122659    8.5267485856   -2.0983356955
 20        -10.1618473878   -2.2538120540    8.5267488248   -2.0983358386
 21        -10.1618475670   -2.2538119530    8.5267489389   -2.0983359106
 22        -10.1618476637   -2.2538119053    8.5267489929   -2.0983359468
Atom SCF converged after  22 iterations to a total energy of    -10.16184766

Atom SCF Calculation for O  : Z (AE atom) =   8 : Z (PS atom) =   6
Config String:
Orbitals (num,occ):  2     2.00 4.00
Orbitals   (num,l):  2        0    1
Real-space Grid (nr,dr,rmax): 1203    0.0066555740    8.0000000000
Spherical Bessel Basis (nsws,lmax,cutoff):   47    1  176.3951722778
Confining potential (l,width,scale):  0    3.0000000000  100.0000000000
Confining potential (l,width,scale):  1    3.0000000000  100.0000000000
  1         -1.8735052164   -7.5539365035   10.1554312477   -2.4512393157
  2        -16.0318313751   -3.1285771268   13.6395848164   -3.2358799643
  3        -15.9524020423   -3.0762819706   13.6967272503   -3.2536856837
  4        -15.8521515939   -3.0781493909   13.6951909330   -3.2561700440
  5        -15.8357139793   -3.0748501933   13.6988803334   -3.2580493133
  6        -15.8246052853   -3.0740779781   13.6997881576   -3.2588327446
  7        -15.8189019501   -3.0737449687   13.7001869911   -3.2592378801
  8        -15.8159785510   -3.0736026016   13.7003615168   -3.2594475790
  9        -15.8144776168   -3.0735437994   13.7004360379   -3.2595560735
 10        -15.8137058024   -3.0735207882   13.7004667348   -3.2596122456
 11        -15.8133083127   -3.0735125946   13.7004786868   -3.2596413656
 12        -15.8131032938   -3.0735102195   13.7004828997   -3.2596564858
 13        -15.8129973902   -3.0735099286   13.7004840891   -3.2596643505
 14        -15.8129426040   -3.0735102506   13.7004842061   -3.2596684489
 15        -15.8129142203   -3.0735106556   13.7004840157   -3.2596705887
 16        -15.8128994940   -3.0735109855   13.7004837906   -3.2596717080
 17        -15.8128918425   -3.0735112169   13.7004836103   -3.2596722946
 18        -15.8128878614   -3.0735113674   13.7004834848   -3.2596726026
 19        -15.8128857871   -3.0735114608   13.7004834035   -3.2596727646
 20        -15.8128847048   -3.0735115170   13.7004833533   -3.2596728500
 21        -15.8128841394   -3.0735115501   13.7004833231   -3.2596728951
 22        -15.8128838436   -3.0735115693   13.7004833054   -3.2596729190
 23        -15.8128836887   -3.0735115802   13.7004832951   -3.2596729316
 24        -15.8128836074   -3.0735115864   13.7004832893   -3.2596729383
Atom SCF converged after  24 iterations to a total energy of    -15.81288361

========================== Calculation in vacuum ==============================
= Adjusting the following parameters: 
= is_implicit_solvent: F
= is_include_apolar: F
= write_denskern: T
= write_tightbox_ngwfs: T
= restart read filename prefix: ""
= restart write filename prefix: "vacuum_"
===============================================================================

Determining parallel strategy ...
... using space-filling curve
... NGWF load balancing: max    163;  min    162;  average    163
... Projector load balancing: max     36;  min     32;  average     33
... done
Calculating direct Ion-Ion energy ...
Ion-Ion Energy        :    828394.04252341494430
======================= Empirical dispersion information =======================
Model : Elstner
Dispersion Correction Energy: -0.32743208E+01 Hartree
================================================================================
Basis initialisation ...... NGWF spheres initialised
... Projector spheres initialised
... NGWF tight boxes initialised
... Tight-boxes gathered
... NGWF basis size (local,global):    1783041  71358755
... Nonlocal pseudopotential projector initialisation
... done

========================== Sparse matrix information ===========================
                        Overlap matrix filling:   6.79%
                        Density kernel filling: 100.00%
              NGWF-Proj overlap matrix filling:   1.79%
                    Hamiltonian matrix filling:   7.69%
                  NGWF diagonal matrix filling:   0.05%
                             KS matrix filling: 100.00% 
                           KSKS matrix filling: 100.00% 
================================================================================

Sparse matrix initialisation ... done

Generating smeared ion density ... done
Smeared ion self correction:     -14457.169564
Smeared ion non-self correction: -828345.762452
NGWF initialisation ...... done
============ Calculation of NGWF S^-1 using Hotelling algorithm ================ 
         Iteration  |  Frobenius norm and Maximum abs value    (of I-S*S_n^-1)   
               1       0.78605593E+02     0.98350626E+00
               2       0.76844155E+02     0.96741341E+00
               3       0.73960201E+02     0.93642718E+00
               4       0.69805777E+02     0.87941267E+00
               5       0.64575261E+02     0.78022107E+00
               6       0.58648324E+02     0.70731761E+00
               7       0.52623383E+02     0.67377342E+00
               8       0.47050914E+02     0.64833232E+00
               9       0.41114782E+02     0.61047166E+00
              10       0.33098152E+02     0.54495720E+00
              11       0.22691488E+02     0.43805681E+00
              12       0.11961542E+02     0.29038696E+00
              13       0.41484478E+01     0.13857182E+00
              14       0.71857158E+00     0.42116377E-01
              15       0.40981946E-01     0.42922324E-02
              16       0.31970849E-03     0.51072480E-04
              17       0.35185374E-07     0.74482100E-08
              18       0.10315622E-12     0.68833828E-14
================================================================================
Calculating local pseudopotential in open BC on the fine real space grid ...
... done

MG BCs: +ve charge blocks (gridpoints):     19842 (   15572386).
MG BCs: -ve charge blocks (gridpoints):      7909 (    1056094).
MG BCs:     Elided blocks (gridpoints):    177278 (  174148225).
MG BCs: Computational effort saved:  99.9855%.
MG BCs: Charge after coarse-graining:           -9.0002172.
MG DL_MG: Calling solver with defect correction order = 8
MG DL_MG: Solver finished
MG Hartree energy from (\int phi*rho dr):              1462.644554
MG Hartree energy from (\int eps (grad phi)^2 dr):     1462.020939
MG Discrepancy due to finite box and discretization:     -0.623615 (  -0.04264%)
MG Correction to account for finite box:                  0.463938
MG Remaining discrepancy, due to discretization:         -0.159677 (  -0.01092%)
Up spin density kernel initialisation ... 
======= Optimisation of K by Palser-Manolopoulos canonical purification ======== 
         Iteration  |  Band structure energy |    c_n   
               1       -2577.45160795364927    0.5276087
               2       -2753.08131182357010    0.5176492
               3       -2933.74487356577038    0.5155507
               4       -3085.57507906418095    0.5282356
               5       -3180.00856853239202    0.5627674
               6       -3220.03528568905858    0.6071536
               7       -3233.66752997489129    0.6201776
               8       -3239.50289857738335    0.6211060
               9       -3242.29123584753506    0.6407667
              10       -3243.42495724219771    0.6730106
              11       -3243.86373383891305    0.6974913
              12       -3244.05735294916985    0.6986122
              13       -3244.16201778366303    0.6719513
              14       -3244.22845910346405    0.6291386
              15       -3244.27004915958469    0.5781039
              16       -3244.29213661636823    0.5337598
              17       -3244.30027780251476    0.5099236
              18       -3244.30210898636233    0.5021419
              19       -3244.30262691087046    0.5001268
              20       -3244.30292735239163    0.5000002
              21       -3244.30302966254931    0.5000000
              22       -3244.30303814120634    0.5000000
              23       -3244.30303819254914    0.5000000
Termination criterion satisfied: band energy change below threshold.
Final occupancy bounds: [    0.00000000000004:    0.99999999999999]
Closest occupancy to 0.5:     0.99999999999996
================================================================================
... done

Writing density kernel to file "host_8461.vacuum_dkn" ... done

>>> Optimising kernel for current NGWFs:
   Initial electron number for spin 1:    7192.00000000
     Final electron number for spin 1:    7192.00000000

=================== Penalty functional idempotency correction ==================
 RMS occupancy error at iteration   1:  0.000000 (step -0.5000 Ne1=   7192.0000)
            Final RMS occupancy error   :  0.000000 (Ne1=   7192.0000)
               Final occupancy bounds   : [ -0.0000,  1.0000]
================================================================================

................................................................................
<<<<<<<<<<<<<< LNV (Original version) density kernel optimisation >>>>>>>>>>>>>>
~~~~~~~~~~~~~~~~~~~~~~~~~~~~~~~~~~~~~~~~~~~~~~~~~~~~~~~~~~~~~~~~~~~~~~~~~~~~~~~~
   iter  |      energy (Eh)       | rms gradient |  commutator  |   dE (Eh)
MG BCs: +ve charge blocks (gridpoints):     30411 (   16790299).
MG BCs: -ve charge blocks (gridpoints):      8228 (    1088357).
MG BCs:     Elided blocks (gridpoints):    166699 (  172898049).
MG BCs: Computational effort saved:  99.9797%.
MG BCs: Charge after coarse-graining:           -9.0009300.
MG DL_MG: Calling solver with defect correction order = 8
MG DL_MG: Solver finished
MG Hartree energy from (\int phi*rho dr):              1416.218951
MG Hartree energy from (\int eps (grad phi)^2 dr):     1415.547512
MG Discrepancy due to finite box and discretization:     -0.671439 (  -0.04741%)
MG Correction to account for finite box:                  0.466859
MG Remaining discrepancy, due to discretization:         -0.204580 (  -0.01445%)
      ideal mu1:      -0.720285021817
             Q0:  -11506.912684549578
             G0:    -139.381580151300
   RMS gradient:       0.001814911243
MG BCs: +ve charge blocks (gridpoints):     30415 (   16870083).
MG BCs: -ve charge blocks (gridpoints):      8157 (    1068984).
MG BCs:     Elided blocks (gridpoints):    166694 (  172837638).
MG BCs: Computational effort saved:  99.9798%.
MG BCs: Charge after coarse-graining:           -9.0009504.
MG DL_MG: Calling solver with defect correction order = 8
MG DL_MG: Solver finished
MG Hartree energy from (\int phi*rho dr):              1442.473269
MG Hartree energy from (\int eps (grad phi)^2 dr):     1441.818343
MG Discrepancy due to finite box and discretization:     -0.654927 (  -0.04540%)
MG Correction to account for finite box:                  0.466780
MG Remaining discrepancy, due to discretization:         -0.188146 (  -0.01304%)
     Trial step:       0.500000000000
             Q1:  -11517.589461326948
 Quadratic coef:      59.014013298280
 Linear coef   :     -69.690790075650
           Qmin:  -11527.487485134738
Quadratic minimum step length (  0.295229836867) accepted
    Initial Ne1:    7192.00000000
      Final Ne1:    7192.00000000

=================== Penalty functional idempotency correction ==================
 RMS occupancy error at iteration   1:  0.003233 (step -0.4891 Ne1=   7192.0000)
 RMS occupancy error at iteration   2:  0.000023 (step -0.5000 Ne1=   7192.0000)
            Final RMS occupancy error   :  0.000000 (Ne1=   7192.0000)
               Final occupancy bounds   : [  0.0000,  1.0000]
================================================================================

    1        -1.150691268455E+04     1.8149E-03     1.6415E-03
MG BCs: +ve charge blocks (gridpoints):     30424 (   16838832).
MG BCs: -ve charge blocks (gridpoints):      8196 (    1077176).
MG BCs:     Elided blocks (gridpoints):    166686 (  172860697).
MG BCs: Computational effort saved:  99.9798%.
MG BCs: Charge after coarse-graining:           -9.0009422.
MG DL_MG: Calling solver with defect correction order = 8
MG DL_MG: Solver finished
MG Hartree energy from (\int phi*rho dr):              1424.003928
MG Hartree energy from (\int eps (grad phi)^2 dr):     1423.343229
MG Discrepancy due to finite box and discretization:     -0.660699 (  -0.04640%)
MG Correction to account for finite box:                  0.466687
MG Remaining discrepancy, due to discretization:         -0.194012 (  -0.01362%)
      ideal mu1:      -0.759861945553
             Q0:  -11527.857998663560
             G0:     -11.445767042332
   RMS gradient:       0.000516726348
MG BCs: +ve charge blocks (gridpoints):     30420 (   16855174).
MG BCs: -ve charge blocks (gridpoints):      8181 (    1072138).
MG BCs:     Elided blocks (gridpoints):    166689 (  172849393).
MG BCs: Computational effort saved:  99.9798%.
MG BCs: Charge after coarse-graining:           -9.0009462.
MG DL_MG: Calling solver with defect correction order = 8
MG DL_MG: Solver finished
MG Hartree energy from (\int phi*rho dr):              1429.562169
MG Hartree energy from (\int eps (grad phi)^2 dr):     1428.905082
MG Discrepancy due to finite box and discretization:     -0.657088 (  -0.04596%)
MG Correction to account for finite box:                  0.466415
MG Remaining discrepancy, due to discretization:         -0.190673 (  -0.01334%)
     Trial step:       0.384206869321
             Q1:  -11530.535182731226
 Quadratic coef:       1.720358254646
 Linear coef   :      -4.397542322312
           Qmin:  -11530.668224153555
Quadratic minimum step length (  0.491050618032) accepted
    Initial Ne1:    7191.99992761
      Final Ne1:    7192.00000000

=================== Penalty functional idempotency correction ==================
 RMS occupancy error at iteration   1:  0.001694 (step -0.4936 Ne1=   7192.0000)
 RMS occupancy error at iteration   2:  0.000009 (step -0.5001 Ne1=   7192.0000)
            Final RMS occupancy error   :  0.000000 (Ne1=   7192.0000)
               Final occupancy bounds   : [  0.0000,  1.0000]
================================================================================

    2        -1.152785799866E+04     5.1673E-04     4.6737E-04    -2.0945E+01
MG BCs: +ve charge blocks (gridpoints):     30419 (   16859812).
MG BCs: -ve charge blocks (gridpoints):      8173 (    1070784).
MG BCs:     Elided blocks (gridpoints):    166690 (  172846109).
MG BCs: Computational effort saved:  99.9798%.
MG BCs: Charge after coarse-graining:           -9.0009472.
MG DL_MG: Calling solver with defect correction order = 8
MG DL_MG: Solver finished
MG Hartree energy from (\int phi*rho dr):              1431.146755
MG Hartree energy from (\int eps (grad phi)^2 dr):     1430.490582
MG Discrepancy due to finite box and discretization:     -0.656174 (  -0.04585%)
MG Correction to account for finite box:                  0.466352
MG Remaining discrepancy, due to discretization:         -0.189821 (  -0.01326%)
      ideal mu1:      -0.781804157378
             Q0:  -11530.701215040986
             G0:      -1.793543424037
   RMS gradient:       0.000204644835
MG BCs: +ve charge blocks (gridpoints):     30413 (   16859267).
MG BCs: -ve charge blocks (gridpoints):      8182 (    1071756).
MG BCs:     Elided blocks (gridpoints):    166696 (  172845682).
MG BCs: Computational effort saved:  99.9798%.
MG BCs: Charge after coarse-graining:           -9.0009469.
MG DL_MG: Calling solver with defect correction order = 8
MG DL_MG: Solver finished
MG Hartree energy from (\int phi*rho dr):              1428.972736
MG Hartree energy from (\int eps (grad phi)^2 dr):     1428.316938
MG Discrepancy due to finite box and discretization:     -0.655798 (  -0.04589%)
MG Correction to account for finite box:                  0.466178
MG Remaining discrepancy, due to discretization:         -0.189620 (  -0.01327%)
     Trial step:       0.434355868652
             Q1:  -11531.149679781520
 Quadratic coef:       0.330571371378
 Linear coef   :      -0.779036111912
           Qmin:  -11531.160191011239
Quadratic minimum step length (  0.511809152877) accepted
    Initial Ne1:    7191.99996929
      Final Ne1:    7192.00000000

=================== Penalty functional idempotency correction ==================
 RMS occupancy error at iteration   1:  0.000560 (step -0.4978 Ne1=   7192.0000)
 RMS occupancy error at iteration   2:  0.000001 (step -0.5000 Ne1=   7192.0000)
            Final RMS occupancy error   :  0.000000 (Ne1=   7192.0000)
               Final occupancy bounds   : [  0.0000,  1.0000]
================================================================================

    3        -1.153070121504E+04     2.0464E-04     1.8510E-04    -2.8432E+00
MG BCs: +ve charge blocks (gridpoints):     30414 (   16859122).
MG BCs: -ve charge blocks (gridpoints):      8183 (    1071952).
MG BCs:     Elided blocks (gridpoints):    166695 (  172845631).
MG BCs: Computational effort saved:  99.9798%.
MG BCs: Charge after coarse-graining:           -9.0009469.
MG DL_MG: Calling solver with defect correction order = 8
MG DL_MG: Solver finished
MG Hartree energy from (\int phi*rho dr):              1428.593134
MG Hartree energy from (\int eps (grad phi)^2 dr):     1427.937394
MG Discrepancy due to finite box and discretization:     -0.655740 (  -0.04590%)
MG Correction to account for finite box:                  0.466148
MG Remaining discrepancy, due to discretization:         -0.189592 (  -0.01327%)
      ideal mu1:      -0.782761080487
             Q0:  -11531.164155155187
             G0:      -0.416754105764
   RMS gradient:       0.000098775168
MG BCs: +ve charge blocks (gridpoints):     30405 (   16860197).
MG BCs: -ve charge blocks (gridpoints):      8178 (    1071656).
MG BCs:     Elided blocks (gridpoints):    166704 (  172844852).
MG BCs: Computational effort saved:  99.9798%.
MG BCs: Charge after coarse-graining:           -9.0009468.
MG DL_MG: Calling solver with defect correction order = 8
MG DL_MG: Solver finished
MG Hartree energy from (\int phi*rho dr):              1429.749176
MG Hartree energy from (\int eps (grad phi)^2 dr):     1429.093382
MG Discrepancy due to finite box and discretization:     -0.655795 (  -0.04587%)
MG Correction to account for finite box:                  0.466072
MG Remaining discrepancy, due to discretization:         -0.189723 (  -0.01327%)
     Trial step:       0.471494760503
             Q1:  -11531.259058303433
 Quadratic coef:       0.101594229041
 Linear coef   :      -0.196497377286
           Qmin:  -11531.259168473474
Quadratic minimum step length (  0.455968241095) accepted
    Initial Ne1:    7191.99999351
      Final Ne1:    7192.00000000

=================== Penalty functional idempotency correction ==================
 RMS occupancy error at iteration   1:  0.000178 (step -0.4993 Ne1=   7192.0000)
            Final RMS occupancy error   :  0.000000 (Ne1=   7192.0000)
               Final occupancy bounds   : [ -0.0000,  1.0000]
================================================================================

    4        -1.153116415516E+04     9.8775E-05     8.9340E-05    -4.6294E-01
MG BCs: +ve charge blocks (gridpoints):     30405 (   16860153).
MG BCs: -ve charge blocks (gridpoints):      8179 (    1071660).
MG BCs:     Elided blocks (gridpoints):    166704 (  172844892).
MG BCs: Computational effort saved:  99.9798%.
MG BCs: Charge after coarse-graining:           -9.0009468.
MG DL_MG: Calling solver with defect correction order = 8
MG DL_MG: Solver finished
MG Hartree energy from (\int phi*rho dr):              1429.711084
MG Hartree energy from (\int eps (grad phi)^2 dr):     1429.055292
MG Discrepancy due to finite box and discretization:     -0.655793 (  -0.04587%)
MG Correction to account for finite box:                  0.466074
MG Remaining discrepancy, due to discretization:         -0.189718 (  -0.01327%)
      ideal mu1:      -0.782899984769
             Q0:  -11531.259554511285
             G0:      -0.102707231418
   RMS gradient:       0.000049167614
MG BCs: +ve charge blocks (gridpoints):     30409 (   16860348).
MG BCs: -ve charge blocks (gridpoints):      8173 (    1071514).
MG BCs:     Elided blocks (gridpoints):    166700 (  172844843).
MG BCs: Computational effort saved:  99.9798%.
MG BCs: Charge after coarse-graining:           -9.0009468.
MG DL_MG: Calling solver with defect correction order = 8
MG DL_MG: Solver finished
MG Hartree energy from (\int phi*rho dr):              1430.076528
MG Hartree energy from (\int eps (grad phi)^2 dr):     1429.420614
MG Discrepancy due to finite box and discretization:     -0.655914 (  -0.04587%)
MG Correction to account for finite box:                  0.466061
MG Remaining discrepancy, due to discretization:         -0.189853 (  -0.01328%)
     Trial step:       0.463666514461
             Q1:  -11531.284548983909
 Quadratic coef:       0.022627431377
 Linear coef   :      -0.047621904002
           Qmin:  -11531.284610887580
Quadratic minimum step length (  0.487918444481) accepted
    Initial Ne1:    7192.00150319
      Final Ne1:    7192.00000000

=================== Penalty functional idempotency correction ==================
 RMS occupancy error at iteration   1:  0.000063 (step -0.4997 Ne1=   7192.0000)
            Final RMS occupancy error   :  0.000000 (Ne1=   7192.0000)
               Final occupancy bounds   : [ -0.0000,  1.0000]
================================================================================

    5        -1.153125955451E+04     4.9168E-05     4.4471E-05    -9.5399E-02
MG BCs: +ve charge blocks (gridpoints):     30409 (   16860358).
MG BCs: -ve charge blocks (gridpoints):      8173 (    1071503).
MG BCs:     Elided blocks (gridpoints):    166700 (  172844844).
MG BCs: Computational effort saved:  99.9798%.
MG BCs: Charge after coarse-graining:           -9.0009468.
MG DL_MG: Calling solver with defect correction order = 8
MG DL_MG: Solver finished
MG Hartree energy from (\int phi*rho dr):              1430.095694
MG Hartree energy from (\int eps (grad phi)^2 dr):     1429.439773
MG Discrepancy due to finite box and discretization:     -0.655920 (  -0.04587%)
MG Correction to account for finite box:                  0.466060
MG Remaining discrepancy, due to discretization:         -0.189860 (  -0.01328%)
      ideal mu1:      -0.782946642839
             Q0:  -11531.284656761680
             G0:      -0.030728623280
   RMS gradient:       0.000026916739
MG BCs: +ve charge blocks (gridpoints):     30408 (   16859937).
MG BCs: -ve charge blocks (gridpoints):      8176 (    1071712).
MG BCs:     Elided blocks (gridpoints):    166701 (  172845056).
MG BCs: Computational effort saved:  99.9798%.
MG BCs: Charge after coarse-graining:           -9.0009468.
MG DL_MG: Calling solver with defect correction order = 8
MG DL_MG: Solver finished
MG Hartree energy from (\int phi*rho dr):              1429.499928
MG Hartree energy from (\int eps (grad phi)^2 dr):     1428.844011
MG Discrepancy due to finite box and discretization:     -0.655918 (  -0.04588%)
MG Correction to account for finite box:                  0.466067
MG Remaining discrepancy, due to discretization:         -0.189851 (  -0.01328%)
     Trial step:       0.475637934246
             Q1:  -11531.294154531904
 Quadratic coef:       0.005117928675
 Linear coef   :      -0.014615698899
           Qmin:  -11531.295091581500
Quadratic minimum step length (  0.679159604764) accepted
    Initial Ne1:    7192.00091155
      Final Ne1:    7192.00000000

=================== Penalty functional idempotency correction ==================
 RMS occupancy error at iteration   1:  0.000038 (step -0.4998 Ne1=   7192.0000)
            Final RMS occupancy error   :  0.000000 (Ne1=   7192.0000)
               Final occupancy bounds   : [ -0.0000,  1.0000]
================================================================================

    6        -1.153128465676E+04     2.6917E-05     2.4346E-05    -2.5102E-02
MG BCs: +ve charge blocks (gridpoints):     30409 (   16859720).
MG BCs: -ve charge blocks (gridpoints):      8178 (    1071811).
MG BCs:     Elided blocks (gridpoints):    166700 (  172845174).
MG BCs: Computational effort saved:  99.9798%.
MG BCs: Charge after coarse-graining:           -9.0009468.
MG DL_MG: Calling solver with defect correction order = 8
MG DL_MG: Solver finished
MG Hartree energy from (\int phi*rho dr):              1429.244397
MG Hartree energy from (\int eps (grad phi)^2 dr):     1428.588481
MG Discrepancy due to finite box and discretization:     -0.655916 (  -0.04589%)
MG Correction to account for finite box:                  0.466070
MG Remaining discrepancy, due to discretization:         -0.189847 (  -0.01328%)
      ideal mu1:      -0.782724169195
             Q0:  -11531.295100753079
             G0:      -0.015859394557
   RMS gradient:       0.000019359583
MG BCs: +ve charge blocks (gridpoints):     30408 (   16860223).
MG BCs: -ve charge blocks (gridpoints):      8175 (    1071576).
MG BCs:     Elided blocks (gridpoints):    166701 (  172844906).
MG BCs: Computational effort saved:  99.9798%.
MG BCs: Charge after coarse-graining:           -9.0009468.
MG DL_MG: Calling solver with defect correction order = 8
MG DL_MG: Solver finished
MG Hartree energy from (\int phi*rho dr):              1429.787047
MG Hartree energy from (\int eps (grad phi)^2 dr):     1429.131173
MG Discrepancy due to finite box and discretization:     -0.655874 (  -0.04587%)
MG Correction to account for finite box:                  0.466053
MG Remaining discrepancy, due to discretization:         -0.189821 (  -0.01328%)
     Trial step:       0.568360863742
             Q1:  -11531.298976112506
 Quadratic coef:       0.005138499762
 Linear coef   :      -0.009013859189
           Qmin:  -11531.299053738447
Quadratic minimum step length (  0.498503943865) accepted
    Initial Ne1:    7192.00012718
      Final Ne1:    7192.00000000

=================== Penalty functional idempotency correction ==================
 RMS occupancy error at iteration   1:  0.000002 (step -0.5000 Ne1=   7192.0000)
            Final RMS occupancy error   :  0.000000 (Ne1=   7192.0000)
               Final occupancy bounds   : [  0.0000,  1.0000]
================================================================================

    7        -1.153129510075E+04     1.9360E-05     1.7510E-05    -1.0444E-02
MG BCs: +ve charge blocks (gridpoints):     30408 (   16860163).
MG BCs: -ve charge blocks (gridpoints):      8175 (    1071590).
MG BCs:     Elided blocks (gridpoints):    166701 (  172844952).
MG BCs: Computational effort saved:  99.9798%.
MG BCs: Charge after coarse-graining:           -9.0009468.
MG DL_MG: Calling solver with defect correction order = 8
MG DL_MG: Solver finished
MG Hartree energy from (\int phi*rho dr):              1429.720241
MG Hartree energy from (\int eps (grad phi)^2 dr):     1429.064361
MG Discrepancy due to finite box and discretization:     -0.655880 (  -0.04587%)
MG Correction to account for finite box:                  0.466056
MG Remaining discrepancy, due to discretization:         -0.189824 (  -0.01328%)
      ideal mu1:      -0.783034491360
             Q0:  -11531.299053946510
             G0:      -0.009196708887
   RMS gradient:       0.000014743129
MG BCs: +ve charge blocks (gridpoints):     30407 (   16860224).
MG BCs: -ve charge blocks (gridpoints):      8176 (    1071570).
MG BCs:     Elided blocks (gridpoints):    166702 (  172844911).
MG BCs: Computational effort saved:  99.9798%.
MG BCs: Charge after coarse-graining:           -9.0009468.
MG DL_MG: Calling solver with defect correction order = 8
MG DL_MG: Solver finished
MG Hartree energy from (\int phi*rho dr):              1429.797725
MG Hartree energy from (\int eps (grad phi)^2 dr):     1429.141883
MG Discrepancy due to finite box and discretization:     -0.655843 (  -0.04587%)
MG Correction to account for finite box:                  0.466045
MG Remaining discrepancy, due to discretization:         -0.189798 (  -0.01327%)
     Trial step:       0.532287640391
             Q1:  -11531.302675479907
 Quadratic coef:       0.001273761076
 Linear coef   :      -0.004895294473
           Qmin:  -11531.303757322290
Quadratic minimum step length (  1.022838895404) accepted
    Initial Ne1:    7192.00015026
      Final Ne1:    7192.00000000

=================== Penalty functional idempotency correction ==================
 RMS occupancy error at iteration   1:  0.000025 (step -0.4991 Ne1=   7192.0000)
            Final RMS occupancy error   :  0.000000 (Ne1=   7192.0000)
               Final occupancy bounds   : [ -0.0000,  1.0000]
================================================================================

    8        -1.153129905395E+04     1.4743E-05     1.3335E-05    -3.9532E-03
MG BCs: +ve charge blocks (gridpoints):     30407 (   16860231).
MG BCs: -ve charge blocks (gridpoints):      8176 (    1071545).
MG BCs:     Elided blocks (gridpoints):    166702 (  172844929).
MG BCs: Computational effort saved:  99.9798%.
MG BCs: Charge after coarse-graining:           -9.0009469.
MG DL_MG: Calling solver with defect correction order = 8
MG DL_MG: Solver finished
MG Hartree energy from (\int phi*rho dr):              1429.867560
MG Hartree energy from (\int eps (grad phi)^2 dr):     1429.211752
MG Discrepancy due to finite box and discretization:     -0.655808 (  -0.04586%)
MG Correction to account for finite box:                  0.466035
MG Remaining discrepancy, due to discretization:         -0.189773 (  -0.01327%)
      ideal mu1:      -0.783092029585
             Q0:  -11531.303745716345
             G0:      -0.013748542240
   RMS gradient:       0.000018068362
MG BCs: +ve charge blocks (gridpoints):     30406 (   16860074).
MG BCs: -ve charge blocks (gridpoints):      8177 (    1071660).
MG BCs:     Elided blocks (gridpoints):    166703 (  172844971).
MG BCs: Computational effort saved:  99.9798%.
MG BCs: Charge after coarse-graining:           -9.0009469.
MG DL_MG: Calling solver with defect correction order = 8
MG DL_MG: Solver finished
MG Hartree energy from (\int phi*rho dr):              1429.556617
MG Hartree energy from (\int eps (grad phi)^2 dr):     1428.900884
MG Discrepancy due to finite box and discretization:     -0.655733 (  -0.04587%)
MG Correction to account for finite box:                  0.466016
MG Remaining discrepancy, due to discretization:         -0.189717 (  -0.01327%)
     Trial step:       0.737864826466
             Q1:  -11531.310364676639
 Quadratic coef:       0.003525605440
 Linear coef   :      -0.010144565734
           Qmin:  -11531.311043201535
Quadratic minimum step length (  1.061564937266) accepted
    Initial Ne1:    7192.00055497
      Final Ne1:    7192.00000000

=================== Penalty functional idempotency correction ==================
 RMS occupancy error at iteration   1:  0.000170 (step -0.4932 Ne1=   7192.0000)
 RMS occupancy error at iteration   2:  0.000001 (step -0.5000 Ne1=   7192.0000)
            Final RMS occupancy error   :  0.000000 (Ne1=   7192.0000)
               Final occupancy bounds   : [  0.0000,  1.0000]
================================================================================

    9        -1.153130374572E+04     1.8068E-05     1.6342E-05    -4.6918E-03
MG BCs: +ve charge blocks (gridpoints):     30405 (   16860020).
MG BCs: -ve charge blocks (gridpoints):      8178 (    1071699).
MG BCs:     Elided blocks (gridpoints):    166704 (  172844986).
MG BCs: Computational effort saved:  99.9798%.
MG BCs: Charge after coarse-graining:           -9.0009469.
MG DL_MG: Calling solver with defect correction order = 8
MG DL_MG: Solver finished
MG Hartree energy from (\int phi*rho dr):              1429.415881
MG Hartree energy from (\int eps (grad phi)^2 dr):     1428.760185
MG Discrepancy due to finite box and discretization:     -0.655697 (  -0.04587%)
MG Correction to account for finite box:                  0.466006
MG Remaining discrepancy, due to discretization:         -0.189691 (  -0.01327%)
      ideal mu1:      -0.782649493487
   10        -1.153131093338E+04     2.2386E-05     2.0248E-05    -7.1877E-03
Finished density kernel iterations (  10)

Writing density kernel to file "host_8461.vacuum_dkn" ... done


>>> Density kernel optimised for the current NGWF basis:
     ~~~~~~~~~~~~~~~~~~~~~~~~~~~~~~~~~~~~~~~~~~~~~~~~~~~~~~~~~~~
     Total energy                =  -1.15313109333829E+04  Eh
     Estimated bandgap           =  -2.9011E-01  Eh
     RMS occupancy error         =   4.9219E-11
     [H,K] commutator            =   2.0248E-05
     Occupancy bounds            = [  0.000:  1.000]
     ~~~~~~~~~~~~~~~~~~~~~~~~~~~~~~~~~~~~~~~~~~~~~~~~~~~~~~~~~~~




################################################################################
########################### NGWF CG iteration  001 #############################
################################################################################
****** Reciprocal space K.E. preconditioning with k_zero =  3.5000 a0^-1 *******

>>> Checking for convergence of NGWFs:   NOT CONVERGED
  ========================================================================
         NGWF RMS gradient =  1.6359E-03 >  2.0000E-06  | above tolerance
  ========================================================================

>>> Improving NGWFs using line search:
============ Calculation of NGWF S^-1 using Hotelling algorithm ================ 
         Iteration  |  Frobenius norm and Maximum abs value    (of I-S*S_n^-1)   
               1       0.20460367E+00     0.59144326E-02
               2       0.98334167E-03     0.53039367E-04
               3       0.39707271E-07     0.42408426E-08
               4       0.12818038E-12     0.55511151E-14
================================================================================
MG BCs: +ve charge blocks (gridpoints):     29940 (   16801030).
MG BCs: -ve charge blocks (gridpoints):      8192 (    1071716).
MG BCs:     Elided blocks (gridpoints):    167173 (  172903959).
MG BCs: Computational effort saved:  99.9800%.
MG BCs: Charge after coarse-graining:           -9.0009519.
MG DL_MG: Calling solver with defect correction order = 8
MG DL_MG: Solver finished
MG Hartree energy from (\int phi*rho dr):              1397.026266
MG Hartree energy from (\int eps (grad phi)^2 dr):     1396.371492
MG Discrepancy due to finite box and discretization:     -0.654774 (  -0.04687%)
MG Correction to account for finite box:                  0.465980
MG Remaining discrepancy, due to discretization:         -0.188794 (  -0.01351%)
============ Calculation of NGWF S^-1 using Hotelling algorithm ================ 
         Iteration  |  Frobenius norm and Maximum abs value    (of I-S*S_n^-1)   
               1       0.18364153E+01     0.45530066E-01
               2       0.70548644E-01     0.28595638E-02
               3       0.14552294E-03     0.12452604E-04
               4       0.12272625E-08     0.24241364E-09
               5       0.10891461E-12     0.55511151E-14
================================================================================
------------------------------- NGWF line search -------------------------------
RMS gradient                =       0.00163594597901
Trial step length           =               0.122474
Gradient along search dir.  =       -284.86279321358
Functional at step 0        =  -11531.31093338294886
Functional at step 1        =  -11563.45788490737323
Functional predicted        =  -11642.30985380743368
Selected quadratic step     =               0.779315
--------------------------- NGWF line search finished --------------------------
                                               
Writing NGWFs to file "host_8461.vacuum_tightbox_ngwfs"....  done

>>> Optimising kernel for current NGWFs:
   Initial electron number for spin 1:    7226.79731161
     Final electron number for spin 1:    7192.00000000

=================== Penalty functional idempotency correction ==================
 RMS occupancy error at iteration   1:  0.004375 (step -0.4853 Ne1=   7192.0000)
 RMS occupancy error at iteration   2:  0.000075 (step -0.5003 Ne1=   7192.0000)
            Final RMS occupancy error   :  0.000000 (Ne1=   7192.0000)
               Final occupancy bounds   : [  0.0000,  1.0000]
================================================================================

................................................................................
<<<<<<<<<<<<<< LNV (Original version) density kernel optimisation >>>>>>>>>>>>>>
~~~~~~~~~~~~~~~~~~~~~~~~~~~~~~~~~~~~~~~~~~~~~~~~~~~~~~~~~~~~~~~~~~~~~~~~~~~~~~~~
   iter  |      energy (Eh)       | rms gradient |  commutator  |   dE (Eh)
MG BCs: +ve charge blocks (gridpoints):     24172 (   16456476).
MG BCs: -ve charge blocks (gridpoints):      8311 (    1055905).
MG BCs:     Elided blocks (gridpoints):    172948 (  173264324).
MG BCs: Computational effort saved:  99.9830%.
MG BCs: Charge after coarse-graining:           -9.0006691.
MG DL_MG: Calling solver with defect correction order = 8
MG DL_MG: Solver finished
MG Hartree energy from (\int phi*rho dr):              1245.089839
MG Hartree energy from (\int eps (grad phi)^2 dr):     1244.434965
MG Discrepancy due to finite box and discretization:     -0.654874 (  -0.05260%)
MG Correction to account for finite box:                  0.465884
MG Remaining discrepancy, due to discretization:         -0.188990 (  -0.01518%)
      ideal mu1:      -0.722290127087
             Q0:  -11641.539582448080
             G0:      -9.714161759390
   RMS gradient:       0.000479132207
MG BCs: +ve charge blocks (gridpoints):     24229 (   16474060).
MG BCs: -ve charge blocks (gridpoints):      8304 (    1051619).
MG BCs:     Elided blocks (gridpoints):    172891 (  173251026).
MG BCs: Computational effort saved:  99.9829%.
MG BCs: Charge after coarse-graining:           -9.0006636.
MG DL_MG: Calling solver with defect correction order = 8
MG DL_MG: Solver finished
MG Hartree energy from (\int phi*rho dr):              1264.781056
MG Hartree energy from (\int eps (grad phi)^2 dr):     1264.119176
MG Discrepancy due to finite box and discretization:     -0.661880 (  -0.05233%)
MG Correction to account for finite box:                  0.465381
MG Remaining discrepancy, due to discretization:         -0.196499 (  -0.01554%)
     Trial step:       0.885037529271
             Q1:  -11638.592891121982
 Quadratic coef:      11.544089048564
 Linear coef   :      -8.597397722466
           Qmin:  -11643.140298781940
Quadratic minimum step length (  0.329563450457) accepted
    Initial Ne1:    7191.99953077
      Final Ne1:    7192.00000000

=================== Penalty functional idempotency correction ==================
 RMS occupancy error at iteration   1:  0.000352 (step -0.4986 Ne1=   7192.0000)
 RMS occupancy error at iteration   2:  0.000000 (step -0.5000 Ne1=   7192.0000)
            Final RMS occupancy error   :  0.000000 (Ne1=   7192.0000)
               Final occupancy bounds   : [  0.0000,  1.0000]
================================================================================

    1        -1.164153958245E+04     4.7913E-04     4.3336E-04
MG BCs: +ve charge blocks (gridpoints):     24191 (   16463280).
MG BCs: -ve charge blocks (gridpoints):      8313 (    1054300).
MG BCs:     Elided blocks (gridpoints):    172929 (  173259125).
MG BCs: Computational effort saved:  99.9830%.
MG BCs: Charge after coarse-graining:           -9.0006669.
MG DL_MG: Calling solver with defect correction order = 8
MG DL_MG: Solver finished
MG Hartree energy from (\int phi*rho dr):              1251.096137
MG Hartree energy from (\int eps (grad phi)^2 dr):     1250.438798
MG Discrepancy due to finite box and discretization:     -0.657339 (  -0.05254%)
MG Correction to account for finite box:                  0.465666
MG Remaining discrepancy, due to discretization:         -0.191674 (  -0.01532%)
      ideal mu1:      -0.729023914027
             Q0:  -11643.104376793373
             G0:      -0.975212202713
   RMS gradient:       0.000153027436
MG BCs: +ve charge blocks (gridpoints):     24197 (   16463107).
MG BCs: -ve charge blocks (gridpoints):      8312 (    1055121).
MG BCs:     Elided blocks (gridpoints):    172923 (  173258477).
MG BCs: Computational effort saved:  99.9830%.
MG BCs: Charge after coarse-graining:           -9.0006668.
MG DL_MG: Calling solver with defect correction order = 8
MG DL_MG: Solver finished
MG Hartree energy from (\int phi*rho dr):              1252.307440
MG Hartree energy from (\int eps (grad phi)^2 dr):     1251.649692
MG Discrepancy due to finite box and discretization:     -0.657747 (  -0.05252%)
MG Correction to account for finite box:                  0.465655
MG Remaining discrepancy, due to discretization:         -0.192092 (  -0.01534%)
     Trial step:       0.540070386089
             Q1:  -11643.294646038208
 Quadratic coef:       0.336413986002
 Linear coef   :      -0.526683230838
           Qmin:  -11643.310518063645
Quadratic minimum step length (  0.422761876231) accepted
    Initial Ne1:    7191.99993859
      Final Ne1:    7192.00000000

=================== Penalty functional idempotency correction ==================
 RMS occupancy error at iteration   1:  0.000140 (step -0.4994 Ne1=   7192.0000)
            Final RMS occupancy error   :  0.000000 (Ne1=   7192.0000)
               Final occupancy bounds   : [ -0.0000,  1.0000]
================================================================================

    2        -1.164310437679E+04     1.5303E-04     1.3841E-04    -1.5648E+00
MG BCs: +ve charge blocks (gridpoints):     24194 (   16463176).
MG BCs: -ve charge blocks (gridpoints):      8311 (    1054936).
MG BCs:     Elided blocks (gridpoints):    172926 (  173258593).
MG BCs: Computational effort saved:  99.9830%.
MG BCs: Charge after coarse-graining:           -9.0006668.
MG DL_MG: Calling solver with defect correction order = 8
MG DL_MG: Solver finished
MG Hartree energy from (\int phi*rho dr):              1252.043901
MG Hartree energy from (\int eps (grad phi)^2 dr):     1251.386246
MG Discrepancy due to finite box and discretization:     -0.657655 (  -0.05253%)
MG Correction to account for finite box:                  0.465657
MG Remaining discrepancy, due to discretization:         -0.191998 (  -0.01533%)
      ideal mu1:      -0.729854632659
             Q0:  -11643.310992174549
             G0:      -0.145433650783
   RMS gradient:       0.000058558444
MG BCs: +ve charge blocks (gridpoints):     24193 (   16462625).
MG BCs: -ve charge blocks (gridpoints):      8311 (    1055315).
MG BCs:     Elided blocks (gridpoints):    172927 (  173258765).
MG BCs: Computational effort saved:  99.9830%.
MG BCs: Charge after coarse-graining:           -9.0006667.
MG DL_MG: Calling solver with defect correction order = 8
MG DL_MG: Solver finished
MG Hartree energy from (\int phi*rho dr):              1251.584467
MG Hartree energy from (\int eps (grad phi)^2 dr):     1250.926853
MG Discrepancy due to finite box and discretization:     -0.657614 (  -0.05254%)
MG Correction to account for finite box:                  0.465643
MG Remaining discrepancy, due to discretization:         -0.191971 (  -0.01534%)
     Trial step:       0.477829645082
             Q1:  -11643.355198494392
 Quadratic coef:       0.025286189893
 Linear coef   :      -0.069492509737
           Qmin:  -11643.358737692259
Quadratic minimum step length (  0.656595188981) accepted
    Initial Ne1:    7192.00058404
      Final Ne1:    7192.00000000

=================== Penalty functional idempotency correction ==================
 RMS occupancy error at iteration   1:  0.000061 (step -0.4998 Ne1=   7192.0000)
            Final RMS occupancy error   :  0.000000 (Ne1=   7192.0000)
               Final occupancy bounds   : [ -0.0000,  1.0000]
================================================================================

    3        -1.164331099217E+04     5.8558E-05     5.2965E-05    -2.0662E-01
MG BCs: +ve charge blocks (gridpoints):     24193 (   16462423).
MG BCs: -ve charge blocks (gridpoints):      8310 (    1055430).
MG BCs:     Elided blocks (gridpoints):    172927 (  173258852).
MG BCs: Computational effort saved:  99.9830%.
MG BCs: Charge after coarse-graining:           -9.0006668.
MG DL_MG: Calling solver with defect correction order = 8
MG DL_MG: Solver finished
MG Hartree energy from (\int phi*rho dr):              1251.412659
MG Hartree energy from (\int eps (grad phi)^2 dr):     1250.755060
MG Discrepancy due to finite box and discretization:     -0.657600 (  -0.05255%)
MG Correction to account for finite box:                  0.465638
MG Remaining discrepancy, due to discretization:         -0.191961 (  -0.01534%)
      ideal mu1:      -0.728866756970
             Q0:  -11643.358823001734
             G0:      -0.035685633041
   RMS gradient:       0.000028998952
MG BCs: +ve charge blocks (gridpoints):     24192 (   16462240).
MG BCs: -ve charge blocks (gridpoints):      8311 (    1055518).
MG BCs:     Elided blocks (gridpoints):    172928 (  173258947).
MG BCs: Computational effort saved:  99.9830%.
MG BCs: Charge after coarse-graining:           -9.0006668.
MG DL_MG: Calling solver with defect correction order = 8
MG DL_MG: Solver finished
MG Hartree energy from (\int phi*rho dr):              1251.407363
MG Hartree energy from (\int eps (grad phi)^2 dr):     1250.749868
MG Discrepancy due to finite box and discretization:     -0.657495 (  -0.05254%)
MG Correction to account for finite box:                  0.465642
MG Remaining discrepancy, due to discretization:         -0.191853 (  -0.01533%)
     Trial step:       0.560125562810
             Q1:  -11643.367685222300
 Quadratic coef:       0.011126214726
 Linear coef   :      -0.019988435291
           Qmin:  -11643.367800393309
Quadratic minimum step length (  0.503137582880) accepted
    Initial Ne1:    7192.00021912
      Final Ne1:    7192.00000000

=================== Penalty functional idempotency correction ==================
 RMS occupancy error at iteration   1:  0.000018 (step -0.4999 Ne1=   7192.0000)
            Final RMS occupancy error   :  0.000000 (Ne1=   7192.0000)
               Final occupancy bounds   : [ -0.0000,  1.0000]
================================================================================

    4        -1.164335882300E+04     2.8999E-05     2.6229E-05    -4.7831E-02
MG BCs: +ve charge blocks (gridpoints):     24192 (   16462276).
MG BCs: -ve charge blocks (gridpoints):      8311 (    1055496).
MG BCs:     Elided blocks (gridpoints):    172928 (  173258933).
MG BCs: Computational effort saved:  99.9830%.
MG BCs: Charge after coarse-graining:           -9.0006668.
MG DL_MG: Calling solver with defect correction order = 8
MG DL_MG: Solver finished
MG Hartree energy from (\int phi*rho dr):              1251.407729
MG Hartree energy from (\int eps (grad phi)^2 dr):     1250.750224
MG Discrepancy due to finite box and discretization:     -0.657506 (  -0.05254%)
MG Correction to account for finite box:                  0.465642
MG Remaining discrepancy, due to discretization:         -0.191864 (  -0.01533%)
      ideal mu1:      -0.728895973818
             Q0:  -11643.367805506918
             G0:      -0.012239504783
   RMS gradient:       0.000017003887
MG BCs: +ve charge blocks (gridpoints):     24193 (   16462763).
MG BCs: -ve charge blocks (gridpoints):      8312 (    1055321).
MG BCs:     Elided blocks (gridpoints):    172927 (  173258621).
MG BCs: Computational effort saved:  99.9830%.
MG BCs: Charge after coarse-graining:           -9.0006666.
MG DL_MG: Calling solver with defect correction order = 8
MG DL_MG: Solver finished
MG Hartree energy from (\int phi*rho dr):              1251.801632
MG Hartree energy from (\int eps (grad phi)^2 dr):     1251.144171
MG Discrepancy due to finite box and discretization:     -0.657461 (  -0.05252%)
MG Correction to account for finite box:                  0.465633
MG Remaining discrepancy, due to discretization:         -0.191828 (  -0.01532%)
     Trial step:       0.530867423922
             Q1:  -11643.371308150934
 Quadratic coef:       0.002994910357
 Linear coef   :      -0.006497554374
           Qmin:  -11643.371329670232
Quadratic minimum step length (  0.575866977788) accepted
    Initial Ne1:    7192.00010227
      Final Ne1:    7192.00000000

=================== Penalty functional idempotency correction ==================
 RMS occupancy error at iteration   1:  0.000011 (step -0.4999 Ne1=   7192.0000)
            Final RMS occupancy error   :  0.000000 (Ne1=   7192.0000)
               Final occupancy bounds   : [ -0.0000,  1.0000]
================================================================================

    5        -1.164336780551E+04     1.7004E-05     1.5380E-05    -8.9825E-03
MG BCs: +ve charge blocks (gridpoints):     24193 (   16462802).
MG BCs: -ve charge blocks (gridpoints):      8312 (    1055300).
MG BCs:     Elided blocks (gridpoints):    172927 (  173258603).
MG BCs: Computational effort saved:  99.9830%.
MG BCs: Charge after coarse-graining:           -9.0006666.
MG DL_MG: Calling solver with defect correction order = 8
MG DL_MG: Solver finished
MG Hartree energy from (\int phi*rho dr):              1251.835054
MG Hartree energy from (\int eps (grad phi)^2 dr):     1251.177597
MG Discrepancy due to finite box and discretization:     -0.657457 (  -0.05252%)
MG Correction to account for finite box:                  0.465632
MG Remaining discrepancy, due to discretization:         -0.191825 (  -0.01532%)
      ideal mu1:      -0.729222299075
             Q0:  -11643.371330832248
             G0:      -0.004353797311
   RMS gradient:       0.000010142019
MG BCs: +ve charge blocks (gridpoints):     24192 (   16462831).
MG BCs: -ve charge blocks (gridpoints):      8312 (    1055314).
MG BCs:     Elided blocks (gridpoints):    172928 (  173258560).
MG BCs: Computational effort saved:  99.9830%.
MG BCs: Charge after coarse-graining:           -9.0006666.
MG DL_MG: Calling solver with defect correction order = 8
MG DL_MG: Solver finished
MG Hartree energy from (\int phi*rho dr):              1251.812692
MG Hartree energy from (\int eps (grad phi)^2 dr):     1251.155249
MG Discrepancy due to finite box and discretization:     -0.657443 (  -0.05252%)
MG Correction to account for finite box:                  0.465623
MG Remaining discrepancy, due to discretization:         -0.191821 (  -0.01532%)
     Trial step:       0.552909593894
             Q1:  -11643.372889609076
 Quadratic coef:       0.000848479474
 Linear coef   :      -0.002407256303
           Qmin:  -11643.373038263919
Quadratic minimum step length (  0.784341368929) accepted
    Initial Ne1:    7192.00008522
      Final Ne1:    7192.00000000

=================== Penalty functional idempotency correction ==================
 RMS occupancy error at iteration   1:  0.000012 (step -0.4996 Ne1=   7192.0000)
            Final RMS occupancy error   :  0.000000 (Ne1=   7192.0000)
               Final occupancy bounds   : [ -0.0000,  1.0000]
================================================================================

    6        -1.164337133083E+04     1.0142E-05     9.1732E-06    -3.5253E-03
MG BCs: +ve charge blocks (gridpoints):     24192 (   16462826).
MG BCs: -ve charge blocks (gridpoints):      8312 (    1055316).
MG BCs:     Elided blocks (gridpoints):    172928 (  173258563).
MG BCs: Computational effort saved:  99.9830%.
MG BCs: Charge after coarse-graining:           -9.0006666.
MG DL_MG: Calling solver with defect correction order = 8
MG DL_MG: Solver finished
MG Hartree energy from (\int phi*rho dr):              1251.803245
MG Hartree energy from (\int eps (grad phi)^2 dr):     1251.145808
MG Discrepancy due to finite box and discretization:     -0.657437 (  -0.05252%)
MG Correction to account for finite box:                  0.465619
MG Remaining discrepancy, due to discretization:         -0.191819 (  -0.01532%)
      ideal mu1:      -0.729166797724
             Q0:  -11643.373037598678
             G0:      -0.003167134493
   RMS gradient:       0.000008651391
MG BCs: +ve charge blocks (gridpoints):     24193 (   16462539).
MG BCs: -ve charge blocks (gridpoints):      8312 (    1055412).
MG BCs:     Elided blocks (gridpoints):    172927 (  173258754).
MG BCs: Computational effort saved:  99.9830%.
MG BCs: Charge after coarse-graining:           -9.0006667.
MG DL_MG: Calling solver with defect correction order = 8
MG DL_MG: Solver finished
MG Hartree energy from (\int phi*rho dr):              1251.656328
MG Hartree energy from (\int eps (grad phi)^2 dr):     1250.998875
MG Discrepancy due to finite box and discretization:     -0.657452 (  -0.05253%)
MG Correction to account for finite box:                  0.465623
MG Remaining discrepancy, due to discretization:         -0.191829 (  -0.01533%)
     Trial step:       0.658536155248
             Q1:  -11643.373695298447
 Quadratic coef:       0.001427972802
 Linear coef   :      -0.002085672572
           Qmin:  -11643.373799173070
Quadratic minimum step length (  0.480923304264) accepted
    Initial Ne1:    7192.00008180
      Final Ne1:    7192.00000000

=================== Penalty functional idempotency correction ==================
 RMS occupancy error at iteration   1:  0.000001 (step -0.5000 Ne1=   7192.0000)
            Final RMS occupancy error   :  0.000000 (Ne1=   7192.0000)
               Final occupancy bounds   : [  0.0000,  1.0000]
================================================================================

    7        -1.164337303760E+04     8.6514E-06     7.8250E-06    -1.7068E-03
MG BCs: +ve charge blocks (gridpoints):     24192 (   16462619).
MG BCs: -ve charge blocks (gridpoints):      8312 (    1055385).
MG BCs:     Elided blocks (gridpoints):    172928 (  173258701).
MG BCs: Computational effort saved:  99.9830%.
MG BCs: Charge after coarse-graining:           -9.0006667.
MG DL_MG: Calling solver with defect correction order = 8
MG DL_MG: Solver finished
MG Hartree energy from (\int phi*rho dr):              1251.695868
MG Hartree energy from (\int eps (grad phi)^2 dr):     1251.038420
MG Discrepancy due to finite box and discretization:     -0.657448 (  -0.05252%)
MG Correction to account for finite box:                  0.465622
MG Remaining discrepancy, due to discretization:         -0.191827 (  -0.01533%)
      ideal mu1:      -0.729014926979
             Q0:  -11643.373799169669
             G0:      -0.002034328968
   RMS gradient:       0.000006933572
MG BCs: +ve charge blocks (gridpoints):     24192 (   16462548).
MG BCs: -ve charge blocks (gridpoints):      8312 (    1055406).
MG BCs:     Elided blocks (gridpoints):    172928 (  173258751).
MG BCs: Computational effort saved:  99.9830%.
MG BCs: Charge after coarse-graining:           -9.0006667.
MG DL_MG: Calling solver with defect correction order = 8
MG DL_MG: Solver finished
MG Hartree energy from (\int phi*rho dr):              1251.638277
MG Hartree energy from (\int eps (grad phi)^2 dr):     1250.980823
MG Discrepancy due to finite box and discretization:     -0.657454 (  -0.05253%)
MG Correction to account for finite box:                  0.465618
MG Remaining discrepancy, due to discretization:         -0.191835 (  -0.01533%)
     Trial step:       0.562765833859
             Q1:  -11643.374709436088
 Quadratic coef:       0.000234584419
 Linear coef   :      -0.001144850838
           Qmin:  -11643.375195983925
Quadratic minimum step length (  1.373243244508) accepted
    Initial Ne1:    7192.00014979
      Final Ne1:    7192.00000000

=================== Penalty functional idempotency correction ==================
 RMS occupancy error at iteration   1:  0.000021 (step -0.4988 Ne1=   7192.0000)
            Final RMS occupancy error   :  0.000000 (Ne1=   7192.0000)
               Final occupancy bounds   : [ -0.0000,  1.0000]
================================================================================

    8        -1.164337379917E+04     6.9336E-06     6.2713E-06    -7.6157E-04
MG BCs: +ve charge blocks (gridpoints):     24192 (   16462450).
MG BCs: -ve charge blocks (gridpoints):      8311 (    1055442).
MG BCs:     Elided blocks (gridpoints):    172928 (  173258813).
MG BCs: Computational effort saved:  99.9830%.
MG BCs: Charge after coarse-graining:           -9.0006667.
MG DL_MG: Calling solver with defect correction order = 8
MG DL_MG: Solver finished
MG Hartree energy from (\int phi*rho dr):              1251.554579
[...]
MG Hartree energy from (\int eps (grad phi)^2 dr):     1208.596722
MG Discrepancy due to finite box and discretization:     -0.197444 (  -0.01633%)
MG Correction to account for finite box:                  0.006371
MG Remaining discrepancy, due to discretization:         -0.191073 (  -0.01581%)
     Trial step:       0.259056051099
             Q1:  -11677.802702677203
 Quadratic coef:       0.000000000211
 Linear coef   :      -0.000000000210
           Qmin:  -11677.802702677256
Quadratic minimum step length (  0.129164388597) accepted
    Initial Ne1:    7192.00000000
      Final Ne1:    7192.00000000

=================== Penalty functional idempotency correction ==================
 RMS occupancy error at iteration   1:  0.000000 (step -0.5000 Ne1=   7192.0000)
            Final RMS occupancy error   :  0.000000 (Ne1=   7192.0000)
               Final occupancy bounds   : [  0.0000,  1.0000]
================================================================================

    7        -1.167780270268E+04     4.3812E-09     3.9627E-09     1.1642E-10

Reusing previously generated solute cavity.
MG BCs: +ve charge blocks (gridpoints):     28780 (   18628333).
MG BCs: -ve charge blocks (gridpoints):      8278 (    1024734).
MG BCs:     Elided blocks (gridpoints):    168340 (  171123638).
MG BCs: Computational effort saved:  99.9806%.
MG BCs: Charge after coarse-graining:           -9.0009364.
MG DL_MG: Calling solver with defect correction order = 8
MG DL_MG: Solver finished
MG Hartree energy from (\int phi*rho dr):              1208.794171
MG Hartree energy from (\int eps (grad phi)^2 dr):     1208.596727
MG Discrepancy due to finite box and discretization:     -0.197444 (  -0.01633%)
MG Correction to account for finite box:                  0.006371
MG Remaining discrepancy, due to discretization:         -0.191073 (  -0.01581%)
      ideal mu1:      -0.481449823599
             Q0:  -11677.802702677203
             G0:      -0.000000001159
   RMS gradient:       0.000000003827

Reusing previously generated solute cavity.
MG BCs: +ve charge blocks (gridpoints):     28780 (   18628333).
MG BCs: -ve charge blocks (gridpoints):      8278 (    1024734).
MG BCs:     Elided blocks (gridpoints):    168340 (  171123638).
MG BCs: Computational effort saved:  99.9806%.
MG BCs: Charge after coarse-graining:           -9.0009364.
MG DL_MG: Calling solver with defect correction order = 8
MG DL_MG: Solver finished
MG Hartree energy from (\int phi*rho dr):              1208.794161
MG Hartree energy from (\int eps (grad phi)^2 dr):     1208.596716
MG Discrepancy due to finite box and discretization:     -0.197444 (  -0.01633%)
MG Correction to account for finite box:                  0.006371
MG Remaining discrepancy, due to discretization:         -0.191073 (  -0.01581%)
     Trial step:       0.182922979564
             Q1:  -11677.802702677087
 Quadratic coef:       0.000000000329
 Linear coef   :      -0.000000000212
           Qmin:  -11677.802702677238
Quadratic minimum step length (  0.058899149862) accepted
    Initial Ne1:    7192.00000000
      Final Ne1:    7192.00000000

=================== Penalty functional idempotency correction ==================
 RMS occupancy error at iteration   1:  0.000000 (step -0.5000 Ne1=   7192.0000)
            Final RMS occupancy error   :  0.000000 (Ne1=   7192.0000)
               Final occupancy bounds   : [  0.0000,  1.0000]
================================================================================

    8        -1.167780270268E+04     3.8269E-09     3.4613E-09     0.0000E+00

Reusing previously generated solute cavity.
MG BCs: +ve charge blocks (gridpoints):     28780 (   18628333).
MG BCs: -ve charge blocks (gridpoints):      8278 (    1024734).
MG BCs:     Elided blocks (gridpoints):    168340 (  171123638).
MG BCs: Computational effort saved:  99.9806%.
MG BCs: Charge after coarse-graining:           -9.0009364.
MG DL_MG: Calling solver with defect correction order = 8
MG DL_MG: Solver finished
MG Hartree energy from (\int phi*rho dr):              1208.794167
MG Hartree energy from (\int eps (grad phi)^2 dr):     1208.596723
MG Discrepancy due to finite box and discretization:     -0.197444 (  -0.01633%)
MG Correction to account for finite box:                  0.006371
MG Remaining discrepancy, due to discretization:         -0.191073 (  -0.01581%)
      ideal mu1:      -0.481449819902
             Q0:  -11677.802702677087
             G0:      -0.000000001339
   RMS gradient:       0.000000003440

Reusing previously generated solute cavity.
MG BCs: +ve charge blocks (gridpoints):     28780 (   18628333).
MG BCs: -ve charge blocks (gridpoints):      8278 (    1024734).
MG BCs:     Elided blocks (gridpoints):    168340 (  171123638).
MG BCs: Computational effort saved:  99.9806%.
MG BCs: Charge after coarse-graining:           -9.0009364.
MG DL_MG: Calling solver with defect correction order = 8
MG DL_MG: Solver finished
MG Hartree energy from (\int phi*rho dr):              1208.794160
MG Hartree energy from (\int eps (grad phi)^2 dr):     1208.596716
MG Discrepancy due to finite box and discretization:     -0.197444 (  -0.01633%)
MG Correction to account for finite box:                  0.006371
MG Remaining discrepancy, due to discretization:         -0.191073 (  -0.01581%)
     Trial step:       0.103797918990
             Q1:  -11677.802702677087
 Quadratic coef:       0.000000000138
 Linear coef   :      -0.000000000139
           Qmin:  -11677.802702677121
Quadratic minimum step length (  0.052165463906) accepted
    Initial Ne1:    7192.00000000
      Final Ne1:    7192.00000000

=================== Penalty functional idempotency correction ==================
 RMS occupancy error at iteration   1:  0.000000 (step -0.5000 Ne1=   7192.0000)
            Final RMS occupancy error   :  0.000000 (Ne1=   7192.0000)
               Final occupancy bounds   : [  0.0000,  1.0000]
================================================================================

    9        -1.167780270268E+04     3.4401E-09     3.1115E-09     1.1642E-10

Reusing previously generated solute cavity.
MG BCs: +ve charge blocks (gridpoints):     28780 (   18628333).
MG BCs: -ve charge blocks (gridpoints):      8278 (    1024734).
MG BCs:     Elided blocks (gridpoints):    168340 (  171123638).
MG BCs: Computational effort saved:  99.9806%.
MG BCs: Charge after coarse-graining:           -9.0009364.
MG DL_MG: Calling solver with defect correction order = 8
MG DL_MG: Solver finished
MG Hartree energy from (\int phi*rho dr):              1208.794164
MG Hartree energy from (\int eps (grad phi)^2 dr):     1208.596720
MG Discrepancy due to finite box and discretization:     -0.197444 (  -0.01633%)
MG Correction to account for finite box:                  0.006371
MG Remaining discrepancy, due to discretization:         -0.191073 (  -0.01581%)
      ideal mu1:      -0.481449815680
   10        -1.167780270268E+04     3.0245E-09     2.7356E-09     0.0000E+00
Finished density kernel iterations (  10)

Writing density kernel to file "host_8461.dkn" ... done


>>> Density kernel optimised for the current NGWF basis:
     ~~~~~~~~~~~~~~~~~~~~~~~~~~~~~~~~~~~~~~~~~~~~~~~~~~~~~~~~~~~
     Total energy                =  -1.16778027026771E+04  Eh
     Estimated bandgap           =   8.1684E-02  Eh
     RMS occupancy error         =   5.5903E-16
     [H,K] commutator            =   2.7356E-09
     Occupancy bounds            = [  0.000:  1.000]
     ~~~~~~~~~~~~~~~~~~~~~~~~~~~~~~~~~~~~~~~~~~~~~~~~~~~~~~~~~~~




################################################################################
########################### NGWF CG iteration  005 #############################
################################################################################
****** Reciprocal space K.E. preconditioning with k_zero =  3.5000 a0^-1 *******

>>> Checking for convergence of NGWFs: 
           ........................................................
           |         *** NGWF optimisation converged ***          |
           | RMS NGWF gradient =    0.00000089938518              |
           | Criteria satisfied:                                  |
           | -> RMS NGWF gradient lower than set threshold.       |
           ========================================================

Reusing previously generated solute cavity.
MG BCs: +ve charge blocks (gridpoints):     28780 (   18628333).
MG BCs: -ve charge blocks (gridpoints):      8278 (    1024734).
MG BCs:     Elided blocks (gridpoints):    168340 (  171123638).
MG BCs: Computational effort saved:  99.9806%.
MG BCs: Charge after coarse-graining:           -9.0009364.
MG DL_MG: Calling solver with defect correction order = 8
MG DL_MG: Solver finished
MG Hartree energy from (\int phi*rho dr):              1208.794164
MG Hartree energy from (\int eps (grad phi)^2 dr):     1208.596720
MG Discrepancy due to finite box and discretization:     -0.197444 (  -0.01633%)
MG Correction to account for finite box:                  0.006371
MG Remaining discrepancy, due to discretization:         -0.191073 (  -0.01581%)

================================================================================
           ---------------- ENERGY COMPONENTS (Eh) ----------------
           | Kinetic                    :     8528.81711730394454 |
           | Pseudo. (local,OBC,corr'd) :    -5049.68185226177684 |
           | Pseudopotential (non-local):     1403.83016880700279 |
           | Hartree (molecular)        :     1208.79416374704056 |
           | Exchange-correlation       :    -3358.04513969545724 |
           | Ion-ion (open BC)          :   828394.04252341494430 |
           | Dispersion Correction      :       -3.27432075081114 |
           | Smeared ion non-self corr. :  -828345.76245157106314 |
           | Smeared ion self corr.     :   -14457.16956389741972 |
           | Solvent cavitation energy  :        2.30063942539359 |
           | Solute-solvent dis-rep en. :       -1.65398719890109 |
           | Total                      :   -11677.80270267712876 |
           --------------------------------------------------------
           ------ LOCAL ENERGY COMPONENTS FROM MATRIX TRACES ------
           | Pseudopotential (local)    :    -5049.68185226177047 |
           | Hartree                    :    -1991.84188467008948 |
           --------------------------------------------------------
           Integrated density           :     7191.99999999811371
           Integrated density tr(KS)    :     7191.99999999999909
================================================================================


                        <<<<< CALCULATION SUMMARY >>>>>                         
|ITER|    RMS GRADIENT   |     TOTAL ENERGY    |   step   |     Epredicted              
   0     0.00004094834622 -11677.73950951220468   0.612589 -11677.79417454001123        
   1     0.00001013204741 -11677.80213398369960   0.086372 -11677.80260586619625        
   2     0.00000449403924 -11677.80268224061001   0.015948 -11677.80269938174752        
   3     0.00000201884024 -11677.80270183784887   0.003267 -11677.80270254641800        
   4     0.00000089938518 -11677.80270267708693  <-- CG                                 

=================== Finished the calculation in solvent ========================
= Adjusting the following parameters: 
= read_denskern: F
= read_tightbox_ngwfs: F
= maxit_pen: 0 (restored to user-specified value)
= restart read filename prefix: ""
= restart write filename prefix: ""
================================================================================

================================================================================
IS: Calculation in solvent completed (NGWFs converged).      

Individual components of total energy in solvent:     hartree           kcal/mol
- Usual non-electrostatic DFT terms:    -12887.24351865062090    -8086867.227066
- Electrostatic fixed charge energy:      1208.79416374704056      758529.773487
- Apolar cavitation energy:                  2.30063942539359        1443.673005
- Apolar dispersion-repulsion energy:       -1.65398719890109       -1037.892615
 -------------------------------------------------------------------------------
- Total energy in solvent:              -11677.80270267708693    -7327931.673189

Components of total energy in solvent:                hartree           kcal/mol
- Usual non-electrostatic DFT terms:    -12887.24351865062090    -8086867.227066
- Electrostatic energy:                   1208.79416374704056      758529.773487
- Apolar energy terms:                       0.64665222649250         405.780390
 -------------------------------------------------------------------------------
- Total energy in solvent:              -11677.80270267708693    -7327931.673189

Calculation of free energy of solvation:              hartree           kcal/mol
- Total energy in solvent:         (+)  -11677.80270267708693    -7327931.673189
- Total energy in vacuum:          (-)  -11673.92648349620868    -7325499.308983
 -------------------------------------------------------------------------------
- Total free energy of solvation:           -3.87621918087825       -2432.364207

Components of polar term in f.e. of solvation:        hartree           kcal/mol
- Electrostatic:                            -4.68909862884971       -2942.453751
- Change in nonelectrostatic DFT terms:      0.16622722147804         104.309154
 -------------------------------------------------------------------------------
- Polar term in f.e. of solvation:          -4.52287140737167       -2838.144597

Components of free energy of solvation:               hartree           kcal/mol
- Polar term in f.e. of solvation: (+)      -4.52287140737167       -2838.144597
- Apolar (cavitation, dis., rep.): (+)       0.64665222649250         405.780390
 -------------------------------------------------------------------------------
- Total free energy of solvation:           -3.87621918087916       -2432.364207
================================================================================


------------------------------ TIMING INFORMATION ------------------------------
AVERAGE TIME:   28864.133s on     40 node(s)                                    
TOTAL TIME:     28864.134s on     40 node(s)                                    
================= AVERAGE TIMINGS FROM ALL NODES (CUMULATIVE) ==================
|| TAG                                    #calls    cpu time   %total  Gflops ||
|| work_imbalance                       :     1        0.00s   0.000%  ------ ||
|| parallel_prepare_fd_halos_request    :  2067        0.02s   0.000%  ------ ||
|| sparse_set_to_garbage                :   188        0.04s   0.000%  ------ ||
|| parallel_prepare_fd_halos_satisfy    :  2067        0.06s   0.000%  ------ ||
|| ngwfs_initialise_from_radial         :     1        0.15s   0.001%  ------ ||
|| parallel_prepare_fd_halos_alloc      :  2067        0.19s   0.001%  ------ ||
|| basis_extract_function_from_box      :  5691        0.23s   0.001%  ------ ||
|| restart_ngwfs_tightbox_input         :     1        1.17s   0.004%  ------ ||
|| pseudopotentials_nonlocal_mat        :    32        1.47s   0.005%  ------ ||
|| parallel_prepare_fd_halos_comms_imbal:  2067        3.72s   0.013%  ------ ||
|| openbc_locps_radial                  :     1        4.52s   0.016%  ------ ||
|| density_init_guess_real              :     1        5.52s   0.019%  ------ ||
|| restart_kernel_read                  :     1        8.79s   0.030%  ------ ||
|| parallel_prepare_fd_halos_clear      :  2067       15.10s   0.052%  ------ ||
|| restart_kernel_write                 :    18       17.50s   0.061%  ------ ||
|| sparse_init                          :     2       23.00s   0.080%  ------ ||
|| projectors_func_ovlp_box             :    32       25.77s   0.089%  ------ ||
|| parallel_prepare_fd_halos_comms_wait :  2067       26.04s   0.090%  ------ ||
|| projectors_init_fftbox_recip         :   219       28.28s   0.098%  ------ ||
|| function_ops_brappd_ketppd           :    32       34.43s   0.119%  ------ ||
|| palser_mano_kernel_optimise          :     1       40.90s   0.142%  ------ ||
|| parallel_prepare_fd_halos            :  2067       45.15s   0.156%  ------ ||
|| pseudo_make_structure_factor         :     2       54.90s   0.190%  ------ ||
|| fourier_apply_box_pair               :  8141       56.57s   0.196% 555.476 ||
|| basis_copy_function_to_box           : 92533       58.09s   0.201%  ------ ||
|| ngwf_gradient_coeffs                 :    17       69.06s   0.239%  ------ ||
|| restart_ngwfs_tightbox_output        :    15       95.66s   0.331%  ------ ||
|| sparse_embed_hotelling_invert_embed  :    32      103.26s   0.358%  ------ ||
|| finite_difference_derivative         :  2067      110.78s   0.384%  ------ ||
|| integrals_kinetic                    :    32      188.22s   0.652%  ------ ||
|| openbc_locps_on_grid                 :     2      198.33s   0.687%  ------ ||
|| projectors_gradient_batch            :   187      225.73s   0.782%  ------ ||
|| fourier_apply_cell_backward          :  1379      242.03s   0.839%  77.557 ||
|| fourier_apply_cell_forward           :  1377      244.22s   0.846%  76.748 ||
|| sparse_trace                         :  5416      276.06s   0.956%  ------ ||
|| basis_dot_function_with_box          : 14.14M     333.23s   1.154%  ------ ||
|| kernel_purify                        :   526      378.65s   1.312%  ------ ||
|| hamiltonian_energy_components        :     4      436.73s   1.513%  ------ ||
|| xc_energy_potential                  :   344      565.60s   1.960%  ------ ||
|| basis_add_function_to_box            : 29.53M     626.72s   2.171%  ------ ||
|| lnv_gradient_norm                    :   170      629.13s   2.180%  ------ ||
|| kernel_fix                           :   170      654.99s   2.269%  ------ ||
|| ngwf_gradient_build_batch            :   187      814.91s   2.823%  ------ ||
|| cell_grid_deposit_box_real           : 58040      940.10s   3.257%  ------ ||
|| integrals_locpot_mat_els_batch       :  1969     1070.91s   3.710%  ------ ||
|| cell_grid_extract_box_real           : 54143     1075.97s   3.728%  ------ ||
|| ngwf_gradient_batch                  :   187     1135.36s   3.933%  ------ ||
|| ngwf_gradient_lnv                    :    17     1307.57s   4.530%  ------ ||
|| density_batch_row_sums               :  3773     1401.81s   4.857%  ------ ||
|| density_fftbox_deposit_to_cell       : 55909     1639.96s   5.682%  ------ ||
|| sparse_product                       :  6923     2328.77s   8.068%  ------ ||
|| multigrid_prepare_bound_cond         :   344     2628.53s   9.107%  ------ ||
|| potential_apply_to_ngwf_batch        :  1969     3553.18s  12.310%  ------ ||
|| density_fftbox_interpolate_multiply  : 55909     3856.24s  13.360%  ------ ||
|| fourier_apply_box                    : 193.0k    3860.89s  13.376% 935.661 ||
|| integrals_locpot_dbl_grid            :   179     4643.47s  16.087%  ------ ||
|| density_batch_interp_deposit         :  3773     6240.69s  21.621%  ------ ||
|| dl_mg_solver_calls                   :   344     7298.38s  25.285%  ------ ||
|| density_on_dbl_grid                  :   343     8125.06s  28.149%  ------ ||
|| multigrid_calculate_hartree          :   344    10083.11s  34.933%  ------ ||
|| hamiltonian_lhxc_calculate           :   339    18790.71s  65.101%  ------ ||
|| lnv_denskernel_optimise_cg           :    17    24863.11s  86.138%  ------ ||
|| ngwf_cg_optimise                     :     2    28046.16s  97.166%  ------ ||
|| total_time                           :     1    28864.13s 100.000%  ------ ||
================================================================================
Overhead of generating timer report: 
- 0 ms averaging over threads,
- 5 ms ensuring consistency across MPI ranks,
- 2 ms printing in order.

Job completed: 21-05-2020 13:59 (+0100)

