 +---------------------------------------------------------------+
 |                                                               |
 |        ####### #     # ####### ####### ####### ######         |
 |        #     # ##    # #          #    #       #     #        |
 |        #     # # #   # #          #    #       #     #        |
 |        #     # #  #  # #####      #    #####   ######         |
 |        #     # #   # # #          #    #       #              |
 |        #     # #    ## #          #    #       #              |
 |        ####### #     # #######    #    ####### #              |
 |                                                               |
 |        Linear-Scaling Ab Initio Total Energy Program          |
 |                                                               |
 |          Release for academic collaborators of ODG            |
 |                                             Version 5.3.2.6.  |
 |                                                               |
 +---------------------------------------------------------------+
 |                                                               |
 |  Authors:                                                     |
 |  Jacek Dziedzic, Peter D. Haynes, Nicholas D. M. Hine,        |
 |  Arash. A. Mostofi, Mike C. Payne and Chris-Kriton Skylaris   |
 |                                                               |
 |  Contributors:                                                |
 |  J. Aarons, L. Andrinopoulos, P. W. Avraam, R. A. Bell,       |
 |  A. Bhandari, G. A. Bramley, R. J. Charlton, S. J. Clark,     |
 |  R. J. Clements, G. C. Constantinescu, F. Corsetti,           |
 |  N. Corsini, O. Dieguez, S. M. M. Dubois, K. K. B. Duff,      |
 |  J. M. Escartin, A. Greco, H. Helal, Q. O. Hill, L. P. Lee,   |
 |  J.-H. Li, E. B. Linscott, G. Moynihan, D. D. O`Regan,        |
 |  O. K. Okan, M. J. S. Phipps, C. J. Pickard,                  |
 |  J. C. A. Prentice, M. I. J. Probert, L. E. Ratcliff,         |
 |  M. Robinson, A. Ruiz Serrano, J. S. Spencer, E. W. Tait,     |
 |  G. Teobaldi, D. Turban, V. Vitale, K. A. Wilkinson,          |
 |  C. Weber, J. C. Womack, N. Yeung and T. J. Zuehlsdorff       |
 |                                                               |
 |                                   Copyright (c) 2004-2019     |
 |                                                               |
 |  Please cite:                                                 |
 |  "Introducing ONETEP: Linear-scaling density functional       |
 |   simulations on parallel computers".                         |
 |   C.-K. Skylaris, P. D. Haynes, A. A. Mostofi, M. C. Payne.   |
 |   J. Chem. Phys. 122 084119 (2005).                           |
 |                                                               |
 |          in all publications arising from your use of ONETEP. |
 |                                                               |
 +---------------------------------------------------------------+
 |                                                               |
 |   ONETEP is based on developments described in the following  |
 |   publications:                                               |
 |                                                               |
 |  "Nonorthogonal generalized Wannier function pseudopotential  |
 |   plane-wave method".                                         |
 |   C.-K. Skylaris, A. A. Mostofi, P. D. Haynes, O. Dieguez,    |
 |   M. C. Payne.                                                |
 |   Phys. Rev. B 66 035119 (2002).                              |
 |                                                               |
 |  "Preconditioned iterative minimization for linear-scaling    |
 |   electronic structure calculations".                         |
 |   A. A. Mostofi, P. D. Haynes, C.-K. Skylaris, M. C. Payne.   |
 |   J. Chem. Phys. 119(17), pp.8842-8848 (2003).                |
 |                                                               |
 |  "Total-energy calculations on a real space grid with         |
 |   localized functions and a plane-wave basis".                |
 |   A. A. Mostofi, C.-K. Skylaris, P. D. Haynes, M. C. Payne.   |
 |   Comput. Phys. Commun. 147, pp.788-802 (2002).               |
 |                                                               |
 |  "Accurate kinetic energy evaluation in electronic structure  |
 |   calculations with localized functions on real space grids"  |
 |   C.-K. Skylaris, A. A. Mostofi, P. D. Haynes, C. J. Pickard, |
 |   M. C. Payne.                                                |
 |   Comput. Phys. Commun. 140, pp.315-322 (2001).               |
 |                                                               |
 |  "Accurate ionic forces and geometry optimization in linear-  |
 |   scaling density-functional theory with local orbitals"      |
 |   N. D. M. Hine, M. Robinson, P. D. Haynes, C.-K. Skylaris,   |
 |   M. C. Payne, and A. A. Mostofi.                             |
 |   Phys. Rev. B 83 195102 (2011).                              |
 |                                                               |
 +---------------------------------------------------------------+

Job started: 23-01-2020 01:34 (-0000)
 
Reading parameters from file "host_28601.dat" ...... done

If your calculation crashes here, before "Checking processes and threads..."
is displayed, then your stack size is insufficient.
If so, use "ulimit -s unlimited" at runtime.
You can disable this check with "check_stack_size F".

Checking processes and threads...
   Determining the default number of threads...
      No default threads set at compilation time: defaulting to 1.
      OpenMP library call suggests 4 threads.
      Hybrid MPI-OpenMP compilation detected.
      Number of MPI processes > 1.
      OMP_NUM_THREADS environment variable present and
      its value matches the one obtained from the OpenMP library call.
      Using this value as default.
      Default threads: 4
      Default applies to threads_max and threads_num_fftboxes.
      Settings in the input file override this default.
   ... done

   Running with 60 MPI processes.
   There are 6 MPI processes running on the same node as the root process.
   Each MPI process is using: 
               1 threads for simulation cell FFTs.
               1 threads for parallel FFT box operations.
               4 threads for loops over batched FFT box operations.
               4 threads in other parallel regions.
... done

Basic input checks...... done

Reading geometry and species blocks from file "host_28601.dat" ...
  <species_atomic_set> block not found: NGWF initialisation set to SOLVE
IS: Dielectric excluded regions:
    - NONE.
    
  Number of PPD points along a3 set to 1.  This is 
  the default value, it may have been provided also in the input file.
... done
 Writing xyz coordinates to file "host_28601.xyz" ... done


--------------------------------------------------------------------------------
---------------------------------- INPUT FILE ----------------------------------
--------------------------------------------------------------------------------

cutoff_energy       : 800 eV                                                    
xc_functional PBE                                                               
task SINGLEPOINT                                                                
write_xyz true                                                                  
output_detail VERBOSE                                                           
ngwf_threshold_orig : 0.000002                                                  
kernel_cutoff       : 1000                                                      
k_zero              : 3.5                                                       
elec_cg_max 0                                                                   
occ_mix 1.0                                                                     
dispersion 1                                                                    
maxit_ngwf_cg 40                                                                
minit_lnv 10                                                                    
maxit_lnv 10                                                                    
write_denskern T                                                                
write_tightbox_ngwfs T                                                          
charge 9                                                                        
is_implicit_solvent T                                                           
is_auto_solvation T                                                             
is_include_apolar T                                                             
is_smeared_ion_rep T                                                            
is_solvent_surf_tension 4.7624E-5 Ha/bohr**2                                    
is_apolar_scaling_factor 0.281075                                               
is_solvation_beta 1.3                                                           
is_density_threshold 0.00035                                                    
is_bulk_permittivity 78.54                                                      
is_dielectric_model fix_initial                                                 
is_smeared_ion_width 0.8                                                        
mg_defco_fd_order 8                                                             
is_bc_coarseness 10                                                             
is_bc_surface_coarseness 1                                                      
fine_grid_scale 2.0                                                             
%block species                                                                  
N   N   7 4 8.0                                                                 
H   H   1 1 8.0                                                                 
C   C   6 4 8.0                                                                 
S   S  16 9 8.0                                                                 
O   O   8 4 8.0                                                                 
%endblock species                                                               
%block species_pot                                                              
N   N_00.recpot                                                                 
H   H_04.recpot                                                                 
C   C_01.recpot                                                                 
S   S_00.recpot                                                                 
O   O_02.recpot                                                                 
%endblock species_pot                                                           
%block lattice_cart                                                             
139.252   0.000   0.000                                                         
0.000 142.425   0.000                                                           
0.000   0.000   162.84                                                          
%endblock lattice_cart                                                          
%block positions_abs                                                            
     Hash =  -000004158795318970732325
%endblock positions_abs                                                         

--------------------------------------------------------------------------------
-------------------------------- END INPUT FILE --------------------------------
--------------------------------------------------------------------------------


 
 ESDF WARNING(1): "kernelcutoff" (esdf_physical) has no units. Assume "bohr".
 ESDF WARNING(2): "kzero" (esdf_physical) has no units. Assume "1/bohr".
 ESDF WARNING(3
 ): "issmearedionwidth" (esdf_physical) has no units. Assume "bohr".
<<<<<<<<<<<<<<<<<<<<<<<<<<<<<<<<< Full system >>>>>>>>>>>>>>>>>>>>>>>>>>>>>>>>>>
<<<<<<<<<<<<<<<<<<<<<<<<< Pseudopotential information >>>>>>>>>>>>>>>>>>>>>>>>>>
File: N_00.recpot [ 2001 points up to Gmax=  52.9 (1/bohr)]
  Atomic number:  7;  ionic charge:  5.000000
    Shell 1: l = 0; rc = 1.48 bohr
File: H_04.recpot [ 2001 points up to Gmax=  52.9 (1/bohr)]
  Atomic number:  1;  ionic charge:  1.000000
    Local potential
File: C_01.recpot [ 2001 points up to Gmax=  52.9 (1/bohr)]
  Atomic number:  6;  ionic charge:  4.000000
    Shell 1: l = 0; rc = 1.48 bohr
File: S_00.recpot [ 2001 points up to Gmax=  52.9 (1/bohr)]
  Atomic number: 16;  ionic charge:  6.000000
    Shell 1: l = 0; rc = 1.90 bohr
    Shell 2: l = 2; rc = 1.84 bohr
File: O_02.recpot [ 2001 points up to Gmax=  52.9 (1/bohr)]
  Atomic number:  8;  ionic charge:  6.000000
    Shell 1: l = 0; rc = 1.31 bohr
<<<<<<<<<<<<<<<<<<<<<<<<<<<<<<<<<<<<<<<<>>>>>>>>>>>>>>>>>>>>>>>>>>>>>>>>>>>>>>>>

-------------------------- Atom counting information ---------------------------
Symbol    Natoms    Nngwfs    Nprojs
  N        236       944       236
  H       1311      1311         0
  C        810      3240       810
  S          6        54        36
  O        239       956       239
.......   ......    ......    ......
Totals:   2602      6505      1321
--------------------------------------------------------------------------------

=============================== PSINC grid sizes ===============================
                      Simulation cell:  275 x 280 x 320
                              FFT-box:   99 x  99 x  99
                                  PPD:    5 x   5 x   1
Grid space d1=  0.506370909091a0 (KE cutoff=  29.62556Eh = 806.15239eV)
Grid space d2=  0.508660714286a0 (KE cutoff=  29.35943Eh = 798.91072eV)
Grid space d3=  0.508875000000a0 (KE cutoff=  29.33471Eh = 798.23802eV)
================================================================================

********************* Fourier parallelisation information **********************
       Coarse grid (whole simulation cell) dimensions:    275   280   320
          Real-space ('12') slabs/node (min max mean):      5     6     5
         Recip-space ('23') slabs/node (min max mean):      2     3     2
********************************************************************************

********************* Fourier parallelisation information **********************
       Double grid (whole simulation cell) dimensions:    550   560   640
          Real-space ('12') slabs/node (min max mean):     10    11    10
         Recip-space ('23') slabs/node (min max mean):      4     5     4
********************************************************************************
ONETEP fine grid is 550 x 560 x 640 gridpoints, 139.2520 x 142.4250 x 162.8400 bohr.
FD multigrid is     545 x 553 x 633 gridpoints, 137.9861 x 140.6447 x 161.0589 bohr.


Calculating local pseudopotential in open BC on a radial grid ...
Discrepancy between calculated realspace psloc and -Z/x on [5a0,257.280a0]:
max |rel. diff| # avg |rel. diff| #  avg rel. diff #  f # pseudopotential file
 0.000256370913    0.000003612608   0.000000072509   55  'N_00.recpot'
 0.000395389207    0.000016224277  -0.000000076597   55  'H_04.recpot'
 0.000377360759    0.000017565724   0.000000149252   55  'C_01.recpot'
 0.000469715301    0.000020587835   0.000000455518   55  'S_00.recpot'
 0.000665442002    0.000026079317   0.000000158685   55  'O_02.recpot'
... done

Atom SCF Calculation for N  : Z (AE atom) =   7 : Z (PS atom) =   5
Config String:
Orbitals (num,occ):  2     2.00 3.00
Orbitals   (num,l):  2        0    1
Real-space Grid (nr,dr,rmax): 1203    0.0066555740    8.0000000000
Spherical Bessel Basis (nsws,lmax,cutoff):   47    1  176.3951722778
Confining potential (l,width,scale):  0    3.0000000000  100.0000000000
Confining potential (l,width,scale):  1    3.0000000000  100.0000000000
  1         -4.7312375307   -3.4155304497    7.0523828109   -1.9351020946
  2         -9.7309464766   -2.0532547791    8.2966052865   -2.2494486027
  3         -9.6627394379   -2.1124926340    8.2327997121   -2.2369778124
  4         -9.6814993499   -2.1215521045    8.2229805960   -2.2365178421
  5         -9.6843326483   -2.1250939529    8.2191374534   -2.2362718126
  6         -9.6859628709   -2.1267894855    8.2172963573   -2.2362066344
  7         -9.6867347035   -2.1276425665    8.2163697352   -2.2361903369
  8         -9.6870802100   -2.1280764625    8.2158983890   -2.2361891460
  9         -9.6872290423   -2.1282977424    8.2156580222   -2.2361920435
 10         -9.6872901988   -2.1284107021    8.2155353368   -2.2361953393
 11         -9.6873135296   -2.1284684031    8.2154726809   -2.2361979819
 12         -9.6873212476   -2.1284978948    8.2154406648   -2.2361998431
 13         -9.6873229586   -2.1285129774    8.2154242957   -2.2362010676
 14         -9.6873226456   -2.1285206957    8.2154159216   -2.2362018403
 15         -9.6873218534   -2.1285246479    8.2154116349   -2.2362023142
 16         -9.6873212599   -2.1285262679    8.2154098784   -2.2362025420
 17         -9.6873207834   -2.1285272564    8.2154088068   -2.2362026955
 18         -9.6873204210   -2.1285278596    8.2154081529   -2.2362027982
 19         -9.6873201550   -2.1285282280    8.2154077538   -2.2362028667
 20         -9.6873199645   -2.1285284529    8.2154075102   -2.2362029121
 21         -9.6873198305   -2.1285285903    8.2154073614   -2.2362029421
 22         -9.6873197377   -2.1285286742    8.2154072705   -2.2362029618
Atom SCF converged after  22 iterations to a total energy of     -9.68731974

Atom SCF Calculation for H  : Z (AE atom) =   1 : Z (PS atom) =   1
Config String:
Orbitals (num,occ):  1     1.00
Orbitals   (num,l):  1        0
Real-space Grid (nr,dr,rmax): 1203    0.0066555740    8.0000000000
Spherical Bessel Basis (nsws,lmax,cutoff):   47    0  176.3951722778
Confining potential (l,width,scale):  0    3.0000000000  100.0000000000
  1         -0.3194257691   -0.2393854593    0.2820953124   -0.2424203209
  2         -0.3951823392   -0.2377116493    0.2886404059   -0.2475147891
  3         -0.4317044583   -0.2352244387    0.2921333887   -0.2514046172
  4         -0.4470703708   -0.2341892222    0.2934391879   -0.2531009782
  5         -0.4532132900   -0.2338556667    0.2938388426   -0.2537313520
  6         -0.4556579251   -0.2337612552    0.2939448584   -0.2539550462
  7         -0.4566418315   -0.2337377355    0.2939680120   -0.2540342273
  8         -0.4570437922   -0.2337331116    0.2939708287   -0.2540627372
  9         -0.4572102946   -0.2337328328    0.2939698291   -0.2540732650
 10         -0.4572800424   -0.2337332404    0.2939687193   -0.2540772588
 11         -0.4573095100   -0.2337335791    0.2939680317   -0.2540788122
 12         -0.4573220379   -0.2337337762    0.2939676699   -0.2540794294
 13         -0.4573273880   -0.2337338775    0.2939674931   -0.2540796787
 14         -0.4573296803   -0.2337339266    0.2939674099   -0.2540797808
 15         -0.4573306647   -0.2337339495    0.2939673718   -0.2540798230
 16         -0.4573310882   -0.2337339601    0.2939673545   -0.2540798406
 17         -0.4573312706   -0.2337339649    0.2939673467   -0.2540798479
 18         -0.4573313493   -0.2337339670    0.2939673433   -0.2540798510
Atom SCF converged after  18 iterations to a total energy of     -0.45733135

Atom SCF Calculation for C  : Z (AE atom) =   6 : Z (PS atom) =   4
Config String:
Orbitals (num,occ):  2     2.00 2.00
Orbitals   (num,l):  2        0    1
Real-space Grid (nr,dr,rmax): 1203    0.0066555740    8.0000000000
Spherical Bessel Basis (nsws,lmax,cutoff):   47    1  176.3951722778
Confining potential (l,width,scale):  0    3.0000000000  100.0000000000
Confining potential (l,width,scale):  1    3.0000000000  100.0000000000
  1         -5.2976922011   -1.3069684169    4.5135249990   -1.4493313817
  2         -5.3721716256   -1.3429755895    4.4750154450   -1.4361613026
  3         -5.3809959565   -1.3617365618    4.4541655428   -1.4305930207
  4         -5.3918938866   -1.3667928461    4.4484735100   -1.4294652294
  5         -5.3956096428   -1.3688539142    4.4461376126   -1.4290734646
  6         -5.3968271862   -1.3696852393    4.4451910874   -1.4289366866
  7         -5.3972028401   -1.3700178062    4.4448112275   -1.4288900460
  8         -5.3973067903   -1.3701500158    4.4446598370   -1.4288749220
  9         -5.3973286940   -1.3702023868    4.4445997329   -1.4288704293
 10         -5.3973289850   -1.3702230869    4.4445759233   -1.4288693188
 11         -5.3973254264   -1.3702312560    4.4445665049   -1.4288691775
 12         -5.3973224003   -1.3702344755    4.4445627836   -1.4288692549
 13         -5.3973208708   -1.3702354890    4.4445616088   -1.4288693270
 14         -5.3973198783   -1.3702360102    4.4445610034   -1.4288693814
 15         -5.3973192535   -1.3702362780    4.4445606917   -1.4288694190
 16         -5.3973188684   -1.3702364155    4.4445605313   -1.4288694437
 17         -5.3973186349   -1.3702364860    4.4445604489   -1.4288694595
 18         -5.3973184951   -1.3702365221    4.4445604065   -1.4288694693
 19         -5.3973184122   -1.3702365405    4.4445603848   -1.4288694753
Atom SCF converged after  19 iterations to a total energy of     -5.39731841

Atom SCF Calculation for S  : Z (AE atom) =  16 : Z (PS atom) =   6
Config String:
Orbitals (num,occ):  3     2.00 4.00 0.00
Orbitals   (num,l):  3        0    1    2
Real-space Grid (nr,dr,rmax): 1203    0.0066555740    8.0000000000
Spherical Bessel Basis (nsws,lmax,cutoff):   47    2  176.3951722778
Confining potential (l,width,scale):  0    3.0000000000  100.0000000000
Confining potential (l,width,scale):  1    3.0000000000  100.0000000000
Confining potential (l,width,scale):  2    3.0000000000  100.0000000000
  1        -12.4735062396   -1.0328741412   10.1554312477   -2.4512393157
  2         -9.9458301913   -2.4607392455    8.3041325857   -2.0306994528
  3        -10.1450417646   -2.2931184565    8.4831893826   -2.0812538287
  4        -10.1528335592   -2.2733105793    8.5050388867   -2.0896035179
  5        -10.1571940363   -2.2633716629    8.5160794258   -2.0939370707
  6        -10.1594380571   -2.2584938667    8.5215163935   -2.0961289008
  7        -10.1605856507   -2.2561081821    8.5241804044   -2.0972291378
  8        -10.1611799191   -2.2549395235    8.5254868240   -2.0977806248
  9        -10.1614918752   -2.2543658586    8.5261285885   -2.0980571586
 10        -10.1616572884   -2.2540839121    8.5264441898   -2.0981959233
 11        -10.1617455602   -2.2539453058    8.5265994231   -2.0982656006
 12        -10.1617928447   -2.2538772062    8.5266757320   -2.0983006047
 13        -10.1618182292   -2.2538437891    8.5267131983   -2.0983181961
 14        -10.1618318741   -2.2538274201    8.5267315620   -2.0983270391
 15        -10.1618392144   -2.2538194197    8.5267405433   -2.0983314852
 16        -10.1618431651   -2.2538155200    8.5267449245   -2.0983337210
 17        -10.1618452923   -2.2538136252    8.5267470551   -2.0983348455
 18        -10.1618464380   -2.2538127080    8.5267480875   -2.0983354110
 19        -10.1618470552   -2.2538122659    8.5267485856   -2.0983356955
 20        -10.1618473878   -2.2538120540    8.5267488248   -2.0983358386
 21        -10.1618475670   -2.2538119530    8.5267489389   -2.0983359106
 22        -10.1618476637   -2.2538119053    8.5267489929   -2.0983359468
Atom SCF converged after  22 iterations to a total energy of    -10.16184766

Atom SCF Calculation for O  : Z (AE atom) =   8 : Z (PS atom) =   6
Config String:
Orbitals (num,occ):  2     2.00 4.00
Orbitals   (num,l):  2        0    1
Real-space Grid (nr,dr,rmax): 1203    0.0066555740    8.0000000000
Spherical Bessel Basis (nsws,lmax,cutoff):   47    1  176.3951722778
Confining potential (l,width,scale):  0    3.0000000000  100.0000000000
Confining potential (l,width,scale):  1    3.0000000000  100.0000000000
  1         -1.8735052164   -7.5539365035   10.1554312477   -2.4512393157
  2        -16.0318313751   -3.1285771268   13.6395848164   -3.2358799643
  3        -15.9524020423   -3.0762819706   13.6967272503   -3.2536856837
  4        -15.8521515939   -3.0781493909   13.6951909330   -3.2561700440
  5        -15.8357139793   -3.0748501933   13.6988803334   -3.2580493133
  6        -15.8246052853   -3.0740779781   13.6997881576   -3.2588327446
  7        -15.8189019501   -3.0737449687   13.7001869911   -3.2592378801
  8        -15.8159785510   -3.0736026016   13.7003615168   -3.2594475790
  9        -15.8144776168   -3.0735437994   13.7004360379   -3.2595560735
 10        -15.8137058024   -3.0735207882   13.7004667348   -3.2596122456
 11        -15.8133083127   -3.0735125946   13.7004786868   -3.2596413656
 12        -15.8131032938   -3.0735102195   13.7004828997   -3.2596564858
 13        -15.8129973902   -3.0735099286   13.7004840891   -3.2596643505
 14        -15.8129426040   -3.0735102506   13.7004842061   -3.2596684489
 15        -15.8129142203   -3.0735106556   13.7004840157   -3.2596705887
 16        -15.8128994940   -3.0735109855   13.7004837906   -3.2596717080
 17        -15.8128918425   -3.0735112169   13.7004836103   -3.2596722946
 18        -15.8128878614   -3.0735113674   13.7004834848   -3.2596726026
 19        -15.8128857871   -3.0735114608   13.7004834035   -3.2596727646
 20        -15.8128847048   -3.0735115170   13.7004833533   -3.2596728500
 21        -15.8128841394   -3.0735115501   13.7004833231   -3.2596728951
 22        -15.8128838436   -3.0735115693   13.7004833054   -3.2596729190
 23        -15.8128836887   -3.0735115802   13.7004832951   -3.2596729316
 24        -15.8128836074   -3.0735115864   13.7004832893   -3.2596729383
Atom SCF converged after  24 iterations to a total energy of    -15.81288361

========================== Calculation in vacuum ==============================
= Adjusting the following parameters: 
= is_implicit_solvent: F
= is_include_apolar: F
= write_denskern: T
= write_tightbox_ngwfs: T
= restart read filename prefix: ""
= restart write filename prefix: "vacuum_"
===============================================================================

Determining parallel strategy ...
... using space-filling curve
... NGWF load balancing: max    109;  min    108;  average    108
... Projector load balancing: max     25;  min     21;  average     22
... done
Calculating direct Ion-Ion energy ...
Ion-Ion Energy        :    821889.54322396079078
======================= Empirical dispersion information =======================
Model : Elstner
Dispersion Correction Energy: -0.32538295E+01 Hartree
================================================================================
Basis initialisation ...... NGWF spheres initialised
... Projector spheres initialised
... NGWF tight boxes initialised
... Tight-boxes gathered
... NGWF basis size (local,global):    1378604  82727891
... Nonlocal pseudopotential projector initialisation
... done

========================== Sparse matrix information ===========================
                        Overlap matrix filling:   6.71%
                        Density kernel filling: 100.00%
              NGWF-Proj overlap matrix filling:   1.77%
                    Hamiltonian matrix filling:   7.58%
                  NGWF diagonal matrix filling:   0.05%
                             KS matrix filling: 100.00% 
                           KSKS matrix filling: 100.00% 
================================================================================

Sparse matrix initialisation ... done

Generating smeared ion density ... done
Smeared ion self correction:     -14457.169564
Smeared ion non-self correction: -821841.501280
NGWF initialisation ...... done
============ Calculation of NGWF S^-1 using Hotelling algorithm ================ 
         Iteration  |  Frobenius norm and Maximum abs value    (of I-S*S_n^-1)   
               1       0.78515284E+02     0.98275930E+00
               2       0.76688888E+02     0.96596591E+00
               3       0.73721735E+02     0.93364193E+00
               4       0.69487506E+02     0.87394756E+00
               5       0.64196989E+02     0.77190690E+00
               6       0.58238260E+02     0.70250133E+00
               7       0.52229925E+02     0.67040979E+00
               8       0.46676341E+02     0.64461638E+00
               9       0.40643687E+02     0.60559224E+00
              10       0.32437225E+02     0.53864481E+00
              11       0.21896074E+02     0.42927590E+00
              12       0.11251608E+02     0.27846245E+00
              13       0.37298732E+01     0.12381448E+00
              14       0.59062815E+00     0.29471452E-01
              15       0.28474429E-01     0.25356243E-02
              16       0.16869828E-03     0.21457694E-04
              17       0.97591845E-08     0.15963111E-08
              18       0.95200848E-13     0.49960036E-14
================================================================================
Calculating local pseudopotential in open BC on the fine real space grid ...
... done

MG BCs: +ve charge blocks (gridpoints):     20074 (   15765298).
MG BCs: -ve charge blocks (gridpoints):      7839 (    1056112).
MG BCs:     Elided blocks (gridpoints):    177046 (  173955295).
MG BCs: Computational effort saved:  99.9854%.
MG BCs: Charge after coarse-graining:           -9.0002229.
MG DL_MG: Calling solver with defect correction order = 8
MG DL_MG: Solver finished
MG Hartree energy from (\int phi*rho dr):              1462.618230
MG Hartree energy from (\int eps (grad phi)^2 dr):     1461.995224
MG Discrepancy due to finite box and discretization:     -0.623006 (  -0.04260%)
MG Correction to account for finite box:                  0.463378
MG Remaining discrepancy, due to discretization:         -0.159628 (  -0.01091%)
Up spin density kernel initialisation ... 
======= Optimisation of K by Palser-Manolopoulos canonical purification ======== 
         Iteration  |  Band structure energy |    c_n   
               1       -2575.43950290709745    0.5267137
               2       -2751.03020448879124    0.5168793
               3       -2930.87469581337200    0.5151539
               4       -3080.91434316862342    0.5283639
               5       -3173.10713229465637    0.5638248
               6       -3211.58733229285144    0.6086970
               7       -3224.60130007168027    0.6206028
               8       -3230.21928302324204    0.6185423
               9       -3232.94158269507443    0.6317732
              10       -3234.06717994516839    0.6541082
              11       -3234.50612920746153    0.6727839
              12       -3234.69221491818371    0.6776627
              13       -3234.78125796687482    0.6431585
              14       -3234.83368367314142    0.5583766
              15       -3234.86752967401389    0.4465868
              16       -3234.87781817421001    0.3989833
              17       -3234.87892188475598    0.4157306
              18       -3234.87981066876273    0.4319147
              19       -3234.88042446212376    0.4481144
              20       -3234.88073521391470    0.4794791
              21       -3234.88091854838285    0.4977518
              22       -3234.88105560964868    0.4999747
              23       -3234.88113163578873    0.5000000
              24       -3234.88114777436203    0.5000000
              25       -3234.88114833533291    0.5000038
              26       -3234.88114833597183    0.5000038
Termination criterion satisfied: band energy change below threshold.
Final occupancy bounds: [    0.00000000000000:    1.00000000000000]
Closest occupancy to 0.5:     1.00000000000000
================================================================================
... done

Writing density kernel to file "host_28601.vacuum_dkn" ... done

>>> Optimising kernel for current NGWFs:
   Initial electron number for spin 1:    7192.00000000
     Final electron number for spin 1:    7192.00000000

=================== Penalty functional idempotency correction ==================
 RMS occupancy error at iteration   1:  0.000000 (step -0.5000 Ne1=   7192.0000)
            Final RMS occupancy error   :  0.000000 (Ne1=   7192.0000)
               Final occupancy bounds   : [ -0.0000,  1.0000]
================================================================================

................................................................................
<<<<<<<<<<<<<< LNV (Original version) density kernel optimisation >>>>>>>>>>>>>>
~~~~~~~~~~~~~~~~~~~~~~~~~~~~~~~~~~~~~~~~~~~~~~~~~~~~~~~~~~~~~~~~~~~~~~~~~~~~~~~~
   iter  |      energy (Eh)       | rms gradient |  commutator  |   dE (Eh)
MG BCs: +ve charge blocks (gridpoints):     30465 (   16971704).
MG BCs: -ve charge blocks (gridpoints):      8162 (    1089227).
MG BCs:     Elided blocks (gridpoints):    166647 (  172715774).
MG BCs: Computational effort saved:  99.9798%.
MG BCs: Charge after coarse-graining:           -9.0009444.
MG DL_MG: Calling solver with defect correction order = 8
MG DL_MG: Solver finished
MG Hartree energy from (\int phi*rho dr):              1418.478870
MG Hartree energy from (\int eps (grad phi)^2 dr):     1417.795115
MG Discrepancy due to finite box and discretization:     -0.683756 (  -0.04820%)
MG Correction to account for finite box:                  0.479457
MG Remaining discrepancy, due to discretization:         -0.204299 (  -0.01440%)
      ideal mu1:      -0.698497826275
             Q0:  -11505.050634208485
             G0:    -143.089409219604
   RMS gradient:       0.001838892936
MG BCs: +ve charge blocks (gridpoints):     30495 (   17055768).
MG BCs: -ve charge blocks (gridpoints):      8081 (    1069510).
MG BCs:     Elided blocks (gridpoints):    166614 (  172651427).
MG BCs: Computational effort saved:  99.9798%.
MG BCs: Charge after coarse-graining:           -9.0009638.
MG DL_MG: Calling solver with defect correction order = 8
MG DL_MG: Solver finished
MG Hartree energy from (\int phi*rho dr):              1443.851133
MG Hartree energy from (\int eps (grad phi)^2 dr):     1443.184164
MG Discrepancy due to finite box and discretization:     -0.666969 (  -0.04619%)
MG Correction to account for finite box:                  0.479110
MG Remaining discrepancy, due to discretization:         -0.187859 (  -0.01301%)
     Trial step:       0.500000000000
             Q1:  -11516.462156399037
 Quadratic coef:      60.133182419249
 Linear coef   :     -71.544704609802
           Qmin:  -11526.331084335074
Quadratic minimum step length (  0.297442700234) accepted
    Initial Ne1:    7192.00000000
      Final Ne1:    7192.00000000

=================== Penalty functional idempotency correction ==================
 RMS occupancy error at iteration   1:  0.003360 (step -0.4886 Ne1=   7192.0000)
 RMS occupancy error at iteration   2:  0.000026 (step -0.5001 Ne1=   7192.0000)
            Final RMS occupancy error   :  0.000000 (Ne1=   7192.0000)
               Final occupancy bounds   : [  0.0000,  1.0000]
================================================================================

    1        -1.150505063421E+04     1.8389E-03     1.6632E-03
MG BCs: +ve charge blocks (gridpoints):     30489 (   17023158).
MG BCs: -ve charge blocks (gridpoints):      8108 (    1077649).
MG BCs:     Elided blocks (gridpoints):    166620 (  172675898).
MG BCs: Computational effort saved:  99.9798%.
MG BCs: Charge after coarse-graining:           -9.0009563.
MG DL_MG: Calling solver with defect correction order = 8
MG DL_MG: Solver finished
MG Hartree energy from (\int phi*rho dr):              1425.740916
MG Hartree energy from (\int eps (grad phi)^2 dr):     1425.068138
MG Discrepancy due to finite box and discretization:     -0.672778 (  -0.04719%)
MG Correction to account for finite box:                  0.479129
MG Remaining discrepancy, due to discretization:         -0.193649 (  -0.01358%)
      ideal mu1:      -0.741953550287
             Q0:  -11526.720240216586
             G0:     -11.975579205999
   RMS gradient:       0.000528483925
MG BCs: +ve charge blocks (gridpoints):     30488 (   17040347).
MG BCs: -ve charge blocks (gridpoints):      8091 (    1072679).
MG BCs:     Elided blocks (gridpoints):    166621 (  172663679).
MG BCs: Computational effort saved:  99.9798%.
MG BCs: Charge after coarse-graining:           -9.0009595.
MG DL_MG: Calling solver with defect correction order = 8
MG DL_MG: Solver finished
MG Hartree energy from (\int phi*rho dr):              1430.901975
MG Hartree energy from (\int eps (grad phi)^2 dr):     1430.233305
MG Discrepancy due to finite box and discretization:     -0.668670 (  -0.04673%)
MG Correction to account for finite box:                  0.478329
MG Remaining discrepancy, due to discretization:         -0.190341 (  -0.01330%)
     Trial step:       0.385644071803
             Q1:  -11529.521942159627
 Quadratic coef:       1.816609184163
 Linear coef   :      -4.618311127205
           Qmin:  -11529.655488735310
Quadratic minimum step length (  0.490205687463) accepted
    Initial Ne1:    7191.99990560
      Final Ne1:    7192.00000000

=================== Penalty functional idempotency correction ==================
 RMS occupancy error at iteration   1:  0.001769 (step -0.4933 Ne1=   7192.0000)
 RMS occupancy error at iteration   2:  0.000011 (step -0.5001 Ne1=   7192.0000)
            Final RMS occupancy error   :  0.000000 (Ne1=   7192.0000)
               Final occupancy bounds   : [  0.0000,  1.0000]
================================================================================

    2        -1.152672024022E+04     5.2848E-04     4.7800E-04    -2.1670E+01
MG BCs: +ve charge blocks (gridpoints):     30493 (   17045172).
MG BCs: -ve charge blocks (gridpoints):      8092 (    1071309).
MG BCs:     Elided blocks (gridpoints):    166616 (  172660224).
MG BCs: Computational effort saved:  99.9798%.
MG BCs: Charge after coarse-graining:           -9.0009603.
MG DL_MG: Calling solver with defect correction order = 8
MG DL_MG: Solver finished
MG Hartree energy from (\int phi*rho dr):              1432.349529
MG Hartree energy from (\int eps (grad phi)^2 dr):     1431.681883
MG Discrepancy due to finite box and discretization:     -0.667646 (  -0.04661%)
MG Correction to account for finite box:                  0.478125
MG Remaining discrepancy, due to discretization:         -0.189521 (  -0.01323%)
      ideal mu1:      -0.766521232250
             Q0:  -11529.691191964550
             G0:      -1.922191031428
   RMS gradient:       0.000211806225
MG BCs: +ve charge blocks (gridpoints):     30491 (   17044823).
MG BCs: -ve charge blocks (gridpoints):      8092 (    1072160).
MG BCs:     Elided blocks (gridpoints):    166618 (  172659722).
MG BCs: Computational effort saved:  99.9798%.
MG BCs: Charge after coarse-graining:           -9.0009599.
MG DL_MG: Calling solver with defect correction order = 8
MG DL_MG: Solver finished
MG Hartree energy from (\int phi*rho dr):              1430.121692
MG Hartree energy from (\int eps (grad phi)^2 dr):     1429.454696
MG Discrepancy due to finite box and discretization:     -0.666996 (  -0.04664%)
MG Correction to account for finite box:                  0.477708
MG Remaining discrepancy, due to discretization:         -0.189289 (  -0.01324%)
     Trial step:       0.434792959159
             Q1:  -11530.181724363705
 Quadratic coef:       0.345222727468
 Linear coef   :      -0.835755126624
           Qmin:  -11530.197015144850
Quadratic minimum step length (  0.526298554128) accepted
    Initial Ne1:    7191.99994179
      Final Ne1:    7192.00000000

=================== Penalty functional idempotency correction ==================
 RMS occupancy error at iteration   1:  0.000631 (step -0.4971 Ne1=   7192.0000)
 RMS occupancy error at iteration   2:  0.000003 (step -0.5000 Ne1=   7192.0000)
            Final RMS occupancy error   :  0.000000 (Ne1=   7192.0000)
               Final occupancy bounds   : [  0.0000,  1.0000]
================================================================================

    3        -1.152969119196E+04     2.1181E-04     1.9157E-04    -2.9710E+00
MG BCs: +ve charge blocks (gridpoints):     30491 (   17044691).
MG BCs: -ve charge blocks (gridpoints):      8095 (    1072366).
MG BCs:     Elided blocks (gridpoints):    166618 (  172659648).
MG BCs: Computational effort saved:  99.9798%.
MG BCs: Charge after coarse-graining:           -9.0009599.
MG DL_MG: Calling solver with defect correction order = 8
MG DL_MG: Solver finished
MG Hartree energy from (\int phi*rho dr):              1429.662367
MG Hartree energy from (\int eps (grad phi)^2 dr):     1428.995496
MG Discrepancy due to finite box and discretization:     -0.666871 (  -0.04665%)
MG Correction to account for finite box:                  0.477621
MG Remaining discrepancy, due to discretization:         -0.189250 (  -0.01324%)
      ideal mu1:      -0.767475679556
             Q0:  -11530.201697961311
             G0:      -0.494527648884
   RMS gradient:       0.000107558106
MG BCs: +ve charge blocks (gridpoints):     30495 (   17045671).
MG BCs: -ve charge blocks (gridpoints):      8095 (    1072248).
MG BCs:     Elided blocks (gridpoints):    166614 (  172658786).
MG BCs: Computational effort saved:  99.9798%.
MG BCs: Charge after coarse-graining:           -9.0009600.
MG DL_MG: Calling solver with defect correction order = 8
MG DL_MG: Solver finished
MG Hartree energy from (\int phi*rho dr):              1430.950525
MG Hartree energy from (\int eps (grad phi)^2 dr):     1430.283854
MG Discrepancy due to finite box and discretization:     -0.666671 (  -0.04659%)
MG Correction to account for finite box:                  0.477307
MG Remaining discrepancy, due to discretization:         -0.189364 (  -0.01323%)
     Trial step:       0.478362734492
             Q1:  -11530.323654983891
 Quadratic coef:       0.114606575822
 Linear coef   :      -0.236563598402
           Qmin:  -11530.323772841586
Quadratic minimum step length (  0.493702952911) accepted
    Initial Ne1:    7191.99998597
      Final Ne1:    7192.00000000

=================== Penalty functional idempotency correction ==================
 RMS occupancy error at iteration   1:  0.000268 (step -0.4966 Ne1=   7192.0000)
 RMS occupancy error at iteration   2:  0.000002 (step -0.5000 Ne1=   7192.0000)
            Final RMS occupancy error   :  0.000000 (Ne1=   7192.0000)
               Final occupancy bounds   : [  0.0000,  1.0000]
================================================================================

    4        -1.153020169796E+04     1.0756E-04     9.7284E-05    -5.1051E-01
MG BCs: +ve charge blocks (gridpoints):     30495 (   17045722).
MG BCs: -ve charge blocks (gridpoints):      8095 (    1072243).
MG BCs:     Elided blocks (gridpoints):    166614 (  172658740).
MG BCs: Computational effort saved:  99.9798%.
MG BCs: Charge after coarse-graining:           -9.0009600.
MG DL_MG: Calling solver with defect correction order = 8
MG DL_MG: Solver finished
MG Hartree energy from (\int phi*rho dr):              1430.992341
MG Hartree energy from (\int eps (grad phi)^2 dr):     1430.325676
MG Discrepancy due to finite box and discretization:     -0.666665 (  -0.04659%)
MG Correction to account for finite box:                  0.477297
MG Remaining discrepancy, due to discretization:         -0.189368 (  -0.01323%)
      ideal mu1:      -0.768194379037
             Q0:  -11530.324370754417
             G0:      -0.174493936756
   RMS gradient:       0.000064064076
MG BCs: +ve charge blocks (gridpoints):     30495 (   17045918).
MG BCs: -ve charge blocks (gridpoints):      8093 (    1072026).
MG BCs:     Elided blocks (gridpoints):    166614 (  172658761).
MG BCs: Computational effort saved:  99.9798%.
MG BCs: Charge after coarse-graining:           -9.0009599.
MG DL_MG: Calling solver with defect correction order = 8
MG DL_MG: Solver finished
MG Hartree energy from (\int phi*rho dr):              1431.375389
MG Hartree energy from (\int eps (grad phi)^2 dr):     1430.708660
MG Discrepancy due to finite box and discretization:     -0.666730 (  -0.04658%)
MG Correction to account for finite box:                  0.477205
MG Remaining discrepancy, due to discretization:         -0.189525 (  -0.01324%)
     Trial step:       0.485972318740
             Q1:  -11530.378795484430
 Quadratic coef:       0.030374493039
 Linear coef   :      -0.084799223052
           Qmin:  -11530.383556172104
Quadratic minimum step length (  0.678366466908) accepted
    Initial Ne1:    7191.99999320
      Final Ne1:    7192.00000000

=================== Penalty functional idempotency correction ==================
 RMS occupancy error at iteration   1:  0.000363 (step -0.4812 Ne1=   7192.0000)
 RMS occupancy error at iteration   2:  0.000007 (step -0.5001 Ne1=   7192.0000)
            Final RMS occupancy error   :  0.000000 (Ne1=   7192.0000)
               Final occupancy bounds   : [  0.0000,  1.0000]
================================================================================

    5        -1.153032437075E+04     6.4064E-05     5.7944E-05    -1.2267E-01
MG BCs: +ve charge blocks (gridpoints):     30490 (   17045946).
MG BCs: -ve charge blocks (gridpoints):      8091 (    1071951).
MG BCs:     Elided blocks (gridpoints):    166619 (  172658808).
MG BCs: Computational effort saved:  99.9798%.
MG BCs: Charge after coarse-graining:           -9.0009599.
MG DL_MG: Calling solver with defect correction order = 8
MG DL_MG: Solver finished
MG Hartree energy from (\int phi*rho dr):              1431.525705
MG Hartree energy from (\int eps (grad phi)^2 dr):     1430.858950
MG Discrepancy due to finite box and discretization:     -0.666754 (  -0.04658%)
MG Correction to account for finite box:                  0.477168
MG Remaining discrepancy, due to discretization:         -0.189587 (  -0.01324%)
      ideal mu1:      -0.768016512254
             Q0:  -11530.383307920070
             G0:      -0.145385377657
   RMS gradient:       0.000058803622
MG BCs: +ve charge blocks (gridpoints):     30492 (   17045356).
MG BCs: -ve charge blocks (gridpoints):      8093 (    1072292).
MG BCs:     Elided blocks (gridpoints):    166617 (  172659057).
MG BCs: Computational effort saved:  99.9798%.
MG BCs: Charge after coarse-graining:           -9.0009597.
MG DL_MG: Calling solver with defect correction order = 8
MG DL_MG: Solver finished
MG Hartree energy from (\int phi*rho dr):              1430.320777
MG Hartree energy from (\int eps (grad phi)^2 dr):     1429.654114
MG Discrepancy due to finite box and discretization:     -0.666662 (  -0.04661%)
MG Correction to account for finite box:                  0.477091
MG Remaining discrepancy, due to discretization:         -0.189571 (  -0.01325%)
     Trial step:       0.574166635114
             Q1:  -11530.449025589740
 Quadratic coef:       0.017757763415
 Linear coef   :      -0.083475433084
           Qmin:  -11530.481407942098
Quadratic minimum step length (  1.349517036822) accepted
    Initial Ne1:    7191.99995286
      Final Ne1:    7192.00000000

=================== Penalty functional idempotency correction ==================
 RMS occupancy error at iteration   1:  0.003302 (step -0.3432 Ne1=   7192.0000)
 RMS occupancy error at iteration   2:  0.000254 (step -0.4902 Ne1=   7192.0000)
 RMS occupancy error at iteration   3:  0.000004 (step -0.5000 Ne1=   7192.0000)
            Final RMS occupancy error   :  0.000000 (Ne1=   7192.0000)
               Final occupancy bounds   : [  0.0000,  1.0000]
================================================================================

    6        -1.153038330792E+04     5.8804E-05     5.3187E-05    -5.8937E-02
MG BCs: +ve charge blocks (gridpoints):     30493 (   17044488).
MG BCs: -ve charge blocks (gridpoints):      8097 (    1072805).
MG BCs:     Elided blocks (gridpoints):    166616 (  172659412).
MG BCs: Computational effort saved:  99.9798%.
MG BCs: Charge after coarse-graining:           -9.0009594.
MG DL_MG: Calling solver with defect correction order = 8
MG DL_MG: Solver finished
MG Hartree energy from (\int phi*rho dr):              1428.693344
MG Hartree energy from (\int eps (grad phi)^2 dr):     1428.026808
MG Discrepancy due to finite box and discretization:     -0.666536 (  -0.04665%)
MG Correction to account for finite box:                  0.476988
MG Remaining discrepancy, due to discretization:         -0.189549 (  -0.01327%)
      ideal mu1:      -0.767690911633
             Q0:  -11530.458778682165
             G0:      -0.330967629543
   RMS gradient:       0.000088439333
MG BCs: +ve charge blocks (gridpoints):     30494 (   17047347).
MG BCs: -ve charge blocks (gridpoints):      8091 (    1071139).
MG BCs:     Elided blocks (gridpoints):    166615 (  172658219).
MG BCs: Computational effort saved:  99.9798%.
MG BCs: Charge after coarse-graining:           -9.0009605.
MG DL_MG: Calling solver with defect correction order = 8
MG DL_MG: Solver finished
MG Hartree energy from (\int phi*rho dr):              1432.867702
MG Hartree energy from (\int eps (grad phi)^2 dr):     1432.201411
MG Discrepancy due to finite box and discretization:     -0.666291 (  -0.04650%)
MG Correction to account for finite box:                  0.476886
MG Remaining discrepancy, due to discretization:         -0.189405 (  -0.01322%)
     Trial step:       0.880254313288
             Q1:  -11530.535778944031
 Quadratic coef:       0.214335421597
 Linear coef   :      -0.291335683464
           Qmin:  -11530.557778278016
Quadratic minimum step length (  0.598243374970) accepted
    Initial Ne1:    7191.99999838
      Final Ne1:    7192.00000000

=================== Penalty functional idempotency correction ==================
 RMS occupancy error at iteration   1:  0.000166 (step -0.4893 Ne1=   7192.0000)
 RMS occupancy error at iteration   2:  0.000001 (step -0.5000 Ne1=   7192.0000)
            Final RMS occupancy error   :  0.000000 (Ne1=   7192.0000)
               Final occupancy bounds   : [  0.0000,  1.0000]
================================================================================

    7        -1.153045877868E+04     8.8439E-05     7.9991E-05    -7.5471E-02
MG BCs: +ve charge blocks (gridpoints):     30495 (   17046399).
MG BCs: -ve charge blocks (gridpoints):      8095 (    1071732).
MG BCs:     Elided blocks (gridpoints):    166614 (  172658574).
MG BCs: Computational effort saved:  99.9798%.
MG BCs: Charge after coarse-graining:           -9.0009601.
MG DL_MG: Calling solver with defect correction order = 8
MG DL_MG: Solver finished
MG Hartree energy from (\int phi*rho dr):              1431.523630
MG Hartree energy from (\int eps (grad phi)^2 dr):     1430.857262
MG Discrepancy due to finite box and discretization:     -0.666368 (  -0.04655%)
MG Correction to account for finite box:                  0.476919
MG Remaining discrepancy, due to discretization:         -0.189449 (  -0.01323%)
      ideal mu1:      -0.769155145910
             Q0:  -11530.558018178679
             G0:      -0.228822357073
   RMS gradient:       0.000073445851
MG BCs: +ve charge blocks (gridpoints):     30491 (   17046570).
MG BCs: -ve charge blocks (gridpoints):      8093 (    1071668).
MG BCs:     Elided blocks (gridpoints):    166618 (  172658467).
MG BCs: Computational effort saved:  99.9798%.
MG BCs: Charge after coarse-graining:           -9.0009602.
MG DL_MG: Calling solver with defect correction order = 8
MG DL_MG: Solver finished
MG Hartree energy from (\int phi*rho dr):              1431.428874
MG Hartree energy from (\int eps (grad phi)^2 dr):     1430.762639
MG Discrepancy due to finite box and discretization:     -0.666236 (  -0.04654%)
MG Correction to account for finite box:                  0.476975
MG Remaining discrepancy, due to discretization:         -0.189261 (  -0.01322%)
     Trial step:       0.725676450778
             Q1:  -11530.660282632336
 Quadratic coef:       0.063786542281
 Linear coef   :      -0.166050995939
           Qmin:  -11530.666085383242
Quadratic minimum step length (  0.944551100211) accepted
    Initial Ne1:    7191.99999805
      Final Ne1:    7192.00000000

=================== Penalty functional idempotency correction ==================
 RMS occupancy error at iteration   1:  0.001638 (step -0.4112 Ne1=   7192.0000)
 RMS occupancy error at iteration   2:  0.000065 (step -0.4974 Ne1=   7192.0000)
 RMS occupancy error at iteration   3:  0.000000 (step -0.5000 Ne1=   7192.0000)
            Final RMS occupancy error   :  0.000000 (Ne1=   7192.0000)
               Final occupancy bounds   : [  0.0000,  1.0000]
================================================================================

    8        -1.153055801818E+04     7.3446E-05     6.6430E-05    -9.9239E-02
MG BCs: +ve charge blocks (gridpoints):     30490 (   17046513).
MG BCs: -ve charge blocks (gridpoints):      8090 (    1071664).
MG BCs:     Elided blocks (gridpoints):    166619 (  172658528).
MG BCs: Computational effort saved:  99.9798%.
MG BCs: Charge after coarse-graining:           -9.0009603.
MG DL_MG: Calling solver with defect correction order = 8
MG DL_MG: Solver finished
MG Hartree energy from (\int phi*rho dr):              1431.405232
MG Hartree energy from (\int eps (grad phi)^2 dr):     1430.739034
MG Discrepancy due to finite box and discretization:     -0.666198 (  -0.04654%)
MG Correction to account for finite box:                  0.476992
MG Remaining discrepancy, due to discretization:         -0.189206 (  -0.01322%)
      ideal mu1:      -0.768881085439
             Q0:  -11530.663006684161
             G0:      -0.281705609433
   RMS gradient:       0.000082607479
MG BCs: +ve charge blocks (gridpoints):     30492 (   17045440).
MG BCs: -ve charge blocks (gridpoints):      8096 (    1072343).
MG BCs:     Elided blocks (gridpoints):    166617 (  172658922).
MG BCs: Computational effort saved:  99.9798%.
MG BCs: Charge after coarse-graining:           -9.0009600.
MG DL_MG: Calling solver with defect correction order = 8
MG DL_MG: Solver finished
MG Hartree energy from (\int phi*rho dr):              1429.580025
MG Hartree energy from (\int eps (grad phi)^2 dr):     1428.913854
MG Discrepancy due to finite box and discretization:     -0.666171 (  -0.04660%)
MG Correction to account for finite box:                  0.477097
MG Remaining discrepancy, due to discretization:         -0.189074 (  -0.01323%)
     Trial step:       0.827912126967
             Q1:  -11530.734225927503
 Quadratic coef:       0.162008246942
 Linear coef   :      -0.233227490284
           Qmin:  -11530.746945408348
Quadratic minimum step length (  0.595932217012) accepted
    Initial Ne1:    7191.99999844
      Final Ne1:    7192.00000000

=================== Penalty functional idempotency correction ==================
 RMS occupancy error at iteration   1:  0.003599 (step -0.3449 Ne1=   7192.0000)
 RMS occupancy error at iteration   2:  0.000207 (step -0.4924 Ne1=   7192.0000)
 RMS occupancy error at iteration   3:  0.000004 (step -0.5000 Ne1=   7192.0000)
            Final RMS occupancy error   :  0.000000 (Ne1=   7192.0000)
               Final occupancy bounds   : [  0.0000,  1.0000]
================================================================================

    9        -1.153066300668E+04     8.2607E-05     7.4717E-05    -1.0499E-01
MG BCs: +ve charge blocks (gridpoints):     30491 (   17045784).
MG BCs: -ve charge blocks (gridpoints):      8091 (    1072126).
MG BCs:     Elided blocks (gridpoints):    166618 (  172658795).
MG BCs: Computational effort saved:  99.9798%.
MG BCs: Charge after coarse-graining:           -9.0009601.
MG DL_MG: Calling solver with defect correction order = 8
MG DL_MG: Solver finished
MG Hartree energy from (\int phi*rho dr):              1430.081019
MG Hartree energy from (\int eps (grad phi)^2 dr):     1429.414832
MG Discrepancy due to finite box and discretization:     -0.666188 (  -0.04658%)
MG Correction to account for finite box:                  0.477088
MG Remaining discrepancy, due to discretization:         -0.189099 (  -0.01322%)
      ideal mu1:      -0.768060173247
   10        -1.153075579066E+04     6.7617E-05     6.1158E-05    -9.2784E-02
Finished density kernel iterations (  10)

Writing density kernel to file "host_28601.vacuum_dkn" ... done


>>> Density kernel optimised for the current NGWF basis:
     ~~~~~~~~~~~~~~~~~~~~~~~~~~~~~~~~~~~~~~~~~~~~~~~~~~~~~~~~~~~
     Total energy                =  -1.15307557906640E+04  Eh
     Estimated bandgap           =  -4.2091E-01  Eh
     RMS occupancy error         =   1.9129E-09
     [H,K] commutator            =   6.1158E-05
     Occupancy bounds            = [  0.000:  1.000]
     ~~~~~~~~~~~~~~~~~~~~~~~~~~~~~~~~~~~~~~~~~~~~~~~~~~~~~~~~~~~




################################################################################
########################### NGWF CG iteration  001 #############################
################################################################################
****** Reciprocal space K.E. preconditioning with k_zero =  3.5000 a0^-1 *******

>>> Checking for convergence of NGWFs:   NOT CONVERGED
  ========================================================================
         NGWF RMS gradient =  1.6339E-03 >  2.0000E-06  | above tolerance
  ========================================================================

>>> Improving NGWFs using line search:
============ Calculation of NGWF S^-1 using Hotelling algorithm ================ 
         Iteration  |  Frobenius norm and Maximum abs value    (of I-S*S_n^-1)   
               1       0.20324205E+00     0.55730206E-02
               2       0.96744967E-03     0.44875237E-04
               3       0.38191012E-07     0.30252519E-08
               4       0.12469079E-12     0.51070259E-14
================================================================================
MG BCs: +ve charge blocks (gridpoints):     29990 (   16987549).
MG BCs: -ve charge blocks (gridpoints):      8097 (    1071954).
MG BCs:     Elided blocks (gridpoints):    167122 (  172717202).
MG BCs: Computational effort saved:  99.9800%.
MG BCs: Charge after coarse-graining:           -9.0009642.
MG DL_MG: Calling solver with defect correction order = 8
MG DL_MG: Solver finished
MG Hartree energy from (\int phi*rho dr):              1397.790790
MG Hartree energy from (\int eps (grad phi)^2 dr):     1397.125544
MG Discrepancy due to finite box and discretization:     -0.665246 (  -0.04759%)
MG Correction to account for finite box:                  0.477008
MG Remaining discrepancy, due to discretization:         -0.188239 (  -0.01347%)
============ Calculation of NGWF S^-1 using Hotelling algorithm ================ 
         Iteration  |  Frobenius norm and Maximum abs value    (of I-S*S_n^-1)   
               1       0.18307055E+01     0.43513059E-01
               2       0.69906225E-01     0.23948890E-02
               3       0.14082715E-03     0.86307108E-05
               4       0.10786833E-08     0.12238643E-09
               5       0.10894485E-12     0.53290705E-14
================================================================================
------------------------------- NGWF line search -------------------------------
RMS gradient                =       0.00163391769892
Trial step length           =               0.122474
Gradient along search dir.  =       -284.15687337865
Functional at step 0        =  -11530.75579066399951
Functional at step 1        =  -11562.82446444872767
Functional predicted        =  -11641.53578085163463
Selected quadratic step     =               0.779710
--------------------------- NGWF line search finished --------------------------
                                               
Writing NGWFs to file "host_28601.vacuum_tightbox_ngwfs"....  done

>>> Optimising kernel for current NGWFs:
   Initial electron number for spin 1:    7226.72055018
     Final electron number for spin 1:    7192.00000000

=================== Penalty functional idempotency correction ==================
 RMS occupancy error at iteration   1:  0.004365 (step -0.4852 Ne1=   7192.0000)
 RMS occupancy error at iteration   2:  0.000076 (step -0.5003 Ne1=   7192.0000)
            Final RMS occupancy error   :  0.000000 (Ne1=   7192.0000)
               Final occupancy bounds   : [  0.0000,  1.0000]
================================================================================

................................................................................
<<<<<<<<<<<<<< LNV (Original version) density kernel optimisation >>>>>>>>>>>>>>
~~~~~~~~~~~~~~~~~~~~~~~~~~~~~~~~~~~~~~~~~~~~~~~~~~~~~~~~~~~~~~~~~~~~~~~~~~~~~~~~
   iter  |      energy (Eh)       | rms gradient |  commutator  |   dE (Eh)
MG BCs: +ve charge blocks (gridpoints):     24395 (   16668730).
MG BCs: -ve charge blocks (gridpoints):      8189 (    1055903).
MG BCs:     Elided blocks (gridpoints):    172725 (  173052072).
MG BCs: Computational effort saved:  99.9829%.
MG BCs: Charge after coarse-graining:           -9.0006795.
MG DL_MG: Calling solver with defect correction order = 8
MG DL_MG: Solver finished
MG Hartree energy from (\int phi*rho dr):              1246.166187
MG Hartree energy from (\int eps (grad phi)^2 dr):     1245.500915
MG Discrepancy due to finite box and discretization:     -0.665272 (  -0.05339%)
MG Correction to account for finite box:                  0.476663
MG Remaining discrepancy, due to discretization:         -0.188608 (  -0.01514%)
      ideal mu1:      -0.709394357374
             Q0:  -11640.766306970268
             G0:      -9.687229741916
   RMS gradient:       0.000478467561
MG BCs: +ve charge blocks (gridpoints):     24449 (   16681457).
MG BCs: -ve charge blocks (gridpoints):      8185 (    1052659).
MG BCs:     Elided blocks (gridpoints):    172671 (  173042589).
MG BCs: Computational effort saved:  99.9829%.
MG BCs: Charge after coarse-graining:           -9.0006751.
MG DL_MG: Calling solver with defect correction order = 8
MG DL_MG: Solver finished
MG Hartree energy from (\int phi*rho dr):              1260.890320
MG Hartree energy from (\int eps (grad phi)^2 dr):     1260.220211
MG Discrepancy due to finite box and discretization:     -0.670109 (  -0.05315%)
MG Correction to account for finite box:                  0.475500
MG Remaining discrepancy, due to discretization:         -0.194609 (  -0.01543%)
     Trial step:       0.702409787314
             Q1:  -11640.366519469186
 Quadratic coef:       7.204192483763
 Linear coef   :      -6.804404982680
           Qmin:  -11642.373007765420
Quadratic minimum step length (  0.331715224673) accepted
    Initial Ne1:    7191.99951529
      Final Ne1:    7192.00000000

=================== Penalty functional idempotency correction ==================
 RMS occupancy error at iteration   1:  0.000352 (step -0.4986 Ne1=   7192.0000)
 RMS occupancy error at iteration   2:  0.000000 (step -0.5000 Ne1=   7192.0000)
            Final RMS occupancy error   :  0.000000 (Ne1=   7192.0000)
               Final occupancy bounds   : [  0.0000,  1.0000]
================================================================================

    1        -1.164076630697E+04     4.7847E-04     4.3276E-04
MG BCs: +ve charge blocks (gridpoints):     24428 (   16674919).
MG BCs: -ve charge blocks (gridpoints):      8190 (    1054364).
MG BCs:     Elided blocks (gridpoints):    172692 (  173047422).
MG BCs: Computational effort saved:  99.9829%.
MG BCs: Charge after coarse-graining:           -9.0006773.
MG DL_MG: Calling solver with defect correction order = 8
MG DL_MG: Solver finished
MG Hartree energy from (\int phi*rho dr):              1252.234651
MG Hartree energy from (\int eps (grad phi)^2 dr):     1251.567200
MG Discrepancy due to finite box and discretization:     -0.667451 (  -0.05330%)
MG Correction to account for finite box:                  0.476081
MG Remaining discrepancy, due to discretization:         -0.191370 (  -0.01528%)
      ideal mu1:      -0.716014753825
             Q0:  -11642.349554040353
             G0:      -1.041995944334
   RMS gradient:       0.000157517196
MG BCs: +ve charge blocks (gridpoints):     24432 (   16674076).
MG BCs: -ve charge blocks (gridpoints):      8192 (    1055234).
MG BCs:     Elided blocks (gridpoints):    172688 (  173047395).
MG BCs: Computational effort saved:  99.9829%.
MG BCs: Charge after coarse-graining:           -9.0006772.
MG DL_MG: Calling solver with defect correction order = 8
MG DL_MG: Solver finished
MG Hartree energy from (\int phi*rho dr):              1253.102889
MG Hartree energy from (\int eps (grad phi)^2 dr):     1252.435157
MG Discrepancy due to finite box and discretization:     -0.667733 (  -0.05329%)
MG Correction to account for finite box:                  0.475921
MG Remaining discrepancy, due to discretization:         -0.191811 (  -0.01531%)
     Trial step:       0.482700756589
             Q1:  -11642.574802905088
 Quadratic coef:       0.277723365956
 Linear coef   :      -0.502972230693
           Qmin:  -11642.577281606575
Quadratic minimum step length (  0.437098757360) accepted
    Initial Ne1:    7191.99993077
      Final Ne1:    7192.00000000

=================== Penalty functional idempotency correction ==================
 RMS occupancy error at iteration   1:  0.000165 (step -0.4989 Ne1=   7192.0000)
 RMS occupancy error at iteration   2:  0.000000 (step -0.5000 Ne1=   7192.0000)
            Final RMS occupancy error   :  0.000000 (Ne1=   7192.0000)
               Final occupancy bounds   : [  0.0000,  1.0000]
================================================================================

    2        -1.164234955404E+04     1.5752E-04     1.4247E-04    -1.5832E+00
MG BCs: +ve charge blocks (gridpoints):     24432 (   16674166).
MG BCs: -ve charge blocks (gridpoints):      8192 (    1055153).
MG BCs:     Elided blocks (gridpoints):    172688 (  173047386).
MG BCs: Computational effort saved:  99.9829%.
MG BCs: Charge after coarse-graining:           -9.0006772.
MG DL_MG: Calling solver with defect correction order = 8
MG DL_MG: Solver finished
MG Hartree energy from (\int phi*rho dr):              1253.020862
MG Hartree energy from (\int eps (grad phi)^2 dr):     1252.353157
MG Discrepancy due to finite box and discretization:     -0.667705 (  -0.05329%)
MG Correction to account for finite box:                  0.475937
MG Remaining discrepancy, due to discretization:         -0.191768 (  -0.01530%)
      ideal mu1:      -0.716706164009
             Q0:  -11642.577777215629
             G0:      -0.184084062631
   RMS gradient:       0.000065885516
MG BCs: +ve charge blocks (gridpoints):     24430 (   16673313).
MG BCs: -ve charge blocks (gridpoints):      8195 (    1055595).
MG BCs:     Elided blocks (gridpoints):    172690 (  173047797).
MG BCs: Computational effort saved:  99.9829%.
MG BCs: Charge after coarse-graining:           -9.0006773.
MG DL_MG: Calling solver with defect correction order = 8
MG DL_MG: Solver finished
MG Hartree energy from (\int phi*rho dr):              1252.427170
MG Hartree energy from (\int eps (grad phi)^2 dr):     1251.759633
MG Discrepancy due to finite box and discretization:     -0.667537 (  -0.05330%)
MG Correction to account for finite box:                  0.475787
MG Remaining discrepancy, due to discretization:         -0.191750 (  -0.01531%)
     Trial step:       0.459334193025
             Q1:  -11642.636744833319
 Quadratic coef:       0.025588486667
 Linear coef   :      -0.084556104357
           Qmin:  -11642.647630260057
Quadratic minimum step length (  0.758925497726) accepted
    Initial Ne1:    7191.99997896
      Final Ne1:    7192.00000000

=================== Penalty functional idempotency correction ==================
 RMS occupancy error at iteration   1:  0.000224 (step -0.4892 Ne1=   7192.0000)
 RMS occupancy error at iteration   2:  0.000002 (step -0.5000 Ne1=   7192.0000)
            Final RMS occupancy error   :  0.000000 (Ne1=   7192.0000)
               Final occupancy bounds   : [  0.0000,  1.0000]
================================================================================

    3        -1.164257777722E+04     6.5886E-05     5.9592E-05    -2.2822E-01
MG BCs: +ve charge blocks (gridpoints):     24431 (   16672829).
MG BCs: -ve charge blocks (gridpoints):      8198 (    1055879).
MG BCs:     Elided blocks (gridpoints):    172689 (  173047997).
MG BCs: Computational effort saved:  99.9829%.
MG BCs: Charge after coarse-graining:           -9.0006773.
MG DL_MG: Calling solver with defect correction order = 8
MG DL_MG: Solver finished
MG Hartree energy from (\int phi*rho dr):              1252.040145
MG Hartree energy from (\int eps (grad phi)^2 dr):     1251.372719
MG Discrepancy due to finite box and discretization:     -0.667427 (  -0.05331%)
MG Correction to account for finite box:                  0.475687
MG Remaining discrepancy, due to discretization:         -0.191740 (  -0.01531%)
      ideal mu1:      -0.715512177736
             Q0:  -11642.647631100845
             G0:      -0.084331285783
   RMS gradient:       0.000044616415
MG BCs: +ve charge blocks (gridpoints):     24429 (   16672750).
MG BCs: -ve charge blocks (gridpoints):      8199 (    1055853).
MG BCs:     Elided blocks (gridpoints):    172691 (  173048102).
MG BCs: Computational effort saved:  99.9829%.
MG BCs: Charge after coarse-graining:           -9.0006773.
MG DL_MG: Calling solver with defect correction order = 8
MG DL_MG: Solver finished
MG Hartree energy from (\int phi*rho dr):              1252.077111
MG Hartree energy from (\int eps (grad phi)^2 dr):     1251.409969
MG Discrepancy due to finite box and discretization:     -0.667142 (  -0.05328%)
MG Correction to account for finite box:                  0.475551
MG Remaining discrepancy, due to discretization:         -0.191591 (  -0.01530%)
     Trial step:       0.590423941811
             Q1:  -11642.679293642519
 Quadratic coef:       0.018128668495
 Linear coef   :      -0.049791210170
           Qmin:  -11642.681819555046
Quadratic minimum step length (  0.810813066187) accepted
    Initial Ne1:    7191.99998913
      Final Ne1:    7192.00000000

=================== Penalty functional idempotency correction ==================
 RMS occupancy error at iteration   1:  0.000467 (step -0.4730 Ne1=   7192.0000)
 RMS occupancy error at iteration   2:  0.000005 (step -0.5000 Ne1=   7192.0000)
            Final RMS occupancy error   :  0.000000 (Ne1=   7192.0000)
               Final occupancy bounds   : [  0.0000,  1.0000]
================================================================================

    4        -1.164264763110E+04     4.4616E-05     4.0355E-05    -6.9854E-02
MG BCs: +ve charge blocks (gridpoints):     24429 (   16672759).
MG BCs: -ve charge blocks (gridpoints):      8197 (    1055831).
MG BCs:     Elided blocks (gridpoints):    172691 (  173048115).
MG BCs: Computational effort saved:  99.9829%.
MG BCs: Charge after coarse-graining:           -9.0006774.
MG DL_MG: Calling solver with defect correction order = 8
MG DL_MG: Solver finished
MG Hartree energy from (\int phi*rho dr):              1252.093117
MG Hartree energy from (\int eps (grad phi)^2 dr):     1251.426083
MG Discrepancy due to finite box and discretization:     -0.667035 (  -0.05327%)
MG Correction to account for finite box:                  0.475498
MG Remaining discrepancy, due to discretization:         -0.191536 (  -0.01530%)
      ideal mu1:      -0.715769426304
             Q0:  -11642.681744270260
             G0:      -0.087531660622
   RMS gradient:       0.000045390967
MG BCs: +ve charge blocks (gridpoints):     24428 (   16674493).
MG BCs: -ve charge blocks (gridpoints):      8194 (    1055231).
MG BCs:     Elided blocks (gridpoints):    172692 (  173046981).
MG BCs: Computational effort saved:  99.9829%.
MG BCs: Charge after coarse-graining:           -9.0006770.
MG DL_MG: Calling solver with defect correction order = 8
MG DL_MG: Solver finished
MG Hartree energy from (\int phi*rho dr):              1253.155645
MG Hartree energy from (\int eps (grad phi)^2 dr):     1252.489071
MG Discrepancy due to finite box and discretization:     -0.666574 (  -0.05319%)
MG Correction to account for finite box:                  0.475130
MG Remaining discrepancy, due to discretization:         -0.191444 (  -0.01528%)
     Trial step:       0.691898436629
             Q1:  -11642.715943980496
 Quadratic coef:       0.026363308903
 Linear coef   :      -0.060563019140
           Qmin:  -11642.716526316215
Quadratic minimum step length (  0.794730631380) accepted
    Initial Ne1:    7191.99999159
      Final Ne1:    7192.00000000

=================== Penalty functional idempotency correction ==================
 RMS occupancy error at iteration   1:  0.001368 (step -0.4273 Ne1=   7192.0000)
 RMS occupancy error at iteration   2:  0.000035 (step -0.4992 Ne1=   7192.0000)
            Final RMS occupancy error   :  0.000000 (Ne1=   7192.0000)
               Final occupancy bounds   : [ -0.0000,  1.0000]
================================================================================

    5        -1.164268174427E+04     4.5391E-05     4.1055E-05    -3.4113E-02
MG BCs: +ve charge blocks (gridpoints):     24428 (   16674758).
MG BCs: -ve charge blocks (gridpoints):      8193 (    1055140).
MG BCs:     Elided blocks (gridpoints):    172692 (  173046807).
MG BCs: Computational effort saved:  99.9829%.
MG BCs: Charge after coarse-graining:           -9.0006769.
MG DL_MG: Calling solver with defect correction order = 8
MG DL_MG: Solver finished
MG Hartree energy from (\int phi*rho dr):              1253.315183
MG Hartree energy from (\int eps (grad phi)^2 dr):     1252.648671
MG Discrepancy due to finite box and discretization:     -0.666512 (  -0.05318%)
MG Correction to account for finite box:                  0.475081
MG Remaining discrepancy, due to discretization:         -0.191430 (  -0.01527%)
      ideal mu1:      -0.717270726927
             Q0:  -11642.717248032219
             G0:      -0.071014877998
   RMS gradient:       0.000039852163
MG BCs: +ve charge blocks (gridpoints):     24428 (   16674670).
MG BCs: -ve charge blocks (gridpoints):      8195 (    1055308).
MG BCs:     Elided blocks (gridpoints):    172692 (  173046727).
MG BCs: Computational effort saved:  99.9829%.
MG BCs: Charge after coarse-graining:           -9.0006769.
MG DL_MG: Calling solver with defect correction order = 8
MG DL_MG: Solver finished
MG Hartree energy from (\int phi*rho dr):              1252.972686
MG Hartree energy from (\int eps (grad phi)^2 dr):     1252.306525
MG Discrepancy due to finite box and discretization:     -0.666161 (  -0.05317%)
MG Correction to account for finite box:                  0.474691
MG Remaining discrepancy, due to discretization:         -0.191470 (  -0.01528%)
     Trial step:       0.741534140410
             Q1:  -11642.749227392953
 Quadratic coef:       0.020680595779
 Linear coef   :      -0.052659956513
           Qmin:  -11642.750770652283
Quadratic minimum step length (  0.944101320983) accepted
    Initial Ne1:    7192.00055508
      Final Ne1:    7192.00000000

=================== Penalty functional idempotency correction ==================
 RMS occupancy error at iteration   1:  0.002584 (step -0.3796 Ne1=   7192.0000)
 RMS occupancy error at iteration   2:  0.000100 (step -0.4972 Ne1=   7192.0000)
 RMS occupancy error at iteration   3:  0.000001 (step -0.5000 Ne1=   7192.0000)
            Final RMS occupancy error   :  0.000000 (Ne1=   7192.0000)
               Final occupancy bounds   : [  0.0000,  1.0000]
================================================================================

    6        -1.164271724803E+04     3.9852E-05     3.6045E-05    -3.5504E-02
MG BCs: +ve charge blocks (gridpoints):     24429 (   16674647).
MG BCs: -ve charge blocks (gridpoints):      8195 (    1055361).
MG BCs:     Elided blocks (gridpoints):    172691 (  173046697).
MG BCs: Computational effort saved:  99.9829%.
MG BCs: Charge after coarse-graining:           -9.0006769.
MG DL_MG: Calling solver with defect correction order = 8
MG DL_MG: Solver finished
MG Hartree energy from (\int phi*rho dr):              1252.880363
MG Hartree energy from (\int eps (grad phi)^2 dr):     1252.214274
MG Discrepancy due to finite box and discretization:     -0.666088 (  -0.05316%)
MG Correction to account for finite box:                  0.474608
MG Remaining discrepancy, due to discretization:         -0.191480 (  -0.01528%)
      ideal mu1:      -0.717016567284
             Q0:  -11642.753540632897
             G0:      -0.059174685740
   RMS gradient:       0.000037395615
MG BCs: +ve charge blocks (gridpoints):     24429 (   16672919).
MG BCs: -ve charge blocks (gridpoints):      8198 (    1055720).
MG BCs:     Elided blocks (gridpoints):    172691 (  173048066).
MG BCs: Computational effort saved:  99.9829%.
MG BCs: Charge after coarse-graining:           -9.0006773.
MG DL_MG: Calling solver with defect correction order = 8
MG DL_MG: Solver finished
MG Hartree energy from (\int phi*rho dr):              1252.160596
MG Hartree energy from (\int eps (grad phi)^2 dr):     1251.494522
MG Discrepancy due to finite box and discretization:     -0.666074 (  -0.05319%)
MG Correction to account for finite box:                  0.474557
MG Remaining discrepancy, due to discretization:         -0.191517 (  -0.01529%)
     Trial step:       0.836709843085
             Q1:  -11642.771186069585
 Quadratic coef:       0.031866605332
 Linear coef   :      -0.049512042020
           Qmin:  -11642.772772696366
Quadratic minimum step length (  0.650009821855) accepted
    Initial Ne1:    7191.99999994
      Final Ne1:    7192.00000000

=================== Penalty functional idempotency correction ==================
 RMS occupancy error at iteration   1:  0.000044 (step -0.4974 Ne1=   7192.0000)
            Final RMS occupancy error   :  0.000000 (Ne1=   7192.0000)
               Final occupancy bounds   : [ -0.0000,  1.0000]
================================================================================

    7        -1.164275354063E+04     3.7396E-05     3.3823E-05    -3.6293E-02
MG BCs: +ve charge blocks (gridpoints):     24429 (   16673313).
MG BCs: -ve charge blocks (gridpoints):      8196 (    1055636).
MG BCs:     Elided blocks (gridpoints):    172691 (  173047756).
MG BCs: Computational effort saved:  99.9829%.
MG BCs: Charge after coarse-graining:           -9.0006772.
MG DL_MG: Calling solver with defect correction order = 8
MG DL_MG: Solver finished
MG Hartree energy from (\int phi*rho dr):              1252.319851
MG Hartree energy from (\int eps (grad phi)^2 dr):     1251.653772
MG Discrepancy due to finite box and discretization:     -0.666079 (  -0.05319%)
MG Correction to account for finite box:                  0.474571
MG Remaining discrepancy, due to discretization:         -0.191508 (  -0.01529%)
      ideal mu1:      -0.716388371462
             Q0:  -11642.772783490480
             G0:      -0.053354593813
   RMS gradient:       0.000035502295
MG BCs: +ve charge blocks (gridpoints):     24431 (   16673105).
MG BCs: -ve charge blocks (gridpoints):      8197 (    1055678).
MG BCs:     Elided blocks (gridpoints):    172689 (  173047922).
MG BCs: Computational effort saved:  99.9829%.
MG BCs: Charge after coarse-graining:           -9.0006773.
MG DL_MG: Calling solver with defect correction order = 8
MG DL_MG: Solver finished
MG Hartree energy from (\int phi*rho dr):              1252.152667
MG Hartree energy from (\int eps (grad phi)^2 dr):     1251.486751
MG Discrepancy due to finite box and discretization:     -0.665915 (  -0.05318%)
MG Correction to account for finite box:                  0.474328
[...]
MG Correction to account for finite box:                  0.006397
MG Remaining discrepancy, due to discretization:         -0.190964 (  -0.01579%)
     Trial step:       0.308420376778
             Q1:  -11677.789565621060
 Quadratic coef:       0.000000000799
 Linear coef   :      -0.000000000449
           Qmin:  -11677.789565621473
Quadratic minimum step length (  0.086764882514) accepted
    Initial Ne1:    7192.00000000
      Final Ne1:    7192.00000000

=================== Penalty functional idempotency correction ==================
 RMS occupancy error at iteration   1:  0.000000 (step -0.5000 Ne1=   7192.0000)
            Final RMS occupancy error   :  0.000000 (Ne1=   7192.0000)
               Final occupancy bounds   : [ -0.0000,  1.0000]
================================================================================

    7        -1.167778956562E+04     4.2762E-09     3.8678E-09    -1.1642E-10

Reusing previously generated solute cavity.
MG BCs: +ve charge blocks (gridpoints):     28867 (   18878041).
MG BCs: -ve charge blocks (gridpoints):      8198 (    1025364).
MG BCs:     Elided blocks (gridpoints):    168253 (  170873300).
MG BCs: Computational effort saved:  99.9806%.
MG BCs: Charge after coarse-graining:           -9.0009409.
MG DL_MG: Calling solver with defect correction order = 8
MG DL_MG: Solver finished
MG Hartree energy from (\int phi*rho dr):              1209.647483
MG Hartree energy from (\int eps (grad phi)^2 dr):     1209.450122
MG Discrepancy due to finite box and discretization:     -0.197361 (  -0.01632%)
MG Correction to account for finite box:                  0.006397
MG Remaining discrepancy, due to discretization:         -0.190964 (  -0.01579%)
      ideal mu1:      -0.481203468942
             Q0:  -11677.789565621410
             G0:      -0.000000001429
   RMS gradient:       0.000000003640

Reusing previously generated solute cavity.
MG BCs: +ve charge blocks (gridpoints):     28867 (   18878041).
MG BCs: -ve charge blocks (gridpoints):      8198 (    1025364).
MG BCs:     Elided blocks (gridpoints):    168253 (  170873300).
MG BCs: Computational effort saved:  99.9806%.
MG BCs: Charge after coarse-graining:           -9.0009409.
MG DL_MG: Calling solver with defect correction order = 8
MG DL_MG: Solver finished
MG Hartree energy from (\int phi*rho dr):              1209.647470
MG Hartree energy from (\int eps (grad phi)^2 dr):     1209.450109
MG Discrepancy due to finite box and discretization:     -0.197361 (  -0.01632%)
MG Correction to account for finite box:                  0.006397
MG Remaining discrepancy, due to discretization:         -0.190964 (  -0.01579%)
     Trial step:       0.163585016906
             Q1:  -11677.789565621177
 Quadratic coef:       0.000000000467
 Linear coef   :      -0.000000000234
           Qmin:  -11677.789565621439
Quadratic minimum step length (  0.040908763271) accepted
    Initial Ne1:    7192.00000000
      Final Ne1:    7192.00000000

=================== Penalty functional idempotency correction ==================
 RMS occupancy error at iteration   1:  0.000000 (step -0.5000 Ne1=   7192.0000)
            Final RMS occupancy error   :  0.000000 (Ne1=   7192.0000)
               Final occupancy bounds   : [ -0.0000,  1.0000]
================================================================================

    8        -1.167778956562E+04     3.6398E-09     3.2921E-09     0.0000E+00

Reusing previously generated solute cavity.
MG BCs: +ve charge blocks (gridpoints):     28867 (   18878041).
MG BCs: -ve charge blocks (gridpoints):      8198 (    1025364).
MG BCs:     Elided blocks (gridpoints):    168253 (  170873300).
MG BCs: Computational effort saved:  99.9806%.
MG BCs: Charge after coarse-graining:           -9.0009409.
MG DL_MG: Calling solver with defect correction order = 8
MG DL_MG: Solver finished
MG Hartree energy from (\int phi*rho dr):              1209.647480
MG Hartree energy from (\int eps (grad phi)^2 dr):     1209.450119
MG Discrepancy due to finite box and discretization:     -0.197361 (  -0.01632%)
MG Correction to account for finite box:                  0.006397
MG Remaining discrepancy, due to discretization:         -0.190964 (  -0.01579%)
      ideal mu1:      -0.481203465456
             Q0:  -11677.789565621293
             G0:      -0.000000001516
   RMS gradient:       0.000000003302

Reusing previously generated solute cavity.
MG BCs: +ve charge blocks (gridpoints):     28867 (   18878041).
MG BCs: -ve charge blocks (gridpoints):      8198 (    1025364).
MG BCs:     Elided blocks (gridpoints):    168253 (  170873300).
MG BCs: Computational effort saved:  99.9806%.
MG BCs: Charge after coarse-graining:           -9.0009409.
MG DL_MG: Calling solver with defect correction order = 8
MG DL_MG: Solver finished
MG Hartree energy from (\int phi*rho dr):              1209.647472
MG Hartree energy from (\int eps (grad phi)^2 dr):     1209.450111
MG Discrepancy due to finite box and discretization:     -0.197361 (  -0.01632%)
MG Correction to account for finite box:                  0.006397
MG Remaining discrepancy, due to discretization:         -0.190964 (  -0.01579%)
     Trial step:       0.081805016541
             Q1:  -11677.789565621177
 Quadratic coef:       0.000000000240
 Linear coef   :      -0.000000000124
           Qmin:  -11677.789565621310
Quadratic minimum step length (  0.021126465023) accepted
    Initial Ne1:    7192.00000000
      Final Ne1:    7192.00000000

=================== Penalty functional idempotency correction ==================
 RMS occupancy error at iteration   1:  0.000000 (step -0.5000 Ne1=   7192.0000)
            Final RMS occupancy error   :  0.000000 (Ne1=   7192.0000)
               Final occupancy bounds   : [  0.0000,  1.0000]
================================================================================

    9        -1.167778956562E+04     3.3024E-09     2.9869E-09     1.1642E-10

Reusing previously generated solute cavity.
MG BCs: +ve charge blocks (gridpoints):     28867 (   18878041).
MG BCs: -ve charge blocks (gridpoints):      8198 (    1025364).
MG BCs:     Elided blocks (gridpoints):    168253 (  170873300).
MG BCs: Computational effort saved:  99.9806%.
MG BCs: Charge after coarse-graining:           -9.0009409.
MG DL_MG: Calling solver with defect correction order = 8
MG DL_MG: Solver finished
MG Hartree energy from (\int phi*rho dr):              1209.647478
MG Hartree energy from (\int eps (grad phi)^2 dr):     1209.450117
MG Discrepancy due to finite box and discretization:     -0.197361 (  -0.01632%)
MG Correction to account for finite box:                  0.006397
MG Remaining discrepancy, due to discretization:         -0.190964 (  -0.01579%)
      ideal mu1:      -0.481203463250
   10        -1.167778956562E+04     3.1003E-09     2.8041E-09     1.1642E-10
Finished density kernel iterations (  10)

Writing density kernel to file "host_28601.dkn" ... done


>>> Density kernel optimised for the current NGWF basis:
     ~~~~~~~~~~~~~~~~~~~~~~~~~~~~~~~~~~~~~~~~~~~~~~~~~~~~~~~~~~~
     Total energy                =  -1.16777895656212E+04  Eh
     Estimated bandgap           =   8.7577E-02  Eh
     RMS occupancy error         =   3.3116E-16
     [H,K] commutator            =   2.8041E-09
     Occupancy bounds            = [  0.000:  1.000]
     ~~~~~~~~~~~~~~~~~~~~~~~~~~~~~~~~~~~~~~~~~~~~~~~~~~~~~~~~~~~




################################################################################
########################### NGWF CG iteration  005 #############################
################################################################################
****** Reciprocal space K.E. preconditioning with k_zero =  3.5000 a0^-1 *******

>>> Checking for convergence of NGWFs: 
           ........................................................
           |         *** NGWF optimisation converged ***          |
           | RMS NGWF gradient =    0.00000093487837              |
           | Criteria satisfied:                                  |
           | -> RMS NGWF gradient lower than set threshold.       |
           ========================================================

Reusing previously generated solute cavity.
MG BCs: +ve charge blocks (gridpoints):     28867 (   18878041).
MG BCs: -ve charge blocks (gridpoints):      8198 (    1025364).
MG BCs:     Elided blocks (gridpoints):    168253 (  170873300).
MG BCs: Computational effort saved:  99.9806%.
MG BCs: Charge after coarse-graining:           -9.0009409.
MG DL_MG: Calling solver with defect correction order = 8
MG DL_MG: Solver finished
MG Hartree energy from (\int phi*rho dr):              1209.647478
MG Hartree energy from (\int eps (grad phi)^2 dr):     1209.450117
MG Discrepancy due to finite box and discretization:     -0.197361 (  -0.01632%)
MG Correction to account for finite box:                  0.006397
MG Remaining discrepancy, due to discretization:         -0.190964 (  -0.01579%)

================================================================================
           ---------------- ENERGY COMPONENTS (Eh) ----------------
           | Kinetic                    :     8525.47537360977367 |
           | Pseudo. (local,OBC,corr'd) :    -5047.36259306697775 |
           | Pseudopotential (non-local):     1403.42451527313551 |
           | Hartree (molecular)        :     1209.64747802812531 |
           | Exchange-correlation       :    -3357.25045237406403 |
           | Ion-ion (open BC)          :   821889.54322396079078 |
           | Dispersion Correction      :       -3.25382947237609 |
           | Smeared ion non-self corr. :  -821841.50127971195616 |
           | Smeared ion self corr.     :   -14457.16956389741972 |
           | Solvent cavitation energy  :        2.33945398812422 |
           | Solute-solvent dis-rep en. :       -1.68189195841220 |
           | Total                      :   -11677.78956562138956 |
           --------------------------------------------------------
           ------ LOCAL ENERGY COMPONENTS FROM MATRIX TRACES ------
           | Pseudopotential (local)    :    -5047.36259306697684 |
           | Hartree                    :    -1990.76267324579476 |
           --------------------------------------------------------
           Integrated density           :     7191.99999999902775
           Integrated density tr(KS)    :     7192.00000000000000
================================================================================


                        <<<<< CALCULATION SUMMARY >>>>>                         
|ITER|    RMS GRADIENT   |     TOTAL ENERGY    |   step   |     Epredicted              
   0     0.00004174781898 -11677.72310300555546   0.619451 -11677.78055992177542        
   1     0.00000989254516 -11677.78904981713276   0.081852 -11677.78947611475451        
   2     0.00000447869624 -11677.78954549145419   0.015767 -11677.78956232250857        
   3     0.00000205055185 -11677.78956474072766   0.003357 -11677.78956549182840        
   4     0.00000093487837 -11677.78956562117673  <-- CG                                 

=================== Finished the calculation in solvent ========================
= Adjusting the following parameters: 
= read_denskern: F
= read_tightbox_ngwfs: F
= maxit_pen: 0 (restored to user-specified value)
= restart read filename prefix: ""
= restart write filename prefix: ""
================================================================================

================================================================================
IS: Calculation in solvent completed (NGWFs converged).      

Individual components of total energy in solvent:     hartree           kcal/mol
- Usual non-electrostatic DFT terms:    -12888.09460567901442    -8087401.292228
- Electrostatic fixed charge energy:      1209.64747802812531      759065.236271
- Apolar cavitation energy:                  2.33945398812422        1468.029510
- Apolar dispersion-repulsion energy:       -1.68189195841220       -1055.403115
 -------------------------------------------------------------------------------
- Total energy in solvent:              -11677.78956562117673    -7327923.429562

Components of total energy in solvent:                hartree           kcal/mol
- Usual non-electrostatic DFT terms:    -12888.09460567901442    -8087401.292228
- Electrostatic energy:                   1209.64747802812531      759065.236271
- Apolar energy terms:                       0.65756202971201         412.626394
 -------------------------------------------------------------------------------
- Total energy in solvent:              -11677.78956562117673    -7327923.429562

Calculation of free energy of solvation:              hartree           kcal/mol
- Total energy in solvent:         (+)  -11677.78956562117673    -7327923.429562
- Total energy in vacuum:          (-)  -11673.87887227570172    -7325469.432491
 -------------------------------------------------------------------------------
- Total free energy of solvation:           -3.91069334547501       -2453.997071

Components of polar term in f.e. of solvation:        hartree           kcal/mol
- Electrostatic:                            -4.61705882352271       -2897.248091
- Change in nonelectrostatic DFT terms:      0.04880344833509          30.624626
 -------------------------------------------------------------------------------
- Polar term in f.e. of solvation:          -4.56825537518762       -2866.623466

Components of free energy of solvation:               hartree           kcal/mol
- Polar term in f.e. of solvation: (+)      -4.56825537518762       -2866.623466
- Apolar (cavitation, dis., rep.): (+)       0.65756202971201         412.626394
 -------------------------------------------------------------------------------
- Total free energy of solvation:           -3.91069334547560       -2453.997071
================================================================================


------------------------------ TIMING INFORMATION ------------------------------
AVERAGE TIME:   36046.429s on     60 node(s)                                    
TOTAL TIME:     36046.652s on     60 node(s)                                    
================= AVERAGE TIMINGS FROM ALL NODES (CUMULATIVE) ==================
|| TAG                                    #calls    cpu time   %total  Gflops ||
|| work_imbalance                       :     1        0.00s   0.000%  ------ ||
|| sparse_set_to_garbage                :   212        0.04s   0.000%  ------ ||
|| parallel_prepare_fd_halos_request    :  2307        0.04s   0.000%  ------ ||
|| ngwfs_initialise_from_radial         :     1        0.10s   0.000%  ------ ||
|| basis_extract_function_from_box      :  4228        0.19s   0.001%  ------ ||
|| parallel_prepare_fd_halos_satisfy    :  2307        0.82s   0.002%  ------ ||
|| parallel_prepare_fd_halos_alloc      :  2307        1.97s   0.005%  ------ ||
|| pseudopotentials_nonlocal_mat        :    36        2.45s   0.007%  ------ ||
|| openbc_locps_radial                  :     1        3.08s   0.009%  ------ ||
|| density_init_guess_real              :     1        3.51s   0.010%  ------ ||
|| restart_kernel_read                  :     1        4.43s   0.012%  ------ ||
|| restart_ngwfs_tightbox_input         :     1        4.47s   0.012%  ------ ||
|| parallel_prepare_fd_halos_comms_imbal:  2307        9.94s   0.028%  ------ ||
|| sparse_init                          :     2       22.20s   0.062%  ------ ||
|| parallel_prepare_fd_halos_clear      :  2307       23.39s   0.065%  ------ ||
|| projectors_func_ovlp_box             :    36       30.92s   0.086%  ------ ||
|| parallel_prepare_fd_halos_comms_wait :  2307       32.44s   0.090%  ------ ||
|| function_ops_brappd_ketppd           :    36       33.69s   0.093%  ------ ||
|| palser_mano_kernel_optimise          :     1       35.20s   0.098%  ------ ||
|| projectors_init_fftbox_recip         :   169       38.54s   0.107%  ------ ||
|| basis_copy_function_to_box           : 68844       50.80s   0.141%  ------ ||
|| pseudo_make_structure_factor         :     2       51.37s   0.143%  ------ ||
|| ngwf_gradient_coeffs                 :    19       57.09s   0.158%  ------ ||
|| fourier_apply_box_pair               :  6078       63.36s   0.176% 555.445 ||
|| parallel_prepare_fd_halos            :  2307       68.61s   0.190%  ------ ||
|| sparse_embed_hotelling_invert_embed  :    36       88.66s   0.246%  ------ ||
|| restart_kernel_write                 :    20      124.58s   0.346%  ------ ||
|| finite_difference_derivative         :  2307      152.54s   0.423%  ------ ||
|| integrals_kinetic                    :    36      174.39s   0.484%  ------ ||
|| projectors_gradient_batch            :   133      200.49s   0.556%  ------ ||
|| sparse_trace                         :  6263      220.22s   0.611%  ------ ||
|| fourier_apply_cell_backward          :  1539      224.07s   0.622%  93.494 ||
|| basis_dot_function_with_box          : 10.37M     229.27s   0.636%  ------ ||
|| openbc_locps_on_grid                 :     2      259.64s   0.720%  ------ ||
|| fourier_apply_cell_forward           :  1537      288.89s   0.801%  72.420 ||
|| kernel_purify                        :   588      344.43s   0.956%  ------ ||
|| hamiltonian_energy_components        :     4      479.68s   1.331%  ------ ||
|| basis_add_function_to_box            : 21.73M     496.08s   1.376%  ------ ||
|| lnv_gradient_norm                    :   190      503.81s   1.398%  ------ ||
|| xc_energy_potential                  :   384      593.30s   1.646%  ------ ||
|| kernel_fix                           :   190      602.62s   1.672%  ------ ||
|| integrals_locpot_mat_els_batch       :  1393      869.11s   2.411%  ------ ||
|| ngwf_gradient_build_batch            :   133      878.51s   2.437%  ------ ||
|| ngwf_gradient_batch                  :   133     1203.67s   3.339%  ------ ||
|| density_batch_row_sums               :  2681     1253.90s   3.479%  ------ ||
|| ngwf_gradient_lnv                    :    19     1354.79s   3.758%  ------ ||
|| restart_ngwfs_tightbox_output        :    17     1508.08s   4.184%  ------ ||
|| cell_grid_deposit_box_real           : 44097     1522.05s   4.222%  ------ ||
|| cell_grid_extract_box_real           : 48537     1857.96s   5.154%  ------ ||
|| density_fftbox_deposit_to_cell       : 41747     2126.45s   5.899%  ------ ||
|| sparse_product                       :  7888     2142.28s   5.943%  ------ ||
|| potential_apply_to_ngwf_batch        :  1393     4135.69s  11.473%  ------ ||
|| density_fftbox_interpolate_multiply  : 41747     4467.02s  12.392%  ------ ||
|| integrals_locpot_dbl_grid            :   199     5028.89s  13.951%  ------ ||
|| multigrid_prepare_bound_cond         :   384     5440.66s  15.093%  ------ ||
|| fourier_apply_box                    : 143.5k    5491.36s  15.234% 733.610 ||
|| density_batch_interp_deposit         :  2681     7576.48s  21.019%  ------ ||
|| dl_mg_solver_calls                   :   384     8665.35s  24.039%  ------ ||
|| density_on_dbl_grid                  :   383     9186.56s  25.485%  ------ ||
|| multigrid_calculate_hartree          :   384    14320.13s  39.727%  ------ ||
|| hamiltonian_lhxc_calculate           :   379    24132.71s  66.949%  ------ ||
|| lnv_denskernel_optimise_cg           :    19    30255.94s  83.936%  ------ ||
|| ngwf_cg_optimise                     :     2    35145.63s  97.501%  ------ ||
|| total_time                           :     1    36046.43s 100.000%  ------ ||
================================================================================
Overhead of generating timer report: 
- 0 ms averaging over threads,
- 15 ms ensuring consistency across MPI ranks,
- 0 ms printing in order.

Job completed: 23-01-2020 11:35 (-0000)

Application 38663779 resources: utime ~7505222s, stime ~248530s, Rss ~3619652, inblocks ~371796843, outblocks ~78580047
