 +---------------------------------------------------------------+
 |                                                               |
 |        ####### #     # ####### ####### ####### ######         |
 |        #     # ##    # #          #    #       #     #        |
 |        #     # # #   # #          #    #       #     #        |
 |        #     # #  #  # #####      #    #####   ######         |
 |        #     # #   # # #          #    #       #              |
 |        #     # #    ## #          #    #       #              |
 |        ####### #     # #######    #    ####### #              |
 |                                                               |
 |        Linear-Scaling Ab Initio Total Energy Program          |
 |                                                               |
 |          Release for academic collaborators of ODG            |
 |                                             Version 5.3.2.6.  |
 |                                                               |
 +---------------------------------------------------------------+
 |                                                               |
 |  Authors:                                                     |
 |  Jacek Dziedzic, Peter D. Haynes, Nicholas D. M. Hine,        |
 |  Arash. A. Mostofi, Mike C. Payne and Chris-Kriton Skylaris   |
 |                                                               |
 |  Contributors:                                                |
 |  J. Aarons, L. Andrinopoulos, P. W. Avraam, R. A. Bell,       |
 |  A. Bhandari, G. A. Bramley, R. J. Charlton, S. J. Clark,     |
 |  R. J. Clements, G. C. Constantinescu, F. Corsetti,           |
 |  N. Corsini, O. Dieguez, S. M. M. Dubois, K. K. B. Duff,      |
 |  J. M. Escartin, A. Greco, H. Helal, Q. O. Hill, L. P. Lee,   |
 |  J.-H. Li, E. B. Linscott, G. Moynihan, D. D. O`Regan,        |
 |  O. K. Okan, M. J. S. Phipps, C. J. Pickard,                  |
 |  J. C. A. Prentice, M. I. J. Probert, L. E. Ratcliff,         |
 |  M. Robinson, A. Ruiz Serrano, J. S. Spencer, E. W. Tait,     |
 |  G. Teobaldi, D. Turban, V. Vitale, K. A. Wilkinson,          |
 |  C. Weber, J. C. Womack, N. Yeung and T. J. Zuehlsdorff       |
 |                                                               |
 |                                   Copyright (c) 2004-2019     |
 |                                                               |
 |  Please cite:                                                 |
 |  "Introducing ONETEP: Linear-scaling density functional       |
 |   simulations on parallel computers".                         |
 |   C.-K. Skylaris, P. D. Haynes, A. A. Mostofi, M. C. Payne.   |
 |   J. Chem. Phys. 122 084119 (2005).                           |
 |                                                               |
 |          in all publications arising from your use of ONETEP. |
 |                                                               |
 +---------------------------------------------------------------+
 |                                                               |
 |   ONETEP is based on developments described in the following  |
 |   publications:                                               |
 |                                                               |
 |  "Nonorthogonal generalized Wannier function pseudopotential  |
 |   plane-wave method".                                         |
 |   C.-K. Skylaris, A. A. Mostofi, P. D. Haynes, O. Dieguez,    |
 |   M. C. Payne.                                                |
 |   Phys. Rev. B 66 035119 (2002).                              |
 |                                                               |
 |  "Preconditioned iterative minimization for linear-scaling    |
 |   electronic structure calculations".                         |
 |   A. A. Mostofi, P. D. Haynes, C.-K. Skylaris, M. C. Payne.   |
 |   J. Chem. Phys. 119(17), pp.8842-8848 (2003).                |
 |                                                               |
 |  "Total-energy calculations on a real space grid with         |
 |   localized functions and a plane-wave basis".                |
 |   A. A. Mostofi, C.-K. Skylaris, P. D. Haynes, M. C. Payne.   |
 |   Comput. Phys. Commun. 147, pp.788-802 (2002).               |
 |                                                               |
 |  "Accurate kinetic energy evaluation in electronic structure  |
 |   calculations with localized functions on real space grids"  |
 |   C.-K. Skylaris, A. A. Mostofi, P. D. Haynes, C. J. Pickard, |
 |   M. C. Payne.                                                |
 |   Comput. Phys. Commun. 140, pp.315-322 (2001).               |
 |                                                               |
 |  "Accurate ionic forces and geometry optimization in linear-  |
 |   scaling density-functional theory with local orbitals"      |
 |   N. D. M. Hine, M. Robinson, P. D. Haynes, C.-K. Skylaris,   |
 |   M. C. Payne, and A. A. Mostofi.                             |
 |   Phys. Rev. B 83 195102 (2011).                              |
 |                                                               |
 +---------------------------------------------------------------+

Job started: 01-06-2020 00:37 (+0100)
 
Reading parameters from file "host_5421.dat" ...... done

If your calculation crashes here, before "Checking processes and threads..."
is displayed, then your stack size is insufficient.
If so, use "ulimit -s unlimited" at runtime.
You can disable this check with "check_stack_size F".

Checking processes and threads...
   Determining the default number of threads...
      No default threads set at compilation time: defaulting to 1.
      OpenMP library call suggests 4 threads.
      Hybrid MPI-OpenMP compilation detected.
      Number of MPI processes > 1.
      OMP_NUM_THREADS environment variable present and
      its value matches the one obtained from the OpenMP library call.
      Using this value as default.
      Default threads: 4
      Default applies to threads_max and threads_num_fftboxes.
      Settings in the input file override this default.
   ... done

   Running with 40 MPI processes.
   There are 10 MPI processes running on the same node as the root process.
   Each MPI process is using: 
               1 threads for simulation cell FFTs.
               1 threads for parallel FFT box operations.
               4 threads for loops over batched FFT box operations.
               4 threads in other parallel regions.
... done

Basic input checks...... done

Reading geometry and species blocks from file "host_5421.dat" ...
  <species_atomic_set> block not found: NGWF initialisation set to SOLVE
IS: Dielectric excluded regions:
    - NONE.
    
  Number of PPD points along a3 set to 1.  This is 
  the default value, it may have been provided also in the input file.
... done
 Writing xyz coordinates to file "host_5421.xyz" ... done


--------------------------------------------------------------------------------
---------------------------------- INPUT FILE ----------------------------------
--------------------------------------------------------------------------------

cutoff_energy       : 800 eV                                                    
xc_functional PBE                                                               
task SINGLEPOINT                                                                
write_xyz true                                                                  
output_detail VERBOSE                                                           
ngwf_threshold_orig : 0.000002                                                  
kernel_cutoff       : 1000                                                      
k_zero              : 3.5                                                       
elec_cg_max 0                                                                   
occ_mix 1.0                                                                     
dispersion 1                                                                    
maxit_ngwf_cg 40                                                                
minit_lnv 10                                                                    
maxit_lnv 10                                                                    
write_denskern T                                                                
write_tightbox_ngwfs T                                                          
charge 9                                                                        
is_implicit_solvent T                                                           
is_auto_solvation T                                                             
is_include_apolar T                                                             
is_smeared_ion_rep T                                                            
is_solvent_surf_tension 4.7624E-5 Ha/bohr**2                                    
is_apolar_scaling_factor 0.281075                                               
is_solvation_beta 1.3                                                           
is_density_threshold 0.00035                                                    
is_bulk_permittivity 78.54                                                      
is_dielectric_model fix_initial                                                 
is_smeared_ion_width 0.8                                                        
mg_defco_fd_order 8                                                             
is_bc_coarseness 10                                                             
is_bc_surface_coarseness 1                                                      
fine_grid_scale 2.0                                                             
%block species                                                                  
N   N   7 4 8.0                                                                 
H   H   1 1 8.0                                                                 
C   C   6 4 8.0                                                                 
S   S  16 9 8.0                                                                 
O   O   8 4 8.0                                                                 
%endblock species                                                               
%block species_pot                                                              
N   N_00.recpot                                                                 
H   H_04.recpot                                                                 
C   C_01.recpot                                                                 
S   S_00.recpot                                                                 
O   O_02.recpot                                                                 
%endblock species_pot                                                           
%block lattice_cart                                                             
139.252   0.000   0.000                                                         
0.000 142.425   0.000                                                           
0.000   0.000   162.84                                                          
%endblock lattice_cart                                                          
%block positions_abs                                                            
     Hash =   000001669506859394366711
%endblock positions_abs                                                         

--------------------------------------------------------------------------------
-------------------------------- END INPUT FILE --------------------------------
--------------------------------------------------------------------------------


 
 ESDF WARNING(1): "kernelcutoff" (esdf_physical) has no units. Assume "bohr".
 ESDF WARNING(2): "kzero" (esdf_physical) has no units. Assume "1/bohr".
 ESDF WARNING(3
 ): "issmearedionwidth" (esdf_physical) has no units. Assume "bohr".
<<<<<<<<<<<<<<<<<<<<<<<<<<<<<<<<< Full system >>>>>>>>>>>>>>>>>>>>>>>>>>>>>>>>>>
<<<<<<<<<<<<<<<<<<<<<<<<< Pseudopotential information >>>>>>>>>>>>>>>>>>>>>>>>>>
File: N_00.recpot [ 2001 points up to Gmax=  52.9 (1/bohr)]
  Atomic number:  7;  ionic charge:  5.000000
    Shell 1: l = 0; rc = 1.48 bohr
File: H_04.recpot [ 2001 points up to Gmax=  52.9 (1/bohr)]
  Atomic number:  1;  ionic charge:  1.000000
    Local potential
File: C_01.recpot [ 2001 points up to Gmax=  52.9 (1/bohr)]
  Atomic number:  6;  ionic charge:  4.000000
    Shell 1: l = 0; rc = 1.48 bohr
File: S_00.recpot [ 2001 points up to Gmax=  52.9 (1/bohr)]
  Atomic number: 16;  ionic charge:  6.000000
    Shell 1: l = 0; rc = 1.90 bohr
    Shell 2: l = 2; rc = 1.84 bohr
File: O_02.recpot [ 2001 points up to Gmax=  52.9 (1/bohr)]
  Atomic number:  8;  ionic charge:  6.000000
    Shell 1: l = 0; rc = 1.31 bohr
<<<<<<<<<<<<<<<<<<<<<<<<<<<<<<<<<<<<<<<<>>>>>>>>>>>>>>>>>>>>>>>>>>>>>>>>>>>>>>>>

-------------------------- Atom counting information ---------------------------
Symbol    Natoms    Nngwfs    Nprojs
  N        236       944       236
  H       1311      1311         0
  C        810      3240       810
  S          6        54        36
  O        239       956       239
.......   ......    ......    ......
Totals:   2602      6505      1321
--------------------------------------------------------------------------------

=============================== PSINC grid sizes ===============================
                      Simulation cell:  275 x 280 x 320
                              FFT-box:   99 x  99 x  99
                                  PPD:    5 x   5 x   1
Grid space d1=  0.506370909091a0 (KE cutoff=  29.62556Eh = 806.15239eV)
Grid space d2=  0.508660714286a0 (KE cutoff=  29.35943Eh = 798.91072eV)
Grid space d3=  0.508875000000a0 (KE cutoff=  29.33471Eh = 798.23802eV)
================================================================================

********************* Fourier parallelisation information **********************
       Coarse grid (whole simulation cell) dimensions:    275   280   320
          Real-space ('12') slabs/node (min max mean):      8     8     8
         Recip-space ('23') slabs/node (min max mean):      3     4     3
********************************************************************************

********************* Fourier parallelisation information **********************
       Double grid (whole simulation cell) dimensions:    550   560   640
          Real-space ('12') slabs/node (min max mean):     16    16    16
         Recip-space ('23') slabs/node (min max mean):      6     7     6
********************************************************************************
ONETEP fine grid is 550 x 560 x 640 gridpoints, 139.2520 x 142.4250 x 162.8400 bohr.
FD multigrid is     545 x 553 x 633 gridpoints, 137.9861 x 140.6447 x 161.0589 bohr.


Calculating local pseudopotential in open BC on a radial grid ...
Discrepancy between calculated realspace psloc and -Z/x on [5a0,257.280a0]:
max |rel. diff| # avg |rel. diff| #  avg rel. diff #  f # pseudopotential file
 0.000256370913    0.000003612608   0.000000072509   55  'N_00.recpot'
 0.000395389207    0.000016224277  -0.000000076597   55  'H_04.recpot'
 0.000377360759    0.000017565724   0.000000149252   55  'C_01.recpot'
 0.000469715301    0.000020587835   0.000000455518   55  'S_00.recpot'
 0.000665442002    0.000026079317   0.000000158685   55  'O_02.recpot'
... done

Atom SCF Calculation for N  : Z (AE atom) =   7 : Z (PS atom) =   5
Config String:
Orbitals (num,occ):  2     2.00 3.00
Orbitals   (num,l):  2        0    1
Real-space Grid (nr,dr,rmax): 1203    0.0066555740    8.0000000000
Spherical Bessel Basis (nsws,lmax,cutoff):   47    1  176.3951722778
Confining potential (l,width,scale):  0    3.0000000000  100.0000000000
Confining potential (l,width,scale):  1    3.0000000000  100.0000000000
  1         -4.7312375307   -3.4155304497    7.0523828109   -1.9351020946
  2         -9.7309464766   -2.0532547791    8.2966052865   -2.2494486027
  3         -9.6627394379   -2.1124926340    8.2327997121   -2.2369778124
  4         -9.6814993499   -2.1215521045    8.2229805960   -2.2365178421
  5         -9.6843326483   -2.1250939529    8.2191374534   -2.2362718126
  6         -9.6859628709   -2.1267894855    8.2172963573   -2.2362066344
  7         -9.6867347035   -2.1276425665    8.2163697352   -2.2361903369
  8         -9.6870802100   -2.1280764625    8.2158983890   -2.2361891460
  9         -9.6872290423   -2.1282977424    8.2156580222   -2.2361920435
 10         -9.6872901988   -2.1284107021    8.2155353368   -2.2361953393
 11         -9.6873135296   -2.1284684031    8.2154726809   -2.2361979819
 12         -9.6873212476   -2.1284978948    8.2154406648   -2.2361998431
 13         -9.6873229586   -2.1285129774    8.2154242957   -2.2362010676
 14         -9.6873226456   -2.1285206957    8.2154159216   -2.2362018403
 15         -9.6873218534   -2.1285246479    8.2154116349   -2.2362023142
 16         -9.6873212599   -2.1285262679    8.2154098784   -2.2362025420
 17         -9.6873207834   -2.1285272564    8.2154088068   -2.2362026955
 18         -9.6873204210   -2.1285278597    8.2154081529   -2.2362027982
 19         -9.6873201550   -2.1285282280    8.2154077538   -2.2362028667
 20         -9.6873199645   -2.1285284529    8.2154075102   -2.2362029121
 21         -9.6873198305   -2.1285285903    8.2154073614   -2.2362029421
 22         -9.6873197377   -2.1285286742    8.2154072705   -2.2362029618
Atom SCF converged after  22 iterations to a total energy of     -9.68731974

Atom SCF Calculation for H  : Z (AE atom) =   1 : Z (PS atom) =   1
Config String:
Orbitals (num,occ):  1     1.00
Orbitals   (num,l):  1        0
Real-space Grid (nr,dr,rmax): 1203    0.0066555740    8.0000000000
Spherical Bessel Basis (nsws,lmax,cutoff):   47    0  176.3951722778
Confining potential (l,width,scale):  0    3.0000000000  100.0000000000
  1         -0.3194257691   -0.2393854593    0.2820953124   -0.2424203209
  2         -0.3951823392   -0.2377116493    0.2886404059   -0.2475147891
  3         -0.4317044583   -0.2352244387    0.2921333887   -0.2514046172
  4         -0.4470703708   -0.2341892222    0.2934391879   -0.2531009782
  5         -0.4532132900   -0.2338556667    0.2938388426   -0.2537313520
  6         -0.4556579251   -0.2337612552    0.2939448584   -0.2539550462
  7         -0.4566418315   -0.2337377355    0.2939680120   -0.2540342273
  8         -0.4570437922   -0.2337331116    0.2939708287   -0.2540627372
  9         -0.4572102946   -0.2337328328    0.2939698291   -0.2540732650
 10         -0.4572800424   -0.2337332404    0.2939687193   -0.2540772588
 11         -0.4573095100   -0.2337335791    0.2939680317   -0.2540788122
 12         -0.4573220379   -0.2337337762    0.2939676699   -0.2540794294
 13         -0.4573273880   -0.2337338775    0.2939674931   -0.2540796787
 14         -0.4573296803   -0.2337339266    0.2939674099   -0.2540797808
 15         -0.4573306647   -0.2337339495    0.2939673718   -0.2540798230
 16         -0.4573310882   -0.2337339601    0.2939673545   -0.2540798406
 17         -0.4573312706   -0.2337339649    0.2939673467   -0.2540798479
 18         -0.4573313493   -0.2337339670    0.2939673433   -0.2540798510
Atom SCF converged after  18 iterations to a total energy of     -0.45733135

Atom SCF Calculation for C  : Z (AE atom) =   6 : Z (PS atom) =   4
Config String:
Orbitals (num,occ):  2     2.00 2.00
Orbitals   (num,l):  2        0    1
Real-space Grid (nr,dr,rmax): 1203    0.0066555740    8.0000000000
Spherical Bessel Basis (nsws,lmax,cutoff):   47    1  176.3951722778
Confining potential (l,width,scale):  0    3.0000000000  100.0000000000
Confining potential (l,width,scale):  1    3.0000000000  100.0000000000
  1         -5.2976922011   -1.3069684169    4.5135249990   -1.4493313817
  2         -5.3721716256   -1.3429755895    4.4750154450   -1.4361613026
  3         -5.3809959565   -1.3617365618    4.4541655428   -1.4305930207
  4         -5.3918938866   -1.3667928461    4.4484735100   -1.4294652294
  5         -5.3956096428   -1.3688539142    4.4461376126   -1.4290734646
  6         -5.3968271862   -1.3696852393    4.4451910874   -1.4289366866
  7         -5.3972028401   -1.3700178062    4.4448112275   -1.4288900460
  8         -5.3973067903   -1.3701500158    4.4446598370   -1.4288749220
  9         -5.3973286940   -1.3702023868    4.4445997329   -1.4288704293
 10         -5.3973289850   -1.3702230869    4.4445759233   -1.4288693188
 11         -5.3973254264   -1.3702312560    4.4445665049   -1.4288691775
 12         -5.3973224003   -1.3702344755    4.4445627836   -1.4288692549
 13         -5.3973208708   -1.3702354890    4.4445616088   -1.4288693270
 14         -5.3973198783   -1.3702360102    4.4445610034   -1.4288693814
 15         -5.3973192535   -1.3702362780    4.4445606917   -1.4288694190
 16         -5.3973188684   -1.3702364155    4.4445605313   -1.4288694437
 17         -5.3973186349   -1.3702364860    4.4445604489   -1.4288694595
 18         -5.3973184951   -1.3702365221    4.4445604065   -1.4288694693
 19         -5.3973184122   -1.3702365405    4.4445603848   -1.4288694753
Atom SCF converged after  19 iterations to a total energy of     -5.39731841

Atom SCF Calculation for S  : Z (AE atom) =  16 : Z (PS atom) =   6
Config String:
Orbitals (num,occ):  3     2.00 4.00 0.00
Orbitals   (num,l):  3        0    1    2
Real-space Grid (nr,dr,rmax): 1203    0.0066555740    8.0000000000
Spherical Bessel Basis (nsws,lmax,cutoff):   47    2  176.3951722778
Confining potential (l,width,scale):  0    3.0000000000  100.0000000000
Confining potential (l,width,scale):  1    3.0000000000  100.0000000000
Confining potential (l,width,scale):  2    3.0000000000  100.0000000000
  1        -12.4735062396   -1.0328741412   10.1554312477   -2.4512393157
  2         -9.9458301913   -2.4607392455    8.3041325857   -2.0306994528
  3        -10.1450417646   -2.2931184565    8.4831893826   -2.0812538287
  4        -10.1528335592   -2.2733105793    8.5050388867   -2.0896035179
  5        -10.1571940363   -2.2633716629    8.5160794258   -2.0939370707
  6        -10.1594380571   -2.2584938667    8.5215163935   -2.0961289008
  7        -10.1605856507   -2.2561081821    8.5241804044   -2.0972291378
  8        -10.1611799191   -2.2549395235    8.5254868240   -2.0977806248
  9        -10.1614918752   -2.2543658586    8.5261285885   -2.0980571586
 10        -10.1616572884   -2.2540839121    8.5264441898   -2.0981959233
 11        -10.1617455602   -2.2539453058    8.5265994231   -2.0982656006
 12        -10.1617928447   -2.2538772062    8.5266757320   -2.0983006047
 13        -10.1618182292   -2.2538437891    8.5267131983   -2.0983181961
 14        -10.1618318741   -2.2538274201    8.5267315620   -2.0983270391
 15        -10.1618392144   -2.2538194197    8.5267405433   -2.0983314852
 16        -10.1618431651   -2.2538155200    8.5267449245   -2.0983337210
 17        -10.1618452923   -2.2538136252    8.5267470551   -2.0983348455
 18        -10.1618464380   -2.2538127080    8.5267480875   -2.0983354110
 19        -10.1618470552   -2.2538122659    8.5267485856   -2.0983356955
 20        -10.1618473878   -2.2538120540    8.5267488248   -2.0983358386
 21        -10.1618475670   -2.2538119530    8.5267489389   -2.0983359106
 22        -10.1618476637   -2.2538119053    8.5267489929   -2.0983359468
Atom SCF converged after  22 iterations to a total energy of    -10.16184766

Atom SCF Calculation for O  : Z (AE atom) =   8 : Z (PS atom) =   6
Config String:
Orbitals (num,occ):  2     2.00 4.00
Orbitals   (num,l):  2        0    1
Real-space Grid (nr,dr,rmax): 1203    0.0066555740    8.0000000000
Spherical Bessel Basis (nsws,lmax,cutoff):   47    1  176.3951722778
Confining potential (l,width,scale):  0    3.0000000000  100.0000000000
Confining potential (l,width,scale):  1    3.0000000000  100.0000000000
  1         -1.8735052164   -7.5539365035   10.1554312477   -2.4512393157
  2        -16.0318313751   -3.1285771268   13.6395848164   -3.2358799643
  3        -15.9524020423   -3.0762819706   13.6967272503   -3.2536856837
  4        -15.8521515939   -3.0781493909   13.6951909330   -3.2561700440
  5        -15.8357139793   -3.0748501933   13.6988803334   -3.2580493133
  6        -15.8246052853   -3.0740779781   13.6997881576   -3.2588327446
  7        -15.8189019501   -3.0737449687   13.7001869911   -3.2592378801
  8        -15.8159785510   -3.0736026016   13.7003615168   -3.2594475790
  9        -15.8144776168   -3.0735437994   13.7004360379   -3.2595560735
 10        -15.8137058024   -3.0735207882   13.7004667348   -3.2596122456
 11        -15.8133083127   -3.0735125946   13.7004786868   -3.2596413656
 12        -15.8131032938   -3.0735102195   13.7004828997   -3.2596564858
 13        -15.8129973902   -3.0735099286   13.7004840891   -3.2596643505
 14        -15.8129426040   -3.0735102506   13.7004842061   -3.2596684489
 15        -15.8129142203   -3.0735106556   13.7004840157   -3.2596705887
 16        -15.8128994940   -3.0735109855   13.7004837906   -3.2596717080
 17        -15.8128918425   -3.0735112169   13.7004836103   -3.2596722946
 18        -15.8128878614   -3.0735113674   13.7004834848   -3.2596726026
 19        -15.8128857871   -3.0735114608   13.7004834035   -3.2596727646
 20        -15.8128847048   -3.0735115170   13.7004833533   -3.2596728500
 21        -15.8128841394   -3.0735115501   13.7004833231   -3.2596728951
 22        -15.8128838436   -3.0735115693   13.7004833054   -3.2596729190
 23        -15.8128836887   -3.0735115802   13.7004832951   -3.2596729316
 24        -15.8128836074   -3.0735115864   13.7004832893   -3.2596729383
Atom SCF converged after  24 iterations to a total energy of    -15.81288361

========================== Calculation in vacuum ==============================
= Adjusting the following parameters: 
= is_implicit_solvent: F
= is_include_apolar: F
= write_denskern: T
= write_tightbox_ngwfs: T
= restart read filename prefix: ""
= restart write filename prefix: "vacuum_"
===============================================================================

Determining parallel strategy ...
... using space-filling curve
... NGWF load balancing: max    163;  min    162;  average    163
... Projector load balancing: max     36;  min     32;  average     33
... done
Calculating direct Ion-Ion energy ...
Ion-Ion Energy        :    824650.20575785101391
======================= Empirical dispersion information =======================
Model : Elstner
Dispersion Correction Energy: -0.32786168E+01 Hartree
================================================================================
Basis initialisation ...... NGWF spheres initialised
... Projector spheres initialised
... NGWF tight boxes initialised
... Tight-boxes gathered
... NGWF basis size (local,global):    1783489  71367315
... Nonlocal pseudopotential projector initialisation
... done

========================== Sparse matrix information ===========================
                        Overlap matrix filling:   6.77%
                        Density kernel filling: 100.00%
              NGWF-Proj overlap matrix filling:   1.79%
                    Hamiltonian matrix filling:   7.67%
                  NGWF diagonal matrix filling:   0.05%
                             KS matrix filling: 100.00% 
                           KSKS matrix filling: 100.00% 
================================================================================

Sparse matrix initialisation ... done

Generating smeared ion density ... done
Smeared ion self correction:     -14457.169564
Smeared ion non-self correction: -824602.172305
NGWF initialisation ...... done
============ Calculation of NGWF S^-1 using Hotelling algorithm ================ 
         Iteration  |  Frobenius norm and Maximum abs value    (of I-S*S_n^-1)   
               1       0.78471745E+02     0.98243021E+00
               2       0.76614975E+02     0.96533849E+00
               3       0.73610688E+02     0.93248380E+00
               4       0.69344116E+02     0.87149415E+00
               5       0.64033439E+02     0.76783744E+00
               6       0.58069251E+02     0.70255028E+00
               7       0.52076196E+02     0.67364193E+00
               8       0.46534601E+02     0.64800127E+00
               9       0.40466126E+02     0.60838465E+00
              10       0.32192416E+02     0.54170930E+00
              11       0.21613591E+02     0.43646662E+00
              12       0.11021387E+02     0.28949694E+00
              13       0.36211745E+01     0.13352400E+00
              14       0.57148775E+00     0.31703328E-01
              15       0.27629524E-01     0.29675412E-02
              16       0.16320607E-03     0.30397116E-04
              17       0.12482952E-07     0.32563465E-08
              18       0.93635863E-13     0.53290705E-14
================================================================================
Calculating local pseudopotential in open BC on the fine real space grid ...
... done

MG BCs: +ve charge blocks (gridpoints):     19937 (   15598626).
MG BCs: -ve charge blocks (gridpoints):      7853 (    1055871).
MG BCs:     Elided blocks (gridpoints):    177183 (  174122208).
MG BCs: Computational effort saved:  99.9854%.
MG BCs: Charge after coarse-graining:           -9.0002217.
MG DL_MG: Calling solver with defect correction order = 8
MG DL_MG: Solver finished
MG Hartree energy from (\int phi*rho dr):              1462.318294
MG Hartree energy from (\int eps (grad phi)^2 dr):     1461.694539
MG Discrepancy due to finite box and discretization:     -0.623755 (  -0.04266%)
MG Correction to account for finite box:                  0.464135
MG Remaining discrepancy, due to discretization:         -0.159620 (  -0.01092%)
Up spin density kernel initialisation ... 
======= Optimisation of K by Palser-Manolopoulos canonical purification ======== 
         Iteration  |  Band structure energy |    c_n   
               1       -2578.38669211075921    0.5268061
               2       -2754.15489160618563    0.5169515
               3       -2934.25818840939610    0.5152261
               4       -3084.59351000210472    0.5285295
               5       -3176.99097420200769    0.5640970
               6       -3215.57652653708692    0.6088924
               7       -3228.64398982181228    0.6202877
               8       -3234.30523715401978    0.6186354
               9       -3237.04835920385904    0.6361056
              10       -3238.16404682737357    0.6692114
              11       -3238.58441346451582    0.6969244
              12       -3238.76390459222739    0.7108162
              13       -3238.85349170910604    0.6904522
              14       -3238.90964624779008    0.6408153
              15       -3238.94851883919409    0.5845203
              16       -3238.97090738073621    0.5331768
              17       -3238.97990987875710    0.4907074
              18       -3238.98212845841635    0.4473997
              19       -3238.98256239514376    0.4484005
              20       -3238.98271328271903    0.4807831
              21       -3238.98280714499379    0.4977360
              22       -3238.98289082701558    0.4999693
              23       -3238.98297693611858    0.5000000
              24       -3238.98304013399684    0.5000000
              25       -3238.98306169712123    0.5000000
              26       -3238.98306347053222    0.5000001
              27       -3238.98306348111919    0.5000001
Termination criterion satisfied: band energy change below threshold.
Final occupancy bounds: [    0.00000000000004:    0.99999999999995]
Closest occupancy to 0.5:     0.99999999999998
================================================================================
... done

Writing density kernel to file "host_5421.vacuum_dkn" ... done

>>> Optimising kernel for current NGWFs:
   Initial electron number for spin 1:    7192.00000000
     Final electron number for spin 1:    7192.00000000

=================== Penalty functional idempotency correction ==================
 RMS occupancy error at iteration   1:  0.000000 (step -0.5000 Ne1=   7192.0000)
            Final RMS occupancy error   :  0.000000 (Ne1=   7192.0000)
               Final occupancy bounds   : [ -0.0000,  1.0000]
================================================================================

................................................................................
<<<<<<<<<<<<<< LNV (Original version) density kernel optimisation >>>>>>>>>>>>>>
~~~~~~~~~~~~~~~~~~~~~~~~~~~~~~~~~~~~~~~~~~~~~~~~~~~~~~~~~~~~~~~~~~~~~~~~~~~~~~~~
   iter  |      energy (Eh)       | rms gradient |  commutator  |   dE (Eh)
MG BCs: +ve charge blocks (gridpoints):     30389 (   16798670).
MG BCs: -ve charge blocks (gridpoints):      8187 (    1087570).
MG BCs:     Elided blocks (gridpoints):    166726 (  172890465).
MG BCs: Computational effort saved:  99.9798%.
MG BCs: Charge after coarse-graining:           -9.0009549.
MG DL_MG: Calling solver with defect correction order = 8
MG DL_MG: Solver finished
MG Hartree energy from (\int phi*rho dr):              1415.808232
MG Hartree energy from (\int eps (grad phi)^2 dr):     1415.136627
MG Discrepancy due to finite box and discretization:     -0.671606 (  -0.04744%)
MG Correction to account for finite box:                  0.467692
MG Remaining discrepancy, due to discretization:         -0.203913 (  -0.01440%)
      ideal mu1:      -0.713814434220
             Q0:  -11507.533025422832
             G0:    -140.126287398483
   RMS gradient:       0.001819753264
MG BCs: +ve charge blocks (gridpoints):     30424 (   16882887).
MG BCs: -ve charge blocks (gridpoints):      8084 (    1068400).
MG BCs:     Elided blocks (gridpoints):    166691 (  172825418).
MG BCs: Computational effort saved:  99.9798%.
MG BCs: Charge after coarse-graining:           -9.0009764.
MG DL_MG: Calling solver with defect correction order = 8
MG DL_MG: Solver finished
MG Hartree energy from (\int phi*rho dr):              1442.508647
MG Hartree energy from (\int eps (grad phi)^2 dr):     1441.853278
MG Discrepancy due to finite box and discretization:     -0.655369 (  -0.04543%)
MG Correction to account for finite box:                  0.467627
MG Remaining discrepancy, due to discretization:         -0.187742 (  -0.01301%)
     Trial step:       0.500000000000
             Q1:  -11518.307890401105
 Quadratic coef:      59.288278720967
 Linear coef   :     -70.063143699241
           Qmin:  -11528.232075095548
Quadratic minimum step length (  0.295434212338) accepted
    Initial Ne1:    7192.00000000
      Final Ne1:    7192.00000000

=================== Penalty functional idempotency correction ==================
 RMS occupancy error at iteration   1:  0.003255 (step -0.4891 Ne1=   7192.0000)
 RMS occupancy error at iteration   2:  0.000023 (step -0.5000 Ne1=   7192.0000)
            Final RMS occupancy error   :  0.000000 (Ne1=   7192.0000)
               Final occupancy bounds   : [  0.0000,  1.0000]
================================================================================

    1        -1.150753302542E+04     1.8198E-03     1.6459E-03
MG BCs: +ve charge blocks (gridpoints):     30421 (   16849760).
MG BCs: -ve charge blocks (gridpoints):      8132 (    1076707).
MG BCs:     Elided blocks (gridpoints):    166695 (  172850238).
MG BCs: Computational effort saved:  99.9798%.
MG BCs: Charge after coarse-graining:           -9.0009676.
MG DL_MG: Calling solver with defect correction order = 8
MG DL_MG: Solver finished
MG Hartree energy from (\int phi*rho dr):              1423.824613
MG Hartree energy from (\int eps (grad phi)^2 dr):     1423.163546
MG Discrepancy due to finite box and discretization:     -0.661067 (  -0.04643%)
MG Correction to account for finite box:                  0.467570
MG Remaining discrepancy, due to discretization:         -0.193497 (  -0.01359%)
      ideal mu1:      -0.755311308596
             Q0:  -11528.605502816848
             G0:     -11.357963218986
   RMS gradient:       0.000514738404
MG BCs: +ve charge blocks (gridpoints):     30426 (   16866821).
MG BCs: -ve charge blocks (gridpoints):      8097 (    1071743).
MG BCs:     Elided blocks (gridpoints):    166689 (  172838141).
MG BCs: Computational effort saved:  99.9798%.
MG BCs: Charge after coarse-graining:           -9.0009716.
MG DL_MG: Calling solver with defect correction order = 8
MG DL_MG: Solver finished
MG Hartree energy from (\int phi*rho dr):              1429.368112
MG Hartree energy from (\int eps (grad phi)^2 dr):     1428.710512
MG Discrepancy due to finite box and discretization:     -0.657599 (  -0.04601%)
MG Correction to account for finite box:                  0.467365
MG Remaining discrepancy, due to discretization:         -0.190234 (  -0.01331%)
     Trial step:       0.384339831619
             Q1:  -11531.264170802315
 Quadratic coef:       1.706649685655
 Linear coef   :      -4.365317671122
           Qmin:  -11531.396936602290
Quadratic minimum step length (  0.491537739931) accepted
    Initial Ne1:    7191.99993077
      Final Ne1:    7192.00000000

=================== Penalty functional idempotency correction ==================
 RMS occupancy error at iteration   1:  0.001684 (step -0.4937 Ne1=   7192.0000)
 RMS occupancy error at iteration   2:  0.000008 (step -0.5000 Ne1=   7192.0000)
            Final RMS occupancy error   :  0.000000 (Ne1=   7192.0000)
               Final occupancy bounds   : [  0.0000,  1.0000]
================================================================================

    2        -1.152860550282E+04     5.1474E-04     4.6557E-04    -2.1072E+01
MG BCs: +ve charge blocks (gridpoints):     30429 (   16871682).
MG BCs: -ve charge blocks (gridpoints):      8085 (    1070327).
MG BCs:     Elided blocks (gridpoints):    166686 (  172834696).
MG BCs: Computational effort saved:  99.9798%.
MG BCs: Charge after coarse-graining:           -9.0009727.
MG DL_MG: Calling solver with defect correction order = 8
MG DL_MG: Solver finished
MG Hartree energy from (\int phi*rho dr):              1430.954353
MG Hartree energy from (\int eps (grad phi)^2 dr):     1430.297655
MG Discrepancy due to finite box and discretization:     -0.656699 (  -0.04589%)
MG Correction to account for finite box:                  0.467316
MG Remaining discrepancy, due to discretization:         -0.189383 (  -0.01323%)
      ideal mu1:      -0.777753168236
             Q0:  -11531.429139533197
             G0:      -1.786986343657
   RMS gradient:       0.000204305947
MG BCs: +ve charge blocks (gridpoints):     30433 (   16871132).
MG BCs: -ve charge blocks (gridpoints):      8096 (    1071284).
MG BCs:     Elided blocks (gridpoints):    166682 (  172834289).
MG BCs: Computational effort saved:  99.9798%.
MG BCs: Charge after coarse-graining:           -9.0009723.
MG DL_MG: Calling solver with defect correction order = 8
MG DL_MG: Solver finished
MG Hartree energy from (\int phi*rho dr):              1428.802032
MG Hartree energy from (\int eps (grad phi)^2 dr):     1428.145633
MG Discrepancy due to finite box and discretization:     -0.656398 (  -0.04594%)
MG Correction to account for finite box:                  0.467222
MG Remaining discrepancy, due to discretization:         -0.189177 (  -0.01324%)
     Trial step:       0.434646445056
             Q1:  -11531.876679974841
 Quadratic coef:       0.329166819989
 Linear coef   :      -0.776707261634
           Qmin:  -11531.887322233913
Quadratic minimum step length (  0.512799330943) accepted
    Initial Ne1:    7191.99997435
      Final Ne1:    7192.00000000

=================== Penalty functional idempotency correction ==================
 RMS occupancy error at iteration   1:  0.000560 (step -0.4978 Ne1=   7192.0000)
 RMS occupancy error at iteration   2:  0.000001 (step -0.5000 Ne1=   7192.0000)
            Final RMS occupancy error   :  0.000000 (Ne1=   7192.0000)
               Final occupancy bounds   : [  0.0000,  1.0000]
================================================================================

    3        -1.153142913953E+04     2.0431E-04     1.8479E-04    -2.8236E+00
MG BCs: +ve charge blocks (gridpoints):     30434 (   16871157).
MG BCs: -ve charge blocks (gridpoints):      8098 (    1071452).
MG BCs:     Elided blocks (gridpoints):    166681 (  172834096).
MG BCs: Computational effort saved:  99.9798%.
MG BCs: Charge after coarse-graining:           -9.0009722.
MG DL_MG: Calling solver with defect correction order = 8
MG DL_MG: Solver finished
MG Hartree energy from (\int phi*rho dr):              1428.422916
MG Hartree energy from (\int eps (grad phi)^2 dr):     1427.766563
MG Discrepancy due to finite box and discretization:     -0.656353 (  -0.04595%)
MG Correction to account for finite box:                  0.467206
MG Remaining discrepancy, due to discretization:         -0.189147 (  -0.01324%)
      ideal mu1:      -0.778825309550
             Q0:  -11531.891286505735
             G0:      -0.415358709713
   RMS gradient:       0.000098605515
MG BCs: +ve charge blocks (gridpoints):     30432 (   16871927).
MG BCs: -ve charge blocks (gridpoints):      8097 (    1071202).
MG BCs:     Elided blocks (gridpoints):    166683 (  172833576).
MG BCs: Computational effort saved:  99.9798%.
MG BCs: Charge after coarse-graining:           -9.0009724.
MG DL_MG: Calling solver with defect correction order = 8
MG DL_MG: Solver finished
MG Hartree energy from (\int phi*rho dr):              1429.579696
MG Hartree energy from (\int eps (grad phi)^2 dr):     1428.923289
MG Discrepancy due to finite box and discretization:     -0.656407 (  -0.04592%)
MG Correction to account for finite box:                  0.467133
MG Remaining discrepancy, due to discretization:         -0.189274 (  -0.01324%)
     Trial step:       0.472108468704
             Q1:  -11531.986321005388
 Quadratic coef:       0.101059864754
 Linear coef   :      -0.196094364405
           Qmin:  -11531.986410816076
Quadratic minimum step length (  0.458034504235) accepted
    Initial Ne1:    7191.99999456
      Final Ne1:    7192.00000000

=================== Penalty functional idempotency correction ==================
 RMS occupancy error at iteration   1:  0.000179 (step -0.4993 Ne1=   7192.0000)
            Final RMS occupancy error   :  0.000000 (Ne1=   7192.0000)
               Final occupancy bounds   : [ -0.0000,  1.0000]
================================================================================

    4        -1.153189128651E+04     9.8606E-05     8.9186E-05    -4.6215E-01
MG BCs: +ve charge blocks (gridpoints):     30432 (   16871916).
MG BCs: -ve charge blocks (gridpoints):      8097 (    1071198).
MG BCs:     Elided blocks (gridpoints):    166683 (  172833591).
MG BCs: Computational effort saved:  99.9798%.
MG BCs: Charge after coarse-graining:           -9.0009724.
MG DL_MG: Calling solver with defect correction order = 8
MG DL_MG: Solver finished
MG Hartree energy from (\int phi*rho dr):              1429.545202
MG Hartree energy from (\int eps (grad phi)^2 dr):     1428.888797
MG Discrepancy due to finite box and discretization:     -0.656405 (  -0.04592%)
MG Correction to account for finite box:                  0.467135
MG Remaining discrepancy, due to discretization:         -0.189270 (  -0.01324%)
      ideal mu1:      -0.779017307215
             Q0:  -11531.986800495419
             G0:      -0.100729827246
   RMS gradient:       0.000048693435
MG BCs: +ve charge blocks (gridpoints):     30429 (   16871969).
MG BCs: -ve charge blocks (gridpoints):      8097 (    1071071).
MG BCs:     Elided blocks (gridpoints):    166686 (  172833665).
MG BCs: Computational effort saved:  99.9798%.
MG BCs: Charge after coarse-graining:           -9.0009724.
MG DL_MG: Calling solver with defect correction order = 8
MG DL_MG: Solver finished
MG Hartree energy from (\int phi*rho dr):              1429.900886
MG Hartree energy from (\int eps (grad phi)^2 dr):     1429.244360
MG Discrepancy due to finite box and discretization:     -0.656527 (  -0.04591%)
MG Correction to account for finite box:                  0.467122
MG Remaining discrepancy, due to discretization:         -0.189405 (  -0.01325%)
     Trial step:       0.465018245242
             Q1:  -11532.011510277283
 Quadratic coef:       0.022131425645
 Linear coef   :      -0.046841207509
           Qmin:  -11532.011585373222
Quadratic minimum step length (  0.492106032172) accepted
    Initial Ne1:    7192.00150989
      Final Ne1:    7192.00000000

=================== Penalty functional idempotency correction ==================
 RMS occupancy error at iteration   1:  0.000063 (step -0.4997 Ne1=   7192.0000)
            Final RMS occupancy error   :  0.000000 (Ne1=   7192.0000)
               Final occupancy bounds   : [ -0.0000,  1.0000]
================================================================================

    5        -1.153198680050E+04     4.8693E-05     4.4042E-05    -9.5514E-02
MG BCs: +ve charge blocks (gridpoints):     30429 (   16871958).
MG BCs: -ve charge blocks (gridpoints):      8097 (    1071076).
MG BCs:     Elided blocks (gridpoints):    166686 (  172833671).
MG BCs: Computational effort saved:  99.9798%.
MG BCs: Charge after coarse-graining:           -9.0009724.
MG DL_MG: Calling solver with defect correction order = 8
MG DL_MG: Solver finished
MG Hartree energy from (\int phi*rho dr):              1429.921650
MG Hartree energy from (\int eps (grad phi)^2 dr):     1429.265116
MG Discrepancy due to finite box and discretization:     -0.656534 (  -0.04591%)
MG Correction to account for finite box:                  0.467121
MG Remaining discrepancy, due to discretization:         -0.189413 (  -0.01325%)
      ideal mu1:      -0.778930027575
             Q0:  -11532.011630748981
             G0:      -0.029986584513
   RMS gradient:       0.000026589253
MG BCs: +ve charge blocks (gridpoints):     30432 (   16871705).
MG BCs: -ve charge blocks (gridpoints):      8096 (    1071236).
MG BCs:     Elided blocks (gridpoints):    166683 (  172833764).
MG BCs: Computational effort saved:  99.9798%.
MG BCs: Charge after coarse-graining:           -9.0009722.
MG DL_MG: Calling solver with defect correction order = 8
MG DL_MG: Solver finished
MG Hartree energy from (\int phi*rho dr):              1429.317161
MG Hartree energy from (\int eps (grad phi)^2 dr):     1428.660637
MG Discrepancy due to finite box and discretization:     -0.656523 (  -0.04593%)
MG Correction to account for finite box:                  0.467123
MG Remaining discrepancy, due to discretization:         -0.189401 (  -0.01325%)
     Trial step:       0.478370445945
             Q1:  -11532.021062125918
 Quadratic coef:       0.004913318870
 Linear coef   :      -0.014344695806
           Qmin:  -11532.022100774600
Quadratic minimum step length (  0.698313982044) accepted
    Initial Ne1:    7192.00094657
      Final Ne1:    7192.00000000

=================== Penalty functional idempotency correction ==================
 RMS occupancy error at iteration   1:  0.000039 (step -0.4998 Ne1=   7192.0000)
            Final RMS occupancy error   :  0.000000 (Ne1=   7192.0000)
               Final occupancy bounds   : [ -0.0000,  1.0000]
================================================================================

    6        -1.153201163075E+04     2.6589E-05     2.4049E-05    -2.4830E-02
MG BCs: +ve charge blocks (gridpoints):     30431 (   16871537).
MG BCs: -ve charge blocks (gridpoints):      8097 (    1071328).
MG BCs:     Elided blocks (gridpoints):    166684 (  172833840).
MG BCs: Computational effort saved:  99.9798%.
MG BCs: Charge after coarse-graining:           -9.0009722.
MG DL_MG: Calling solver with defect correction order = 8
MG DL_MG: Solver finished
MG Hartree energy from (\int phi*rho dr):              1429.038520
MG Hartree energy from (\int eps (grad phi)^2 dr):     1428.382002
MG Discrepancy due to finite box and discretization:     -0.656518 (  -0.04594%)
MG Correction to account for finite box:                  0.467123
MG Remaining discrepancy, due to discretization:         -0.189395 (  -0.01325%)
      ideal mu1:      -0.778725822695
             Q0:  -11532.022109694197
             G0:      -0.015652591921
   RMS gradient:       0.000019232947
MG BCs: +ve charge blocks (gridpoints):     30431 (   16871972).
MG BCs: -ve charge blocks (gridpoints):      8096 (    1071116).
MG BCs:     Elided blocks (gridpoints):    166684 (  172833617).
MG BCs: Computational effort saved:  99.9798%.
MG BCs: Charge after coarse-graining:           -9.0009723.
MG DL_MG: Calling solver with defect correction order = 8
MG DL_MG: Solver finished
MG Hartree energy from (\int phi*rho dr):              1429.641794
MG Hartree energy from (\int eps (grad phi)^2 dr):     1428.985302
MG Discrepancy due to finite box and discretization:     -0.656492 (  -0.04592%)
MG Correction to account for finite box:                  0.467116
MG Remaining discrepancy, due to discretization:         -0.189377 (  -0.01325%)
     Trial step:       0.577972984663
             Q1:  -11532.026173590450
 Quadratic coef:       0.004982879018
 Linear coef   :      -0.009046775270
           Qmin:  -11532.026215962003
Quadratic minimum step length (  0.524675763307) accepted
    Initial Ne1:    7192.00016945
      Final Ne1:    7192.00000000

=================== Penalty functional idempotency correction ==================
 RMS occupancy error at iteration   1:  0.000002 (step -0.5000 Ne1=   7192.0000)
            Final RMS occupancy error   :  0.000000 (Ne1=   7192.0000)
               Final occupancy bounds   : [  0.0000,  1.0000]
================================================================================

    7        -1.153202210969E+04     1.9233E-05     1.7396E-05    -1.0479E-02
MG BCs: +ve charge blocks (gridpoints):     30431 (   16871946).
MG BCs: -ve charge blocks (gridpoints):      8096 (    1071126).
MG BCs:     Elided blocks (gridpoints):    166684 (  172833633).
MG BCs: Computational effort saved:  99.9798%.
MG BCs: Charge after coarse-graining:           -9.0009723.
MG DL_MG: Calling solver with defect correction order = 8
MG DL_MG: Solver finished
MG Hartree energy from (\int phi*rho dr):              1429.586088
MG Hartree energy from (\int eps (grad phi)^2 dr):     1428.929593
MG Discrepancy due to finite box and discretization:     -0.656495 (  -0.04592%)
MG Correction to account for finite box:                  0.467116
MG Remaining discrepancy, due to discretization:         -0.189378 (  -0.01325%)
      ideal mu1:      -0.779043483540
             Q0:  -11532.026216101018
             G0:      -0.009363462520
   RMS gradient:       0.000014876161
MG BCs: +ve charge blocks (gridpoints):     30430 (   16872013).
MG BCs: -ve charge blocks (gridpoints):      8095 (    1071082).
MG BCs:     Elided blocks (gridpoints):    166685 (  172833610).
MG BCs: Computational effort saved:  99.9798%.
MG BCs: Charge after coarse-graining:           -9.0009723.
MG DL_MG: Calling solver with defect correction order = 8
MG DL_MG: Solver finished
MG Hartree energy from (\int phi*rho dr):              1429.635834
MG Hartree energy from (\int eps (grad phi)^2 dr):     1428.979379
MG Discrepancy due to finite box and discretization:     -0.656455 (  -0.04592%)
MG Correction to account for finite box:                  0.467108
MG Remaining discrepancy, due to discretization:         -0.189347 (  -0.01324%)
     Trial step:       0.550679958686
             Q1:  -11532.030049920897
 Quadratic coef:       0.001322451275
 Linear coef   :      -0.005156271153
           Qmin:  -11532.031242209108
Quadratic minimum step length (  1.073557581851) accepted
    Initial Ne1:    7192.00020614
      Final Ne1:    7192.00000000

=================== Penalty functional idempotency correction ==================
 RMS occupancy error at iteration   1:  0.000027 (step -0.4992 Ne1=   7192.0000)
            Final RMS occupancy error   :  0.000000 (Ne1=   7192.0000)
               Final occupancy bounds   : [ -0.0000,  1.0000]
================================================================================

    8        -1.153202621610E+04     1.4876E-05     1.3455E-05    -4.1064E-03
MG BCs: +ve charge blocks (gridpoints):     30431 (   16872057).
MG BCs: -ve charge blocks (gridpoints):      8095 (    1071059).
MG BCs:     Elided blocks (gridpoints):    166684 (  172833589).
MG BCs: Computational effort saved:  99.9798%.
MG BCs: Charge after coarse-graining:           -9.0009724.
MG DL_MG: Calling solver with defect correction order = 8
MG DL_MG: Solver finished
MG Hartree energy from (\int phi*rho dr):              1429.681160
MG Hartree energy from (\int eps (grad phi)^2 dr):     1429.024743
MG Discrepancy due to finite box and discretization:     -0.656417 (  -0.04591%)
MG Correction to account for finite box:                  0.467099
MG Remaining discrepancy, due to discretization:         -0.189318 (  -0.01324%)
      ideal mu1:      -0.779157196677
             Q0:  -11532.031228425913
             G0:      -0.014636152643
   RMS gradient:       0.000018647374
MG BCs: +ve charge blocks (gridpoints):     30432 (   16871988).
MG BCs: -ve charge blocks (gridpoints):      8096 (    1071210).
MG BCs:     Elided blocks (gridpoints):    166683 (  172833507).
MG BCs: Computational effort saved:  99.9798%.
MG BCs: Charge after coarse-graining:           -9.0009723.
MG DL_MG: Calling solver with defect correction order = 8
MG DL_MG: Solver finished
MG Hartree energy from (\int phi*rho dr):              1429.339133
MG Hartree energy from (\int eps (grad phi)^2 dr):     1428.682785
MG Discrepancy due to finite box and discretization:     -0.656348 (  -0.04592%)
MG Correction to account for finite box:                  0.467087
MG Remaining discrepancy, due to discretization:         -0.189261 (  -0.01324%)
     Trial step:       0.768886626767
             Q1:  -11532.038401826867
 Quadratic coef:       0.004080141080
 Linear coef   :      -0.011253542035
           Qmin:  -11532.038988096832
Quadratic minimum step length (  1.060342988798) accepted
    Initial Ne1:    7192.00059141
      Final Ne1:    7192.00000000

=================== Penalty functional idempotency correction ==================
 RMS occupancy error at iteration   1:  0.000176 (step -0.4948 Ne1=   7192.0000)
 RMS occupancy error at iteration   2:  0.000001 (step -0.5000 Ne1=   7192.0000)
            Final RMS occupancy error   :  0.000000 (Ne1=   7192.0000)
               Final occupancy bounds   : [  0.0000,  1.0000]
================================================================================

    9        -1.153203122843E+04     1.8647E-05     1.6866E-05    -5.0123E-03
MG BCs: +ve charge blocks (gridpoints):     30432 (   16871949).
MG BCs: -ve charge blocks (gridpoints):      8096 (    1071279).
MG BCs:     Elided blocks (gridpoints):    166683 (  172833477).
MG BCs: Computational effort saved:  99.9798%.
MG BCs: Charge after coarse-graining:           -9.0009723.
MG DL_MG: Calling solver with defect correction order = 8
MG DL_MG: Solver finished
MG Hartree energy from (\int phi*rho dr):              1429.205075
MG Hartree energy from (\int eps (grad phi)^2 dr):     1428.548755
MG Discrepancy due to finite box and discretization:     -0.656320 (  -0.04592%)
MG Correction to account for finite box:                  0.467082
MG Remaining discrepancy, due to discretization:         -0.189238 (  -0.01324%)
      ideal mu1:      -0.778719020694
   10        -1.153203889256E+04     2.2310E-05     2.0179E-05    -7.6641E-03
Finished density kernel iterations (  10)

Writing density kernel to file "host_5421.vacuum_dkn" ... done


>>> Density kernel optimised for the current NGWF basis:
     ~~~~~~~~~~~~~~~~~~~~~~~~~~~~~~~~~~~~~~~~~~~~~~~~~~~~~~~~~~~
     Total energy                =  -1.15320388925649E+04  Eh
     Estimated bandgap           =  -2.5040E-01  Eh
     RMS occupancy error         =   4.9371E-11
     [H,K] commutator            =   2.0179E-05
     Occupancy bounds            = [  0.000:  1.000]
     ~~~~~~~~~~~~~~~~~~~~~~~~~~~~~~~~~~~~~~~~~~~~~~~~~~~~~~~~~~~




################################################################################
########################### NGWF CG iteration  001 #############################
################################################################################
****** Reciprocal space K.E. preconditioning with k_zero =  3.5000 a0^-1 *******

>>> Checking for convergence of NGWFs:   NOT CONVERGED
  ========================================================================
         NGWF RMS gradient =  1.6327E-03 >  2.0000E-06  | above tolerance
  ========================================================================

>>> Improving NGWFs using line search:
============ Calculation of NGWF S^-1 using Hotelling algorithm ================ 
         Iteration  |  Frobenius norm and Maximum abs value    (of I-S*S_n^-1)   
               1       0.20261442E+00     0.55135921E-02
               2       0.96088253E-03     0.43738164E-04
               3       0.37421600E-07     0.27581096E-08
               4       0.13045926E-12     0.62172489E-14
================================================================================
MG BCs: +ve charge blocks (gridpoints):     29892 (   16812706).
MG BCs: -ve charge blocks (gridpoints):      8107 (    1071266).
MG BCs:     Elided blocks (gridpoints):    167226 (  172892733).
MG BCs: Computational effort saved:  99.9801%.
MG BCs: Charge after coarse-graining:           -9.0009749.
MG DL_MG: Calling solver with defect correction order = 8
MG DL_MG: Solver finished
MG Hartree energy from (\int phi*rho dr):              1396.920882
MG Hartree energy from (\int eps (grad phi)^2 dr):     1396.265408
MG Discrepancy due to finite box and discretization:     -0.655474 (  -0.04692%)
MG Correction to account for finite box:                  0.467057
MG Remaining discrepancy, due to discretization:         -0.188417 (  -0.01349%)
============ Calculation of NGWF S^-1 using Hotelling algorithm ================ 
         Iteration  |  Frobenius norm and Maximum abs value    (of I-S*S_n^-1)   
               1       0.18273666E+01     0.43043981E-01
               2       0.69635911E-01     0.23674068E-02
               3       0.13881510E-03     0.77606286E-05
               4       0.10007448E-08     0.90971675E-10
               5       0.11069917E-12     0.66613381E-14
================================================================================
------------------------------- NGWF line search -------------------------------
RMS gradient                =       0.00163272820764
Trial step length           =               0.122474
Gradient along search dir.  =       -283.74329184711
Functional at step 0        =  -11532.03889256494585
Functional at step 1        =  -11564.06108526629396
Functional predicted        =  -11642.66550433026168
Selected quadratic step     =               0.779765
--------------------------- NGWF line search finished --------------------------
                                               
Writing NGWFs to file "host_5421.vacuum_tightbox_ngwfs"....  done

>>> Optimising kernel for current NGWFs:
   Initial electron number for spin 1:    7226.45262907
     Final electron number for spin 1:    7192.00000000

=================== Penalty functional idempotency correction ==================
 RMS occupancy error at iteration   1:  0.004347 (step -0.4851 Ne1=   7192.0000)
 RMS occupancy error at iteration   2:  0.000077 (step -0.5003 Ne1=   7192.0000)
            Final RMS occupancy error   :  0.000000 (Ne1=   7192.0000)
               Final occupancy bounds   : [  0.0000,  1.0000]
================================================================================

................................................................................
<<<<<<<<<<<<<< LNV (Original version) density kernel optimisation >>>>>>>>>>>>>>
~~~~~~~~~~~~~~~~~~~~~~~~~~~~~~~~~~~~~~~~~~~~~~~~~~~~~~~~~~~~~~~~~~~~~~~~~~~~~~~~
   iter  |      energy (Eh)       | rms gradient |  commutator  |   dE (Eh)
MG BCs: +ve charge blocks (gridpoints):     24351 (   16496077).
MG BCs: -ve charge blocks (gridpoints):      8245 (    1054997).
MG BCs:     Elided blocks (gridpoints):    172769 (  173225631).
MG BCs: Computational effort saved:  99.9829%.
MG BCs: Charge after coarse-graining:           -9.0006816.
MG DL_MG: Calling solver with defect correction order = 8
MG DL_MG: Solver finished
MG Hartree energy from (\int phi*rho dr):              1245.313754
MG Hartree energy from (\int eps (grad phi)^2 dr):     1244.657765
MG Discrepancy due to finite box and discretization:     -0.655988 (  -0.05268%)
MG Correction to account for finite box:                  0.466964
MG Remaining discrepancy, due to discretization:         -0.189024 (  -0.01518%)
      ideal mu1:      -0.718835198579
             Q0:  -11641.897375418921
             G0:      -9.649908147011
   RMS gradient:       0.000477544985
MG BCs: +ve charge blocks (gridpoints):     24426 (   16513041).
MG BCs: -ve charge blocks (gridpoints):      8229 (    1050784).
MG BCs:     Elided blocks (gridpoints):    172694 (  173212880).
MG BCs: Computational effort saved:  99.9829%.
MG BCs: Charge after coarse-graining:           -9.0006765.
MG DL_MG: Calling solver with defect correction order = 8
MG DL_MG: Solver finished
MG Hartree energy from (\int phi*rho dr):              1265.377262
MG Hartree energy from (\int eps (grad phi)^2 dr):     1264.714119
MG Discrepancy due to finite box and discretization:     -0.663143 (  -0.05241%)
MG Correction to account for finite box:                  0.466449
MG Remaining discrepancy, due to discretization:         -0.196694 (  -0.01554%)
     Trial step:       0.902930531034
             Q1:  -11638.699523566058
 Quadratic coef:      11.911048540474
 Linear coef   :      -8.713196687611
           Qmin:  -11643.490849668040
Quadratic minimum step length (  0.330256873919) accepted
    Initial Ne1:    7191.99946957
      Final Ne1:    7192.00000000

=================== Penalty functional idempotency correction ==================
 RMS occupancy error at iteration   1:  0.000350 (step -0.4986 Ne1=   7192.0000)
 RMS occupancy error at iteration   2:  0.000000 (step -0.5000 Ne1=   7192.0000)
            Final RMS occupancy error   :  0.000000 (Ne1=   7192.0000)
               Final occupancy bounds   : [  0.0000,  1.0000]
================================================================================

    1        -1.164189737542E+04     4.7754E-04     4.3193E-04
MG BCs: +ve charge blocks (gridpoints):     24377 (   16502288).
MG BCs: -ve charge blocks (gridpoints):      8245 (    1053517).
MG BCs:     Elided blocks (gridpoints):    172743 (  173220900).
MG BCs: Computational effort saved:  99.9829%.
MG BCs: Charge after coarse-graining:           -9.0006798.
MG DL_MG: Calling solver with defect correction order = 8
MG DL_MG: Solver finished
MG Hartree energy from (\int phi*rho dr):              1251.293810
MG Hartree energy from (\int eps (grad phi)^2 dr):     1250.635347
MG Discrepancy due to finite box and discretization:     -0.658463 (  -0.05262%)
MG Correction to account for finite box:                  0.466750
MG Remaining discrepancy, due to discretization:         -0.191713 (  -0.01532%)
      ideal mu1:      -0.725042453418
             Q0:  -11643.453471739776
             G0:      -0.967606689812
   RMS gradient:       0.000152504070
MG BCs: +ve charge blocks (gridpoints):     24383 (   16502008).
MG BCs: -ve charge blocks (gridpoints):      8247 (    1054393).
MG BCs:     Elided blocks (gridpoints):    172737 (  173220304).
MG BCs: Computational effort saved:  99.9829%.
MG BCs: Charge after coarse-graining:           -9.0006796.
MG DL_MG: Calling solver with defect correction order = 8
MG DL_MG: Solver finished
MG Hartree energy from (\int phi*rho dr):              1252.465352
MG Hartree energy from (\int eps (grad phi)^2 dr):     1251.806499
MG Discrepancy due to finite box and discretization:     -0.658853 (  -0.05260%)
MG Correction to account for finite box:                  0.466721
MG Remaining discrepancy, due to discretization:         -0.192132 (  -0.01534%)
     Trial step:       0.546076015354
             Q1:  -11643.640875272453
 Quadratic coef:       0.340983272927
 Linear coef   :      -0.528386805603
           Qmin:  -11643.658168449632
Quadratic minimum step length (  0.423098996753) accepted
    Initial Ne1:    7191.99993069
      Final Ne1:    7192.00000000

=================== Penalty functional idempotency correction ==================
 RMS occupancy error at iteration   1:  0.000139 (step -0.4994 Ne1=   7192.0000)
            Final RMS occupancy error   :  0.000000 (Ne1=   7192.0000)
               Final occupancy bounds   : [ -0.0000,  1.0000]
================================================================================

    2        -1.164345347174E+04     1.5250E-04     1.3794E-04    -1.5561E+00
MG BCs: +ve charge blocks (gridpoints):     24382 (   16502098).
MG BCs: -ve charge blocks (gridpoints):      8246 (    1054181).
MG BCs:     Elided blocks (gridpoints):    172738 (  173220426).
MG BCs: Computational effort saved:  99.9829%.
MG BCs: Charge after coarse-graining:           -9.0006796.
MG DL_MG: Calling solver with defect correction order = 8
MG DL_MG: Solver finished
MG Hartree energy from (\int phi*rho dr):              1252.200984
MG Hartree energy from (\int eps (grad phi)^2 dr):     1251.542222
MG Discrepancy due to finite box and discretization:     -0.658762 (  -0.05261%)
MG Correction to account for finite box:                  0.466727
MG Remaining discrepancy, due to discretization:         -0.192035 (  -0.01534%)
      ideal mu1:      -0.725910260873
             Q0:  -11643.658638219931
             G0:      -0.143789556460
   RMS gradient:       0.000058226942
MG BCs: +ve charge blocks (gridpoints):     24380 (   16501426).
MG BCs: -ve charge blocks (gridpoints):      8253 (    1054593).
MG BCs:     Elided blocks (gridpoints):    172740 (  173220686).
MG BCs: Computational effort saved:  99.9829%.
MG BCs: Charge after coarse-graining:           -9.0006797.
MG DL_MG: Calling solver with defect correction order = 8
MG DL_MG: Solver finished
MG Hartree energy from (\int phi*rho dr):              1251.726809
MG Hartree energy from (\int eps (grad phi)^2 dr):     1251.068093
MG Discrepancy due to finite box and discretization:     -0.658715 (  -0.05262%)
MG Correction to account for finite box:                  0.466706
MG Remaining discrepancy, due to discretization:         -0.192010 (  -0.01534%)
     Trial step:       0.480670588082
             Q1:  -11643.702472698875
 Quadratic coef:       0.025280931721
 Linear coef   :      -0.069115410664
           Qmin:  -11643.705876787362
Quadratic minimum step length (  0.657051438138) accepted
    Initial Ne1:    7192.00057015
      Final Ne1:    7192.00000000

=================== Penalty functional idempotency correction ==================
 RMS occupancy error at iteration   1:  0.000060 (step -0.4998 Ne1=   7192.0000)
            Final RMS occupancy error   :  0.000000 (Ne1=   7192.0000)
               Final occupancy bounds   : [ -0.0000,  1.0000]
================================================================================

    3        -1.164365863822E+04     5.8227E-05     5.2665E-05    -2.0517E-01
MG BCs: +ve charge blocks (gridpoints):     24381 (   16501134).
MG BCs: -ve charge blocks (gridpoints):      8257 (    1054762).
MG BCs:     Elided blocks (gridpoints):    172739 (  173220809).
MG BCs: Computational effort saved:  99.9829%.
MG BCs: Charge after coarse-graining:           -9.0006797.
MG DL_MG: Calling solver with defect correction order = 8
MG DL_MG: Solver finished
MG Hartree energy from (\int phi*rho dr):              1251.552876
MG Hartree energy from (\int eps (grad phi)^2 dr):     1250.894177
MG Discrepancy due to finite box and discretization:     -0.658699 (  -0.05263%)
MG Correction to account for finite box:                  0.466698
MG Remaining discrepancy, due to discretization:         -0.192001 (  -0.01534%)
      ideal mu1:      -0.724976460543
             Q0:  -11643.705959202023
             G0:      -0.034877225652
   RMS gradient:       0.000028669526
MG BCs: +ve charge blocks (gridpoints):     24379 (   16501029).
MG BCs: -ve charge blocks (gridpoints):      8255 (    1054760).
MG BCs:     Elided blocks (gridpoints):    172741 (  173220916).
MG BCs: Computational effort saved:  99.9829%.
MG BCs: Charge after coarse-graining:           -9.0006797.
MG DL_MG: Calling solver with defect correction order = 8
MG DL_MG: Solver finished
MG Hartree energy from (\int phi*rho dr):              1251.570981
MG Hartree energy from (\int eps (grad phi)^2 dr):     1250.912383
MG Discrepancy due to finite box and discretization:     -0.658598 (  -0.05262%)
MG Correction to account for finite box:                  0.466703
MG Remaining discrepancy, due to discretization:         -0.191894 (  -0.01533%)
     Trial step:       0.561983363784
             Q1:  -11643.714651166461
 Quadratic coef:       0.010908456154
 Linear coef   :      -0.019600420591
           Qmin:  -11643.714763758826
Quadratic minimum step length (  0.504888599286) accepted
    Initial Ne1:    7192.00021205
      Final Ne1:    7192.00000000

=================== Penalty functional idempotency correction ==================
 RMS occupancy error at iteration   1:  0.000018 (step -0.4999 Ne1=   7192.0000)
            Final RMS occupancy error   :  0.000000 (Ne1=   7192.0000)
               Final occupancy bounds   : [ -0.0000,  1.0000]
================================================================================

    4        -1.164370595920E+04     2.8670E-05     2.5931E-05    -4.7321E-02
MG BCs: +ve charge blocks (gridpoints):     24379 (   16501037).
MG BCs: -ve charge blocks (gridpoints):      8255 (    1054761).
MG BCs:     Elided blocks (gridpoints):    172741 (  173220907).
MG BCs: Computational effort saved:  99.9829%.
MG BCs: Charge after coarse-graining:           -9.0006797.
MG DL_MG: Calling solver with defect correction order = 8
MG DL_MG: Solver finished
MG Hartree energy from (\int phi*rho dr):              1251.568972
MG Hartree energy from (\int eps (grad phi)^2 dr):     1250.910364
MG Discrepancy due to finite box and discretization:     -0.658608 (  -0.05262%)
MG Correction to account for finite box:                  0.466703
MG Remaining discrepancy, due to discretization:         -0.191905 (  -0.01533%)
      ideal mu1:      -0.725023571802
             Q0:  -11643.714768504142
             G0:      -0.011623452834
   RMS gradient:       0.000016570405
MG BCs: +ve charge blocks (gridpoints):     24379 (   16501550).
MG BCs: -ve charge blocks (gridpoints):      8254 (    1054555).
MG BCs:     Elided blocks (gridpoints):    172741 (  173220600).
MG BCs: Computational effort saved:  99.9829%.
MG BCs: Charge after coarse-graining:           -9.0006796.
MG DL_MG: Calling solver with defect correction order = 8
MG DL_MG: Solver finished
MG Hartree energy from (\int phi*rho dr):              1251.963108
MG Hartree energy from (\int eps (grad phi)^2 dr):     1251.304539
MG Discrepancy due to finite box and discretization:     -0.658570 (  -0.05260%)
MG Correction to account for finite box:                  0.466698
MG Remaining discrepancy, due to discretization:         -0.191871 (  -0.01533%)
     Trial step:       0.532671562375
             Q1:  -11643.718047861126
 Quadratic coef:       0.002912125796
 Linear coef   :      -0.006191482781
           Qmin:  -11643.718059438474
Quadratic minimum step length (  0.566257613459) accepted
    Initial Ne1:    7192.00009218
      Final Ne1:    7192.00000000

=================== Penalty functional idempotency correction ==================
 RMS occupancy error at iteration   1:  0.000010 (step -0.5000 Ne1=   7192.0000)
            Final RMS occupancy error   :  0.000000 (Ne1=   7192.0000)
               Final occupancy bounds   : [ -0.0000,  1.0000]
================================================================================

    5        -1.164371476850E+04     1.6570E-05     1.4988E-05    -8.8093E-03
MG BCs: +ve charge blocks (gridpoints):     24379 (   16501571).
MG BCs: -ve charge blocks (gridpoints):      8254 (    1054549).
MG BCs:     Elided blocks (gridpoints):    172741 (  173220585).
MG BCs: Computational effort saved:  99.9829%.
MG BCs: Charge after coarse-graining:           -9.0006796.
MG DL_MG: Calling solver with defect correction order = 8
MG DL_MG: Solver finished
MG Hartree energy from (\int phi*rho dr):              1251.987986
MG Hartree energy from (\int eps (grad phi)^2 dr):     1251.329418
MG Discrepancy due to finite box and discretization:     -0.658567 (  -0.05260%)
MG Correction to account for finite box:                  0.466698
MG Remaining discrepancy, due to discretization:         -0.191869 (  -0.01533%)
      ideal mu1:      -0.725384371620
             Q0:  -11643.718060457497
             G0:      -0.003801493916
   RMS gradient:       0.000009476580
MG BCs: +ve charge blocks (gridpoints):     24379 (   16501551).
MG BCs: -ve charge blocks (gridpoints):      8254 (    1054560).
MG BCs:     Elided blocks (gridpoints):    172741 (  173220594).
MG BCs: Computational effort saved:  99.9829%.
MG BCs: Charge after coarse-graining:           -9.0006796.
MG DL_MG: Calling solver with defect correction order = 8
MG DL_MG: Solver finished
MG Hartree energy from (\int phi*rho dr):              1251.953410
MG Hartree energy from (\int eps (grad phi)^2 dr):     1251.294848
MG Discrepancy due to finite box and discretization:     -0.658562 (  -0.05260%)
MG Correction to account for finite box:                  0.466697
MG Remaining discrepancy, due to discretization:         -0.191865 (  -0.01533%)
     Trial step:       0.549207909328
             Q1:  -11643.719381575705
 Quadratic coef:       0.000766692317
 Linear coef   :      -0.002087810526
           Qmin:  -11643.719481807591
Quadratic minimum step length (  0.747785016121) accepted
    Initial Ne1:    7192.00004989
      Final Ne1:    7192.00000000

=================== Penalty functional idempotency correction ==================
 RMS occupancy error at iteration   1:  0.000007 (step -0.4999 Ne1=   7192.0000)
            Final RMS occupancy error   :  0.000000 (Ne1=   7192.0000)
               Final occupancy bounds   : [ -0.0000,  1.0000]
================================================================================

    6        -1.164371806046E+04     9.4766E-06     8.5714E-06    -3.2920E-03
MG BCs: +ve charge blocks (gridpoints):     24379 (   16501555).
MG BCs: -ve charge blocks (gridpoints):      8254 (    1054578).
MG BCs:     Elided blocks (gridpoints):    172741 (  173220572).
MG BCs: Computational effort saved:  99.9829%.
MG BCs: Charge after coarse-graining:           -9.0006796.
MG DL_MG: Calling solver with defect correction order = 8
MG DL_MG: Solver finished
MG Hartree energy from (\int phi*rho dr):              1251.940858
MG Hartree energy from (\int eps (grad phi)^2 dr):     1251.282298
MG Discrepancy due to finite box and discretization:     -0.658560 (  -0.05260%)
MG Correction to account for finite box:                  0.466697
MG Remaining discrepancy, due to discretization:         -0.191864 (  -0.01533%)
      ideal mu1:      -0.725356111187
             Q0:  -11643.719481789274
             G0:      -0.002335345717
   RMS gradient:       0.000007428965
MG BCs: +ve charge blocks (gridpoints):     24379 (   16501302).
MG BCs: -ve charge blocks (gridpoints):      8254 (    1054668).
MG BCs:     Elided blocks (gridpoints):    172741 (  173220735).
MG BCs: Computational effort saved:  99.9829%.
MG BCs: Charge after coarse-graining:           -9.0006796.
MG DL_MG: Calling solver with defect correction order = 8
MG DL_MG: Solver finished
MG Hartree energy from (\int phi*rho dr):              1251.829195
MG Hartree energy from (\int eps (grad phi)^2 dr):     1251.170620
MG Discrepancy due to finite box and discretization:     -0.658575 (  -0.05261%)
MG Correction to account for finite box:                  0.466701
MG Remaining discrepancy, due to discretization:         -0.191874 (  -0.01533%)
     Trial step:       0.640850563962
             Q1:  -11643.719986733748
 Quadratic coef:       0.000991663146
 Linear coef   :      -0.001496607620
           Qmin:  -11643.720046455404
Quadratic minimum step length (  0.483582475041) accepted
    Initial Ne1:    7192.00001510
      Final Ne1:    7192.00000000

=================== Penalty functional idempotency correction ==================
 RMS occupancy error at iteration   1:  0.000001 (step -0.5000 Ne1=   7192.0000)
            Final RMS occupancy error   :  0.000000 (Ne1=   7192.0000)
               Final occupancy bounds   : [  0.0000,  1.0000]
================================================================================

    7        -1.164371948179E+04     7.4290E-06     6.7193E-06    -1.4213E-03
MG BCs: +ve charge blocks (gridpoints):     24379 (   16501364).
MG BCs: -ve charge blocks (gridpoints):      8254 (    1054643).
MG BCs:     Elided blocks (gridpoints):    172741 (  173220698).
MG BCs: Computational effort saved:  99.9829%.
MG BCs: Charge after coarse-graining:           -9.0006796.
MG DL_MG: Calling solver with defect correction order = 8
MG DL_MG: Solver finished
MG Hartree energy from (\int phi*rho dr):              1251.856543
MG Hartree energy from (\int eps (grad phi)^2 dr):     1251.197972
MG Discrepancy due to finite box and discretization:     -0.658571 (  -0.05261%)
MG Correction to account for finite box:                  0.466700
MG Remaining discrepancy, due to discretization:         -0.191871 (  -0.01533%)
      ideal mu1:      -0.725252248373
             Q0:  -11643.720046445495
             G0:      -0.001458233149
   RMS gradient:       0.000005870262
MG BCs: +ve charge blocks (gridpoints):     24379 (   16501344).
MG BCs: -ve charge blocks (gridpoints):      8254 (    1054656).
MG BCs:     Elided blocks (gridpoints):    172741 (  173220705).
MG BCs: Computational effort saved:  99.9829%.
MG BCs: Charge after coarse-graining:           -9.0006796.
MG DL_MG: Calling solver with defect correction order = 8
MG DL_MG: Solver finished
MG Hartree energy from (\int phi*rho dr):              1251.808823
MG Hartree energy from (\int eps (grad phi)^2 dr):     1251.150240
MG Discrepancy due to finite box and discretization:     -0.658582 (  -0.05261%)
MG Correction to account for finite box:                  0.466703
MG Remaining discrepancy, due to discretization:         -0.191879 (  -0.01533%)
     Trial step:       0.556690310543
             Q1:  -11643.720684834057
 Quadratic coef:       0.000173395701
 Linear coef   :      -0.000811784265
           Qmin:  -11643.720996575294
Quadratic minimum step length (  1.303124675188) accepted
    Initial Ne1:    7192.00002534
      Final Ne1:    7192.00000000

=================== Penalty functional idempotency correction ==================
 RMS occupancy error at iteration   1:  0.000011 (step -0.4994 Ne1=   7192.0000)
            Final RMS occupancy error   :  0.000000 (Ne1=   7192.0000)
               Final occupancy bounds   : [ -0.0000,  1.0000]
================================================================================

    8        -1.164372004645E+04     5.8703E-06     5.3095E-06    -5.6466E-04
MG BCs: +ve charge blocks (gridpoints):     24378 (   16501272).
MG BCs: -ve charge blocks (gridpoints):      8254 (    1054686).
MG BCs:     Elided blocks (gridpoints):    172742 (  173220747).
MG BCs: Computational effort saved:  99.9829%.
[...]
MG DL_MG: Calling solver with defect correction order = 8
MG DL_MG: Solver finished
MG Hartree energy from (\int phi*rho dr):              1209.151227
MG Hartree energy from (\int eps (grad phi)^2 dr):     1208.954096
MG Discrepancy due to finite box and discretization:     -0.197132 (  -0.01630%)
MG Correction to account for finite box:                  0.006415
MG Remaining discrepancy, due to discretization:         -0.190716 (  -0.01577%)
             Q2:  -11677.872263042605
  Cubic LS coeff:       1.008684357289
Predicted energy:  -11677.872263042598
Cubic minimum step length accepted
    Initial Ne1:    7192.00000000
      Final Ne1:    7192.00000000

=================== Penalty functional idempotency correction ==================
 RMS occupancy error at iteration   1:  0.000000 (step -0.5000 Ne1=   7192.0000)
            Final RMS occupancy error   :  0.000000 (Ne1=   7192.0000)
               Final occupancy bounds   : [ -0.0000,  1.0000]
================================================================================

    7        -1.167787226304E+04     9.2076E-09     8.3281E-09    -2.4447E-09

Reusing previously generated solute cavity.
MG BCs: +ve charge blocks (gridpoints):     28792 (   18695908).
MG BCs: -ve charge blocks (gridpoints):      8232 (    1023875).
MG BCs:     Elided blocks (gridpoints):    168328 (  171056922).
MG BCs: Computational effort saved:  99.9806%.
MG BCs: Charge after coarse-graining:           -9.0009520.
MG DL_MG: Calling solver with defect correction order = 8
MG DL_MG: Solver finished
MG Hartree energy from (\int phi*rho dr):              1209.151227
MG Hartree energy from (\int eps (grad phi)^2 dr):     1208.954096
MG Discrepancy due to finite box and discretization:     -0.197132 (  -0.01630%)
MG Correction to account for finite box:                  0.006415
MG Remaining discrepancy, due to discretization:         -0.190716 (  -0.01577%)
      ideal mu1:      -0.480946428345
             Q0:  -11677.872263042722
             G0:      -0.000000004728
   RMS gradient:       0.000000010921

Reusing previously generated solute cavity.
MG BCs: +ve charge blocks (gridpoints):     28792 (   18695908).
MG BCs: -ve charge blocks (gridpoints):      8232 (    1023875).
MG BCs:     Elided blocks (gridpoints):    168328 (  171056922).
MG BCs: Computational effort saved:  99.9806%.
MG BCs: Charge after coarse-graining:           -9.0009521.
MG DL_MG: Calling solver with defect correction order = 8
MG DL_MG: Solver finished
MG Hartree energy from (\int phi*rho dr):              1209.151187
MG Hartree energy from (\int eps (grad phi)^2 dr):     1208.954056
MG Discrepancy due to finite box and discretization:     -0.197132 (  -0.01630%)
MG Correction to account for finite box:                  0.006415
MG Remaining discrepancy, due to discretization:         -0.190716 (  -0.01577%)
     Trial step:       0.698202070118
             Q1:  -11677.872263044235
 Quadratic coef:       0.000000001788
 Linear coef   :      -0.000000003301
           Qmin:  -11677.872263044246
Quadratic minimum step length (  0.644484844212) accepted
    Initial Ne1:    7192.00000000
      Final Ne1:    7192.00000000

=================== Penalty functional idempotency correction ==================
 RMS occupancy error at iteration   1:  0.000000 (step -0.5000 Ne1=   7192.0000)
            Final RMS occupancy error   :  0.000000 (Ne1=   7192.0000)
               Final occupancy bounds   : [  0.0000,  1.0000]
================================================================================

    8        -1.167787226304E+04     1.0921E-08     9.8774E-09    -4.0745E-09

Reusing previously generated solute cavity.
MG BCs: +ve charge blocks (gridpoints):     28792 (   18695908).
MG BCs: -ve charge blocks (gridpoints):      8232 (    1023875).
MG BCs:     Elided blocks (gridpoints):    168328 (  171056922).
MG BCs: Computational effort saved:  99.9806%.
MG BCs: Charge after coarse-graining:           -9.0009521.
MG DL_MG: Calling solver with defect correction order = 8
MG DL_MG: Solver finished
MG Hartree energy from (\int phi*rho dr):              1209.151190
MG Hartree energy from (\int eps (grad phi)^2 dr):     1208.954059
MG Discrepancy due to finite box and discretization:     -0.197132 (  -0.01630%)
MG Correction to account for finite box:                  0.006415
MG Remaining discrepancy, due to discretization:         -0.190716 (  -0.01577%)
      ideal mu1:      -0.480946383477
             Q0:  -11677.872263044119
             G0:      -0.000000002603
   RMS gradient:       0.000000006762

Reusing previously generated solute cavity.
MG BCs: +ve charge blocks (gridpoints):     28792 (   18695908).
MG BCs: -ve charge blocks (gridpoints):      8232 (    1023875).
MG BCs:     Elided blocks (gridpoints):    168328 (  171056922).
MG BCs: Computational effort saved:  99.9806%.
MG BCs: Charge after coarse-graining:           -9.0009520.
MG DL_MG: Calling solver with defect correction order = 8
MG DL_MG: Solver finished
MG Hartree energy from (\int phi*rho dr):              1209.151187
MG Hartree energy from (\int eps (grad phi)^2 dr):     1208.954055
MG Discrepancy due to finite box and discretization:     -0.197132 (  -0.01630%)
MG Correction to account for finite box:                  0.006415
MG Remaining discrepancy, due to discretization:         -0.190716 (  -0.01577%)
     Trial step:       0.670805972237
             Q1:  -11677.872263043886
 Quadratic coef:       0.000000001979
 Linear coef   :      -0.000000001746
           Qmin:  -11677.872263044505
Quadratic minimum step length (  0.295932524737) accepted
    Initial Ne1:    7192.00000000
      Final Ne1:    7192.00000000

=================== Penalty functional idempotency correction ==================
 RMS occupancy error at iteration   1:  0.000000 (step -0.5000 Ne1=   7192.0000)
            Final RMS occupancy error   :  0.000000 (Ne1=   7192.0000)
               Final occupancy bounds   : [  0.0000,  1.0000]
================================================================================

    9        -1.167787226304E+04     6.7619E-09     6.1160E-09    -1.3970E-09

Reusing previously generated solute cavity.
MG BCs: +ve charge blocks (gridpoints):     28792 (   18695908).
MG BCs: -ve charge blocks (gridpoints):      8232 (    1023875).
MG BCs:     Elided blocks (gridpoints):    168328 (  171056922).
MG BCs: Computational effort saved:  99.9806%.
MG BCs: Charge after coarse-graining:           -9.0009520.
MG DL_MG: Calling solver with defect correction order = 8
MG DL_MG: Solver finished
MG Hartree energy from (\int phi*rho dr):              1209.151189
MG Hartree energy from (\int eps (grad phi)^2 dr):     1208.954057
MG Discrepancy due to finite box and discretization:     -0.197132 (  -0.01630%)
MG Correction to account for finite box:                  0.006415
MG Remaining discrepancy, due to discretization:         -0.190716 (  -0.01577%)
      ideal mu1:      -0.480946380039
   10        -1.167787226304E+04     4.4504E-09     4.0253E-09    -1.1642E-10
Finished density kernel iterations (  10)

Writing density kernel to file "host_5421.dkn" ... done


>>> Density kernel optimised for the current NGWF basis:
     ~~~~~~~~~~~~~~~~~~~~~~~~~~~~~~~~~~~~~~~~~~~~~~~~~~~~~~~~~~~
     Total energy                =  -1.16778722630442E+04  Eh
     Estimated bandgap           =   7.9636E-02  Eh
     RMS occupancy error         =   4.0037E-16
     [H,K] commutator            =   4.0253E-09
     Occupancy bounds            = [  0.000:  1.000]
     ~~~~~~~~~~~~~~~~~~~~~~~~~~~~~~~~~~~~~~~~~~~~~~~~~~~~~~~~~~~




################################################################################
########################### NGWF CG iteration  004 #############################
################################################################################
****** Reciprocal space K.E. preconditioning with k_zero =  3.5000 a0^-1 *******

>>> Checking for convergence of NGWFs: 
           ........................................................
           |         *** NGWF optimisation converged ***          |
           | RMS NGWF gradient =    0.00000197023627              |
           | Criteria satisfied:                                  |
           | -> RMS NGWF gradient lower than set threshold.       |
           ========================================================

Reusing previously generated solute cavity.
MG BCs: +ve charge blocks (gridpoints):     28792 (   18695908).
MG BCs: -ve charge blocks (gridpoints):      8232 (    1023875).
MG BCs:     Elided blocks (gridpoints):    168328 (  171056922).
MG BCs: Computational effort saved:  99.9806%.
MG BCs: Charge after coarse-graining:           -9.0009520.
MG DL_MG: Calling solver with defect correction order = 8
MG DL_MG: Solver finished
MG Hartree energy from (\int phi*rho dr):              1209.151189
MG Hartree energy from (\int eps (grad phi)^2 dr):     1208.954057
MG Discrepancy due to finite box and discretization:     -0.197132 (  -0.01630%)
MG Correction to account for finite box:                  0.006415
MG Remaining discrepancy, due to discretization:         -0.190716 (  -0.01577%)

================================================================================
           ---------------- ENERGY COMPONENTS (Eh) ----------------
           | Kinetic                    :     8526.64616927301176 |
           | Pseudo. (local,OBC,corr'd) :    -5047.85111216847417 |
           | Pseudopotential (non-local):     1403.58968632219921 |
           | Hartree (molecular)        :     1209.15118888222037 |
           | Exchange-correlation       :    -3357.63871151651938 |
           | Ion-ion (open BC)          :   824650.20575785101391 |
           | Dispersion Correction      :       -3.27861676377120 |
           | Smeared ion non-self corr. :  -824602.17230476113036 |
           | Smeared ion self corr.     :   -14457.16956389741972 |
           | Solvent cavitation energy  :        2.29562833644456 |
           | Solute-solvent dis-rep en. :       -1.65038460177841 |
           | Total                      :   -11677.87226304427713 |
           --------------------------------------------------------
           ------ LOCAL ENERGY COMPONENTS FROM MATRIX TRACES ------
           | Pseudopotential (local)    :    -5047.85111216848873 |
           | Hartree                    :    -1989.99909185328852 |
           --------------------------------------------------------
           Integrated density           :     7191.99999999802549
           Integrated density tr(KS)    :     7192.00000000000000
================================================================================


                        <<<<< CALCULATION SUMMARY >>>>>                         
|ITER|    RMS GRADIENT   |     TOTAL ENERGY    |   step   |     Epredicted              
   0     0.00003925032780 -11677.81561503652483   0.595267 -11677.86442024807911        
   1     0.00001040188172 -11677.87162758992054   0.092056 -11677.87215767375528        
   2     0.00000449995978 -11677.87224306922872   0.016150 -11677.87226047307922        
   3     0.00000197023627 -11677.87226304423530  <-- CG                                 

=================== Finished the calculation in solvent ========================
= Adjusting the following parameters: 
= read_denskern: F
= read_tightbox_ngwfs: F
= maxit_pen: 0 (restored to user-specified value)
= restart read filename prefix: ""
= restart write filename prefix: ""
================================================================================

================================================================================
IS: Calculation in solvent completed (NGWFs converged).      

Individual components of total energy in solvent:     hartree           kcal/mol
- Usual non-electrostatic DFT terms:    -12887.66869566112109    -8087134.029663
- Electrostatic fixed charge energy:      1209.15118888222037      758753.810137
- Apolar cavitation energy:                  2.29562833644456        1440.528499
- Apolar dispersion-repulsion energy:       -1.65038460177841       -1035.631951
 -------------------------------------------------------------------------------
- Total energy in solvent:              -11677.87226304423530    -7327975.322978

Components of total energy in solvent:                hartree           kcal/mol
- Usual non-electrostatic DFT terms:    -12887.66869566112109    -8087134.029663
- Electrostatic energy:                   1209.15118888222037      758753.810137
- Apolar energy terms:                       0.64524373466615         404.896548
 -------------------------------------------------------------------------------
- Total energy in solvent:              -11677.87226304423530    -7327975.322978

Calculation of free energy of solvation:              hartree           kcal/mol
- Total energy in solvent:         (+)  -11677.87226304423530    -7327975.322978
- Total energy in vacuum:          (-)  -11674.14510788139887    -7325636.497853
 -------------------------------------------------------------------------------
- Total free energy of solvation:           -3.72715516283643       -2338.825125

Components of polar term in f.e. of solvation:        hartree           kcal/mol
- Electrostatic:                            -4.64321763505268       -2913.662993
- Change in nonelectrostatic DFT terms:      0.27081873755014         169.941320
 -------------------------------------------------------------------------------
- Polar term in f.e. of solvation:          -4.37239889750253       -2743.721673

Components of free energy of solvation:               hartree           kcal/mol
- Polar term in f.e. of solvation: (+)      -4.37239889750253       -2743.721673
- Apolar (cavitation, dis., rep.): (+)       0.64524373466615         404.896548
 -------------------------------------------------------------------------------
- Total free energy of solvation:           -3.72715516283638       -2338.825125
================================================================================


------------------------------ TIMING INFORMATION ------------------------------
AVERAGE TIME:   32204.756s on     40 node(s)                                    
TOTAL TIME:     32204.757s on     40 node(s)                                    
================= AVERAGE TIMINGS FROM ALL NODES (CUMULATIVE) ==================
|| TAG                                    #calls    cpu time   %total  Gflops ||
|| work_imbalance                       :     1        0.00s   0.000%  ------ ||
|| parallel_prepare_fd_halos_request    :  2313        0.02s   0.000%  ------ ||
|| sparse_set_to_garbage                :   218        0.05s   0.000%  ------ ||
|| parallel_prepare_fd_halos_satisfy    :  2313        0.07s   0.000%  ------ ||
|| ngwfs_initialise_from_radial         :     1        0.15s   0.000%  ------ ||
|| basis_extract_function_from_box      :  6342        0.26s   0.001%  ------ ||
|| parallel_prepare_fd_halos_alloc      :  2313        0.43s   0.001%  ------ ||
|| restart_ngwfs_tightbox_input         :     1        0.87s   0.003%  ------ ||
|| density_init_guess_real              :     1        2.43s   0.008%  ------ ||
|| pseudopotentials_nonlocal_mat        :    37        2.93s   0.009%  ------ ||
|| restart_kernel_read                  :     1        4.29s   0.013%  ------ ||
|| openbc_locps_radial                  :     1        5.07s   0.016%  ------ ||
|| parallel_prepare_fd_halos_comms_imbal:  2313        8.94s   0.028%  ------ ||
|| parallel_prepare_fd_halos_clear      :  2313       17.06s   0.053%  ------ ||
|| restart_kernel_write                 :    20       17.80s   0.055%  ------ ||
|| sparse_init                          :     2       24.13s   0.075%  ------ ||
|| parallel_prepare_fd_halos_comms_wait :  2313       29.41s   0.091%  ------ ||
|| projectors_func_ovlp_box             :    37       30.24s   0.094%  ------ ||
|| projectors_init_fftbox_recip         :   246       34.07s   0.106%  ------ ||
|| function_ops_brappd_ketppd           :    37       36.53s   0.113%  ------ ||
|| palser_mano_kernel_optimise          :     1       49.69s   0.154%  ------ ||
|| pseudo_make_structure_factor         :     2       53.71s   0.167%  ------ ||
|| parallel_prepare_fd_halos            :  2313       55.94s   0.174%  ------ ||
|| fourier_apply_box_pair               :  9199       63.67s   0.198% 557.660 ||
|| basis_copy_function_to_box           : 103.6k      64.30s   0.200%  ------ ||
|| ngwf_gradient_coeffs                 :    19       76.54s   0.238%  ------ ||
|| restart_ngwfs_tightbox_output        :    17      104.16s   0.323%  ------ ||
|| sparse_embed_hotelling_invert_embed  :    37      111.01s   0.345%  ------ ||
|| finite_difference_derivative         :  2313      157.82s   0.490%  ------ ||
|| openbc_locps_on_grid                 :     2      186.40s   0.579%  ------ ||
|| integrals_kinetic                    :    37      218.07s   0.677%  ------ ||
|| projectors_gradient_batch            :   209      254.37s   0.790%  ------ ||
|| fourier_apply_cell_forward           :  1541      263.41s   0.818%  79.633 ||
|| fourier_apply_cell_backward          :  1543      278.23s   0.864%  75.489 ||
|| sparse_trace                         :  5980      327.73s   1.018%  ------ ||
|| basis_dot_function_with_box          : 15.73M     370.89s   1.152%  ------ ||
|| kernel_purify                        :   589      424.45s   1.318%  ------ ||
|| hamiltonian_energy_components        :     4      435.74s   1.353%  ------ ||
|| xc_energy_potential                  :   385      635.74s   1.974%  ------ ||
|| lnv_gradient_norm                    :   190      688.74s   2.139%  ------ ||
|| basis_add_function_to_box            : 32.97M     700.58s   2.175%  ------ ||
|| kernel_fix                           :   190      710.67s   2.207%  ------ ||
|| ngwf_gradient_build_batch            :   209      917.36s   2.849%  ------ ||
|| cell_grid_deposit_box_real           : 64969     1055.05s   3.276%  ------ ||
|| cell_grid_extract_box_real           : 60373     1216.19s   3.776%  ------ ||
|| integrals_locpot_mat_els_batch       :  2189     1284.21s   3.988%  ------ ||
|| ngwf_gradient_batch                  :   209     1289.60s   4.004%  ------ ||
|| ngwf_gradient_lnv                    :    19     1503.68s   4.669%  ------ ||
|| density_batch_row_sums               :  4224     1606.76s   4.989%  ------ ||
|| density_fftbox_deposit_to_cell       : 62592     1863.89s   5.788%  ------ ||
|| sparse_product                       :  7693     2577.57s   8.004%  ------ ||
|| multigrid_prepare_bound_cond         :   385     2920.31s   9.068%  ------ ||
|| potential_apply_to_ngwf_batch        :  2189     3872.14s  12.023%  ------ ||
|| density_fftbox_interpolate_multiply  : 62592     4326.86s  13.435%  ------ ||
|| fourier_apply_box                    : 215.8k    4390.95s  13.634% 919.019 ||
|| integrals_locpot_dbl_grid            :   199     5200.47s  16.148%  ------ ||
|| density_batch_interp_deposit         :  4224     6934.28s  21.532%  ------ ||
|| dl_mg_solver_calls                   :   385     7918.35s  24.588%  ------ ||
|| density_on_dbl_grid                  :   384     9151.30s  28.416%  ------ ||
|| multigrid_calculate_hartree          :   385    11056.50s  34.332%  ------ ||
|| hamiltonian_lhxc_calculate           :   380    20993.75s  65.188%  ------ ||
|| lnv_denskernel_optimise_cg           :    19    27778.78s  86.257%  ------ ||
|| ngwf_cg_optimise                     :     2    31388.28s  97.465%  ------ ||
|| total_time                           :     1    32204.76s 100.000%  ------ ||
================================================================================
Overhead of generating timer report: 
- 0 ms averaging over threads,
- 5 ms ensuring consistency across MPI ranks,
- 2 ms printing in order.

Job completed: 01-06-2020 09:34 (+0100)

