 +---------------------------------------------------------------+
 |                                                               |
 |        ####### #     # ####### ####### ####### ######         |
 |        #     # ##    # #          #    #       #     #        |
 |        #     # # #   # #          #    #       #     #        |
 |        #     # #  #  # #####      #    #####   ######         |
 |        #     # #   # # #          #    #       #              |
 |        #     # #    ## #          #    #       #              |
 |        ####### #     # #######    #    ####### #              |
 |                                                               |
 |        Linear-Scaling Ab Initio Total Energy Program          |
 |                                                               |
 |          Release for academic collaborators of ODG            |
 |                                             Version 5.3.2.6.  |
 |                                                               |
 +---------------------------------------------------------------+
 |                                                               |
 |  Authors:                                                     |
 |  Jacek Dziedzic, Peter D. Haynes, Nicholas D. M. Hine,        |
 |  Arash. A. Mostofi, Mike C. Payne and Chris-Kriton Skylaris   |
 |                                                               |
 |  Contributors:                                                |
 |  J. Aarons, L. Andrinopoulos, P. W. Avraam, R. A. Bell,       |
 |  A. Bhandari, G. A. Bramley, R. J. Charlton, S. J. Clark,     |
 |  R. J. Clements, G. C. Constantinescu, F. Corsetti,           |
 |  N. Corsini, O. Dieguez, S. M. M. Dubois, K. K. B. Duff,      |
 |  J. M. Escartin, A. Greco, H. Helal, Q. O. Hill, L. P. Lee,   |
 |  J.-H. Li, E. B. Linscott, G. Moynihan, D. D. O`Regan,        |
 |  O. K. Okan, M. J. S. Phipps, C. J. Pickard,                  |
 |  J. C. A. Prentice, M. I. J. Probert, L. E. Ratcliff,         |
 |  M. Robinson, A. Ruiz Serrano, J. S. Spencer, E. W. Tait,     |
 |  G. Teobaldi, D. Turban, V. Vitale, K. A. Wilkinson,          |
 |  C. Weber, J. C. Womack, N. Yeung and T. J. Zuehlsdorff       |
 |                                                               |
 |                                   Copyright (c) 2004-2019     |
 |                                                               |
 |  Please cite:                                                 |
 |  "Introducing ONETEP: Linear-scaling density functional       |
 |   simulations on parallel computers".                         |
 |   C.-K. Skylaris, P. D. Haynes, A. A. Mostofi, M. C. Payne.   |
 |   J. Chem. Phys. 122 084119 (2005).                           |
 |                                                               |
 |          in all publications arising from your use of ONETEP. |
 |                                                               |
 +---------------------------------------------------------------+
 |                                                               |
 |   ONETEP is based on developments described in the following  |
 |   publications:                                               |
 |                                                               |
 |  "Nonorthogonal generalized Wannier function pseudopotential  |
 |   plane-wave method".                                         |
 |   C.-K. Skylaris, A. A. Mostofi, P. D. Haynes, O. Dieguez,    |
 |   M. C. Payne.                                                |
 |   Phys. Rev. B 66 035119 (2002).                              |
 |                                                               |
 |  "Preconditioned iterative minimization for linear-scaling    |
 |   electronic structure calculations".                         |
 |   A. A. Mostofi, P. D. Haynes, C.-K. Skylaris, M. C. Payne.   |
 |   J. Chem. Phys. 119(17), pp.8842-8848 (2003).                |
 |                                                               |
 |  "Total-energy calculations on a real space grid with         |
 |   localized functions and a plane-wave basis".                |
 |   A. A. Mostofi, C.-K. Skylaris, P. D. Haynes, M. C. Payne.   |
 |   Comput. Phys. Commun. 147, pp.788-802 (2002).               |
 |                                                               |
 |  "Accurate kinetic energy evaluation in electronic structure  |
 |   calculations with localized functions on real space grids"  |
 |   C.-K. Skylaris, A. A. Mostofi, P. D. Haynes, C. J. Pickard, |
 |   M. C. Payne.                                                |
 |   Comput. Phys. Commun. 140, pp.315-322 (2001).               |
 |                                                               |
 |  "Accurate ionic forces and geometry optimization in linear-  |
 |   scaling density-functional theory with local orbitals"      |
 |   N. D. M. Hine, M. Robinson, P. D. Haynes, C.-K. Skylaris,   |
 |   M. C. Payne, and A. A. Mostofi.                             |
 |   Phys. Rev. B 83 195102 (2011).                              |
 |                                                               |
 +---------------------------------------------------------------+

Job started: 29-05-2020 17:22 (+0100)
 
Reading parameters from file "host_34301.dat" ...... done

If your calculation crashes here, before "Checking processes and threads..."
is displayed, then your stack size is insufficient.
If so, use "ulimit -s unlimited" at runtime.
You can disable this check with "check_stack_size F".

Checking processes and threads...
   Determining the default number of threads...
      No default threads set at compilation time: defaulting to 1.
      OpenMP library call suggests 4 threads.
      Hybrid MPI-OpenMP compilation detected.
      Number of MPI processes > 1.
      OMP_NUM_THREADS environment variable present and
      its value matches the one obtained from the OpenMP library call.
      Using this value as default.
      Default threads: 4
      Default applies to threads_max and threads_num_fftboxes.
      Settings in the input file override this default.
   ... done

   Running with 60 MPI processes.
   There are 6 MPI processes running on the same node as the root process.
   Each MPI process is using: 
               1 threads for simulation cell FFTs.
               1 threads for parallel FFT box operations.
               4 threads for loops over batched FFT box operations.
               4 threads in other parallel regions.
... done

Basic input checks...... done

Reading geometry and species blocks from file "host_34301.dat" ...
  <species_atomic_set> block not found: NGWF initialisation set to SOLVE
IS: Dielectric excluded regions:
    - NONE.
    
  Number of PPD points along a3 set to 1.  This is 
  the default value, it may have been provided also in the input file.
... done
 Writing xyz coordinates to file "host_34301.xyz" ... done


--------------------------------------------------------------------------------
---------------------------------- INPUT FILE ----------------------------------
--------------------------------------------------------------------------------

cutoff_energy       : 800 eV                                                    
xc_functional PBE                                                               
task SINGLEPOINT                                                                
write_xyz true                                                                  
output_detail VERBOSE                                                           
ngwf_threshold_orig : 0.000002                                                  
kernel_cutoff       : 1000                                                      
k_zero              : 3.5                                                       
elec_cg_max 0                                                                   
occ_mix 1.0                                                                     
dispersion 1                                                                    
maxit_ngwf_cg 40                                                                
minit_lnv 10                                                                    
maxit_lnv 10                                                                    
write_denskern T                                                                
write_tightbox_ngwfs T                                                          
charge 9                                                                        
is_implicit_solvent T                                                           
is_auto_solvation T                                                             
is_include_apolar T                                                             
is_smeared_ion_rep T                                                            
is_solvent_surf_tension 4.7624E-5 Ha/bohr**2                                    
is_apolar_scaling_factor 0.281075                                               
is_solvation_beta 1.3                                                           
is_density_threshold 0.00035                                                    
is_bulk_permittivity 78.54                                                      
is_dielectric_model fix_initial                                                 
is_smeared_ion_width 0.8                                                        
mg_defco_fd_order 8                                                             
is_bc_coarseness 10                                                             
is_bc_surface_coarseness 1                                                      
fine_grid_scale 2.0                                                             
%block species                                                                  
N   N   7 4 8.0                                                                 
H   H   1 1 8.0                                                                 
C   C   6 4 8.0                                                                 
S   S  16 9 8.0                                                                 
O   O   8 4 8.0                                                                 
%endblock species                                                               
%block species_pot                                                              
N   N_00.recpot                                                                 
H   H_04.recpot                                                                 
C   C_01.recpot                                                                 
S   S_00.recpot                                                                 
O   O_02.recpot                                                                 
%endblock species_pot                                                           
%block lattice_cart                                                             
139.252   0.000   0.000                                                         
0.000 142.425   0.000                                                           
0.000   0.000   162.84                                                          
%endblock lattice_cart                                                          
%block positions_abs                                                            
     Hash =  -000000183972947352870437
%endblock positions_abs                                                         

--------------------------------------------------------------------------------
-------------------------------- END INPUT FILE --------------------------------
--------------------------------------------------------------------------------


 
 ESDF WARNING(1): "kernelcutoff" (esdf_physical) has no units. Assume "bohr".
 ESDF WARNING(2): "kzero" (esdf_physical) has no units. Assume "1/bohr".
 ESDF WARNING(3
 ): "issmearedionwidth" (esdf_physical) has no units. Assume "bohr".
<<<<<<<<<<<<<<<<<<<<<<<<<<<<<<<<< Full system >>>>>>>>>>>>>>>>>>>>>>>>>>>>>>>>>>
<<<<<<<<<<<<<<<<<<<<<<<<< Pseudopotential information >>>>>>>>>>>>>>>>>>>>>>>>>>
File: N_00.recpot [ 2001 points up to Gmax=  52.9 (1/bohr)]
  Atomic number:  7;  ionic charge:  5.000000
    Shell 1: l = 0; rc = 1.48 bohr
File: H_04.recpot [ 2001 points up to Gmax=  52.9 (1/bohr)]
  Atomic number:  1;  ionic charge:  1.000000
    Local potential
File: C_01.recpot [ 2001 points up to Gmax=  52.9 (1/bohr)]
  Atomic number:  6;  ionic charge:  4.000000
    Shell 1: l = 0; rc = 1.48 bohr
File: S_00.recpot [ 2001 points up to Gmax=  52.9 (1/bohr)]
  Atomic number: 16;  ionic charge:  6.000000
    Shell 1: l = 0; rc = 1.90 bohr
    Shell 2: l = 2; rc = 1.84 bohr
File: O_02.recpot [ 2001 points up to Gmax=  52.9 (1/bohr)]
  Atomic number:  8;  ionic charge:  6.000000
    Shell 1: l = 0; rc = 1.31 bohr
<<<<<<<<<<<<<<<<<<<<<<<<<<<<<<<<<<<<<<<<>>>>>>>>>>>>>>>>>>>>>>>>>>>>>>>>>>>>>>>>

-------------------------- Atom counting information ---------------------------
Symbol    Natoms    Nngwfs    Nprojs
  N        236       944       236
  H       1311      1311         0
  C        810      3240       810
  S          6        54        36
  O        239       956       239
.......   ......    ......    ......
Totals:   2602      6505      1321
--------------------------------------------------------------------------------

=============================== PSINC grid sizes ===============================
                      Simulation cell:  275 x 280 x 320
                              FFT-box:   99 x  99 x  99
                                  PPD:    5 x   5 x   1
Grid space d1=  0.506370909091a0 (KE cutoff=  29.62556Eh = 806.15239eV)
Grid space d2=  0.508660714286a0 (KE cutoff=  29.35943Eh = 798.91072eV)
Grid space d3=  0.508875000000a0 (KE cutoff=  29.33471Eh = 798.23802eV)
================================================================================

********************* Fourier parallelisation information **********************
       Coarse grid (whole simulation cell) dimensions:    275   280   320
          Real-space ('12') slabs/node (min max mean):      5     6     5
         Recip-space ('23') slabs/node (min max mean):      2     3     2
********************************************************************************

********************* Fourier parallelisation information **********************
       Double grid (whole simulation cell) dimensions:    550   560   640
          Real-space ('12') slabs/node (min max mean):     10    11    10
         Recip-space ('23') slabs/node (min max mean):      4     5     4
********************************************************************************
ONETEP fine grid is 550 x 560 x 640 gridpoints, 139.2520 x 142.4250 x 162.8400 bohr.
FD multigrid is     545 x 553 x 633 gridpoints, 137.9861 x 140.6447 x 161.0589 bohr.


Calculating local pseudopotential in open BC on a radial grid ...
Discrepancy between calculated realspace psloc and -Z/x on [5a0,257.280a0]:
max |rel. diff| # avg |rel. diff| #  avg rel. diff #  f # pseudopotential file
 0.000256370913    0.000003612608   0.000000072509   55  'N_00.recpot'
 0.000395389207    0.000016224277  -0.000000076597   55  'H_04.recpot'
 0.000377360759    0.000017565724   0.000000149252   55  'C_01.recpot'
 0.000469715301    0.000020587835   0.000000455518   55  'S_00.recpot'
 0.000665442002    0.000026079317   0.000000158685   55  'O_02.recpot'
... done

Atom SCF Calculation for N  : Z (AE atom) =   7 : Z (PS atom) =   5
Config String:
Orbitals (num,occ):  2     2.00 3.00
Orbitals   (num,l):  2        0    1
Real-space Grid (nr,dr,rmax): 1203    0.0066555740    8.0000000000
Spherical Bessel Basis (nsws,lmax,cutoff):   47    1  176.3951722778
Confining potential (l,width,scale):  0    3.0000000000  100.0000000000
Confining potential (l,width,scale):  1    3.0000000000  100.0000000000
  1         -4.7312375307   -3.4155304497    7.0523828109   -1.9351020946
  2         -9.7309464766   -2.0532547791    8.2966052865   -2.2494486027
  3         -9.6627394379   -2.1124926340    8.2327997121   -2.2369778124
  4         -9.6814993499   -2.1215521045    8.2229805960   -2.2365178421
  5         -9.6843326483   -2.1250939529    8.2191374534   -2.2362718126
  6         -9.6859628709   -2.1267894855    8.2172963573   -2.2362066344
  7         -9.6867347035   -2.1276425665    8.2163697352   -2.2361903369
  8         -9.6870802100   -2.1280764625    8.2158983890   -2.2361891460
  9         -9.6872290423   -2.1282977424    8.2156580222   -2.2361920435
 10         -9.6872901988   -2.1284107021    8.2155353368   -2.2361953393
 11         -9.6873135296   -2.1284684031    8.2154726809   -2.2361979819
 12         -9.6873212476   -2.1284978948    8.2154406648   -2.2361998431
 13         -9.6873229586   -2.1285129774    8.2154242957   -2.2362010676
 14         -9.6873226456   -2.1285206957    8.2154159216   -2.2362018403
 15         -9.6873218534   -2.1285246479    8.2154116349   -2.2362023142
 16         -9.6873212599   -2.1285262679    8.2154098784   -2.2362025420
 17         -9.6873207834   -2.1285272564    8.2154088068   -2.2362026955
 18         -9.6873204210   -2.1285278596    8.2154081529   -2.2362027982
 19         -9.6873201550   -2.1285282280    8.2154077538   -2.2362028667
 20         -9.6873199645   -2.1285284529    8.2154075102   -2.2362029121
 21         -9.6873198305   -2.1285285903    8.2154073614   -2.2362029421
 22         -9.6873197377   -2.1285286742    8.2154072705   -2.2362029618
Atom SCF converged after  22 iterations to a total energy of     -9.68731974

Atom SCF Calculation for H  : Z (AE atom) =   1 : Z (PS atom) =   1
Config String:
Orbitals (num,occ):  1     1.00
Orbitals   (num,l):  1        0
Real-space Grid (nr,dr,rmax): 1203    0.0066555740    8.0000000000
Spherical Bessel Basis (nsws,lmax,cutoff):   47    0  176.3951722778
Confining potential (l,width,scale):  0    3.0000000000  100.0000000000
  1         -0.3194257691   -0.2393854593    0.2820953124   -0.2424203209
  2         -0.3951823392   -0.2377116493    0.2886404059   -0.2475147891
  3         -0.4317044583   -0.2352244387    0.2921333887   -0.2514046172
  4         -0.4470703708   -0.2341892222    0.2934391879   -0.2531009782
  5         -0.4532132900   -0.2338556667    0.2938388426   -0.2537313520
  6         -0.4556579251   -0.2337612552    0.2939448584   -0.2539550462
  7         -0.4566418315   -0.2337377355    0.2939680120   -0.2540342273
  8         -0.4570437922   -0.2337331116    0.2939708287   -0.2540627372
  9         -0.4572102946   -0.2337328328    0.2939698291   -0.2540732650
 10         -0.4572800424   -0.2337332404    0.2939687193   -0.2540772588
 11         -0.4573095100   -0.2337335791    0.2939680317   -0.2540788122
 12         -0.4573220379   -0.2337337762    0.2939676699   -0.2540794294
 13         -0.4573273880   -0.2337338775    0.2939674931   -0.2540796787
 14         -0.4573296803   -0.2337339266    0.2939674099   -0.2540797808
 15         -0.4573306647   -0.2337339495    0.2939673718   -0.2540798230
 16         -0.4573310882   -0.2337339601    0.2939673545   -0.2540798406
 17         -0.4573312706   -0.2337339649    0.2939673467   -0.2540798479
 18         -0.4573313493   -0.2337339670    0.2939673433   -0.2540798510
Atom SCF converged after  18 iterations to a total energy of     -0.45733135

Atom SCF Calculation for C  : Z (AE atom) =   6 : Z (PS atom) =   4
Config String:
Orbitals (num,occ):  2     2.00 2.00
Orbitals   (num,l):  2        0    1
Real-space Grid (nr,dr,rmax): 1203    0.0066555740    8.0000000000
Spherical Bessel Basis (nsws,lmax,cutoff):   47    1  176.3951722778
Confining potential (l,width,scale):  0    3.0000000000  100.0000000000
Confining potential (l,width,scale):  1    3.0000000000  100.0000000000
  1         -5.2976922011   -1.3069684169    4.5135249990   -1.4493313817
  2         -5.3721716256   -1.3429755895    4.4750154450   -1.4361613026
  3         -5.3809959565   -1.3617365618    4.4541655428   -1.4305930207
  4         -5.3918938866   -1.3667928461    4.4484735100   -1.4294652294
  5         -5.3956096428   -1.3688539142    4.4461376126   -1.4290734646
  6         -5.3968271862   -1.3696852393    4.4451910874   -1.4289366866
  7         -5.3972028401   -1.3700178062    4.4448112275   -1.4288900460
  8         -5.3973067903   -1.3701500158    4.4446598370   -1.4288749220
  9         -5.3973286940   -1.3702023868    4.4445997329   -1.4288704293
 10         -5.3973289850   -1.3702230869    4.4445759233   -1.4288693188
 11         -5.3973254264   -1.3702312560    4.4445665049   -1.4288691775
 12         -5.3973224003   -1.3702344755    4.4445627836   -1.4288692549
 13         -5.3973208708   -1.3702354890    4.4445616088   -1.4288693270
 14         -5.3973198783   -1.3702360102    4.4445610034   -1.4288693814
 15         -5.3973192535   -1.3702362780    4.4445606917   -1.4288694190
 16         -5.3973188684   -1.3702364155    4.4445605313   -1.4288694437
 17         -5.3973186349   -1.3702364860    4.4445604489   -1.4288694595
 18         -5.3973184951   -1.3702365221    4.4445604065   -1.4288694693
 19         -5.3973184122   -1.3702365405    4.4445603848   -1.4288694753
Atom SCF converged after  19 iterations to a total energy of     -5.39731841

Atom SCF Calculation for S  : Z (AE atom) =  16 : Z (PS atom) =   6
Config String:
Orbitals (num,occ):  3     2.00 4.00 0.00
Orbitals   (num,l):  3        0    1    2
Real-space Grid (nr,dr,rmax): 1203    0.0066555740    8.0000000000
Spherical Bessel Basis (nsws,lmax,cutoff):   47    2  176.3951722778
Confining potential (l,width,scale):  0    3.0000000000  100.0000000000
Confining potential (l,width,scale):  1    3.0000000000  100.0000000000
Confining potential (l,width,scale):  2    3.0000000000  100.0000000000
  1        -12.4735062396   -1.0328741412   10.1554312477   -2.4512393157
  2         -9.9458301913   -2.4607392455    8.3041325857   -2.0306994528
  3        -10.1450417646   -2.2931184565    8.4831893826   -2.0812538287
  4        -10.1528335592   -2.2733105793    8.5050388867   -2.0896035179
  5        -10.1571940363   -2.2633716629    8.5160794258   -2.0939370707
  6        -10.1594380571   -2.2584938667    8.5215163935   -2.0961289008
  7        -10.1605856507   -2.2561081821    8.5241804044   -2.0972291378
  8        -10.1611799191   -2.2549395235    8.5254868240   -2.0977806248
  9        -10.1614918752   -2.2543658586    8.5261285885   -2.0980571586
 10        -10.1616572884   -2.2540839121    8.5264441898   -2.0981959233
 11        -10.1617455602   -2.2539453058    8.5265994231   -2.0982656006
 12        -10.1617928447   -2.2538772062    8.5266757320   -2.0983006047
 13        -10.1618182292   -2.2538437891    8.5267131983   -2.0983181961
 14        -10.1618318741   -2.2538274201    8.5267315620   -2.0983270391
 15        -10.1618392144   -2.2538194197    8.5267405433   -2.0983314852
 16        -10.1618431651   -2.2538155200    8.5267449245   -2.0983337210
 17        -10.1618452923   -2.2538136252    8.5267470551   -2.0983348455
 18        -10.1618464380   -2.2538127080    8.5267480875   -2.0983354110
 19        -10.1618470552   -2.2538122659    8.5267485856   -2.0983356955
 20        -10.1618473878   -2.2538120540    8.5267488248   -2.0983358386
 21        -10.1618475670   -2.2538119530    8.5267489389   -2.0983359106
 22        -10.1618476637   -2.2538119053    8.5267489929   -2.0983359468
Atom SCF converged after  22 iterations to a total energy of    -10.16184766

Atom SCF Calculation for O  : Z (AE atom) =   8 : Z (PS atom) =   6
Config String:
Orbitals (num,occ):  2     2.00 4.00
Orbitals   (num,l):  2        0    1
Real-space Grid (nr,dr,rmax): 1203    0.0066555740    8.0000000000
Spherical Bessel Basis (nsws,lmax,cutoff):   47    1  176.3951722778
Confining potential (l,width,scale):  0    3.0000000000  100.0000000000
Confining potential (l,width,scale):  1    3.0000000000  100.0000000000
  1         -1.8735052164   -7.5539365035   10.1554312477   -2.4512393157
  2        -16.0318313751   -3.1285771268   13.6395848164   -3.2358799643
  3        -15.9524020423   -3.0762819706   13.6967272503   -3.2536856837
  4        -15.8521515939   -3.0781493909   13.6951909330   -3.2561700440
  5        -15.8357139793   -3.0748501933   13.6988803334   -3.2580493133
  6        -15.8246052853   -3.0740779781   13.6997881576   -3.2588327446
  7        -15.8189019501   -3.0737449687   13.7001869911   -3.2592378801
  8        -15.8159785510   -3.0736026016   13.7003615168   -3.2594475790
  9        -15.8144776168   -3.0735437994   13.7004360379   -3.2595560735
 10        -15.8137058024   -3.0735207882   13.7004667348   -3.2596122456
 11        -15.8133083127   -3.0735125946   13.7004786868   -3.2596413656
 12        -15.8131032938   -3.0735102195   13.7004828997   -3.2596564858
 13        -15.8129973902   -3.0735099286   13.7004840891   -3.2596643505
 14        -15.8129426040   -3.0735102506   13.7004842061   -3.2596684489
 15        -15.8129142203   -3.0735106556   13.7004840157   -3.2596705887
 16        -15.8128994940   -3.0735109855   13.7004837906   -3.2596717080
 17        -15.8128918425   -3.0735112169   13.7004836103   -3.2596722946
 18        -15.8128878614   -3.0735113674   13.7004834848   -3.2596726026
 19        -15.8128857871   -3.0735114608   13.7004834035   -3.2596727646
 20        -15.8128847048   -3.0735115170   13.7004833533   -3.2596728500
 21        -15.8128841394   -3.0735115501   13.7004833231   -3.2596728951
 22        -15.8128838436   -3.0735115693   13.7004833054   -3.2596729190
 23        -15.8128836887   -3.0735115802   13.7004832951   -3.2596729316
 24        -15.8128836074   -3.0735115864   13.7004832893   -3.2596729383
Atom SCF converged after  24 iterations to a total energy of    -15.81288361

========================== Calculation in vacuum ==============================
= Adjusting the following parameters: 
= is_implicit_solvent: F
= is_include_apolar: F
= write_denskern: T
= write_tightbox_ngwfs: T
= restart read filename prefix: ""
= restart write filename prefix: "vacuum_"
===============================================================================

Determining parallel strategy ...
... using space-filling curve
... NGWF load balancing: max    109;  min    108;  average    108
... Projector load balancing: max     25;  min     21;  average     22
... done
Calculating direct Ion-Ion energy ...
Ion-Ion Energy        :    826503.20257522957399
======================= Empirical dispersion information =======================
Model : Elstner
Dispersion Correction Energy: -0.32577165E+01 Hartree
================================================================================
Basis initialisation ...... NGWF spheres initialised
... Projector spheres initialised
... NGWF tight boxes initialised
... Tight-boxes gathered
... NGWF basis size (local,global):    1377116  82727507
... Nonlocal pseudopotential projector initialisation
... done

========================== Sparse matrix information ===========================
                        Overlap matrix filling:   6.72%
                        Density kernel filling: 100.00%
              NGWF-Proj overlap matrix filling:   1.77%
                    Hamiltonian matrix filling:   7.59%
                  NGWF diagonal matrix filling:   0.05%
                             KS matrix filling: 100.00% 
                           KSKS matrix filling: 100.00% 
================================================================================

Sparse matrix initialisation ... done

Generating smeared ion density ... done
Smeared ion self correction:     -14457.169564
Smeared ion non-self correction: -826455.155607
NGWF initialisation ...... done
============ Calculation of NGWF S^-1 using Hotelling algorithm ================ 
         Iteration  |  Frobenius norm and Maximum abs value    (of I-S*S_n^-1)   
               1       0.78512131E+02     0.98278849E+00
               2       0.76684225E+02     0.96603862E+00
               3       0.73716735E+02     0.93384023E+00
               4       0.69485277E+02     0.87414174E+00
               5       0.64199544E+02     0.77133225E+00
               6       0.58243997E+02     0.70582475E+00
               7       0.52237820E+02     0.67350491E+00
               8       0.46689847E+02     0.64711939E+00
               9       0.40668291E+02     0.60849555E+00
              10       0.32480126E+02     0.54284646E+00
              11       0.21963274E+02     0.44435571E+00
              12       0.11331773E+02     0.30875130E+00
              13       0.37937669E+01     0.15130172E+00
              14       0.61916851E+00     0.36892079E-01
              15       0.32579971E-01     0.30092970E-02
              16       0.23336387E-03     0.33900251E-04
              17       0.23774114E-07     0.46230308E-08
              18       0.96396599E-13     0.44408921E-14
================================================================================
Calculating local pseudopotential in open BC on the fine real space grid ...
... done

MG BCs: +ve charge blocks (gridpoints):     20051 (   15744682).
MG BCs: -ve charge blocks (gridpoints):      7875 (    1056305).
MG BCs:     Elided blocks (gridpoints):    177069 (  173975718).
MG BCs: Computational effort saved:  99.9854%.
MG BCs: Charge after coarse-graining:           -9.0002222.
MG DL_MG: Calling solver with defect correction order = 8
MG DL_MG: Solver finished
MG Hartree energy from (\int phi*rho dr):              1462.198864
MG Hartree energy from (\int eps (grad phi)^2 dr):     1461.575724
MG Discrepancy due to finite box and discretization:     -0.623140 (  -0.04262%)
MG Correction to account for finite box:                  0.463357
MG Remaining discrepancy, due to discretization:         -0.159783 (  -0.01093%)
Up spin density kernel initialisation ... 
======= Optimisation of K by Palser-Manolopoulos canonical purification ======== 
         Iteration  |  Band structure energy |    c_n   
               1       -2579.26035932384411    0.5271011
               2       -2755.11903644131417    0.5172260
               3       -2935.44296921116347    0.5154852
               4       -3086.19271541592661    0.5288140
               5       -3179.13449375602067    0.5642682
               6       -3218.14919607317097    0.6092683
               7       -3231.39053155283955    0.6211680
               8       -3237.11807506965306    0.6184684
               9       -3239.91572326942696    0.6312942
              10       -3241.07790849387266    0.6561640
              11       -3241.52497584555113    0.6764690
              12       -3241.71359520344186    0.6822814
              13       -3241.80478696585806    0.6484552
              14       -3241.85946398464876    0.5719192
              15       -3241.89460246113049    0.4785471
              16       -3241.90762955316632    0.4281965
              17       -3241.90876111090529    0.4371314
              18       -3241.90952245314793    0.4457290
              19       -3241.90987027345545    0.4716151
              20       -3241.90997942029844    0.4952669
              21       -3241.91002467527778    0.4998847
              22       -3241.91007058052855    0.4999999
              23       -3241.91012685484247    0.5000000
              24       -3241.91018181255004    0.5000000
              25       -3241.91021477726190    0.5000000
              26       -3241.91022242895269    0.5000000
              27       -3241.91022274160650    0.5000000
Termination criterion satisfied: band energy change below threshold.
Final occupancy bounds: [    0.00000000015313:    0.99999999995746]
Closest occupancy to 0.5:     0.99999999998266
================================================================================
... done

Writing density kernel to file "host_34301.vacuum_dkn" ... done

>>> Optimising kernel for current NGWFs:
   Initial electron number for spin 1:    7192.00000000
     Final electron number for spin 1:    7192.00000000

=================== Penalty functional idempotency correction ==================
 RMS occupancy error at iteration   1:  0.000000 (step -0.5000 Ne1=   7192.0000)
            Final RMS occupancy error   :  0.000000 (Ne1=   7192.0000)
               Final occupancy bounds   : [  0.0000,  1.0000]
================================================================================

................................................................................
<<<<<<<<<<<<<< LNV (Original version) density kernel optimisation >>>>>>>>>>>>>>
~~~~~~~~~~~~~~~~~~~~~~~~~~~~~~~~~~~~~~~~~~~~~~~~~~~~~~~~~~~~~~~~~~~~~~~~~~~~~~~~
   iter  |      energy (Eh)       | rms gradient |  commutator  |   dE (Eh)
MG BCs: +ve charge blocks (gridpoints):     30313 (   16960350).
MG BCs: -ve charge blocks (gridpoints):      8234 (    1088878).
MG BCs:     Elided blocks (gridpoints):    166796 (  172727477).
MG BCs: Computational effort saved:  99.9798%.
MG BCs: Charge after coarse-graining:           -9.0009351.
MG DL_MG: Calling solver with defect correction order = 8
MG DL_MG: Solver finished
MG Hartree energy from (\int phi*rho dr):              1415.451827
MG Hartree energy from (\int eps (grad phi)^2 dr):     1414.778132
MG Discrepancy due to finite box and discretization:     -0.673695 (  -0.04760%)
MG Correction to account for finite box:                  0.469030
MG Remaining discrepancy, due to discretization:         -0.204664 (  -0.01446%)
      ideal mu1:      -0.716143213929
             Q0:  -11507.107806199347
             G0:    -140.691715785911
   RMS gradient:       0.001823421042
MG BCs: +ve charge blocks (gridpoints):     30320 (   17041385).
MG BCs: -ve charge blocks (gridpoints):      8134 (    1068817).
MG BCs:     Elided blocks (gridpoints):    166788 (  172666503).
MG BCs: Computational effort saved:  99.9798%.
MG BCs: Charge after coarse-graining:           -9.0009563.
MG DL_MG: Calling solver with defect correction order = 8
MG DL_MG: Solver finished
MG Hartree energy from (\int phi*rho dr):              1441.533298
MG Hartree energy from (\int eps (grad phi)^2 dr):     1440.877741
MG Discrepancy due to finite box and discretization:     -0.655557 (  -0.04548%)
MG Correction to account for finite box:                  0.467369
MG Remaining discrepancy, due to discretization:         -0.188188 (  -0.01305%)
     Trial step:       0.500000000000
             Q1:  -11517.984686909942
 Quadratic coef:      59.468977182360
 Linear coef   :     -70.345857892956
           Qmin:  -11527.910836439472
Quadratic minimum step length (  0.295725020111) accepted
    Initial Ne1:    7192.00000000
      Final Ne1:    7192.00000000

=================== Penalty functional idempotency correction ==================
 RMS occupancy error at iteration   1:  0.003284 (step -0.4889 Ne1=   7192.0000)
 RMS occupancy error at iteration   2:  0.000024 (step -0.5000 Ne1=   7192.0000)
            Final RMS occupancy error   :  0.000000 (Ne1=   7192.0000)
               Final occupancy bounds   : [  0.0000,  1.0000]
================================================================================

    1        -1.150710780620E+04     1.8234E-03     1.6492E-03
MG BCs: +ve charge blocks (gridpoints):     30322 (   17009947).
MG BCs: -ve charge blocks (gridpoints):      8179 (    1077386).
MG BCs:     Elided blocks (gridpoints):    166784 (  172689372).
MG BCs: Computational effort saved:  99.9798%.
MG BCs: Charge after coarse-graining:           -9.0009475.
MG DL_MG: Calling solver with defect correction order = 8
MG DL_MG: Solver finished
MG Hartree energy from (\int phi*rho dr):              1423.082354
MG Hartree energy from (\int eps (grad phi)^2 dr):     1422.420423
MG Discrepancy due to finite box and discretization:     -0.661931 (  -0.04651%)
MG Correction to account for finite box:                  0.467885
MG Remaining discrepancy, due to discretization:         -0.194046 (  -0.01364%)
      ideal mu1:      -0.755778544039
             Q0:  -11528.288446288789
             G0:     -11.535280543019
   RMS gradient:       0.000518720778
MG BCs: +ve charge blocks (gridpoints):     30323 (   17027448).
MG BCs: -ve charge blocks (gridpoints):      8164 (    1072095).
MG BCs:     Elided blocks (gridpoints):    166783 (  172677162).
MG BCs: Computational effort saved:  99.9798%.
MG BCs: Charge after coarse-graining:           -9.0009510.
MG DL_MG: Calling solver with defect correction order = 8
MG DL_MG: Solver finished
MG Hartree energy from (\int phi*rho dr):              1428.595500
MG Hartree energy from (\int eps (grad phi)^2 dr):     1427.937520
MG Discrepancy due to finite box and discretization:     -0.657980 (  -0.04606%)
MG Correction to account for finite box:                  0.467284
MG Remaining discrepancy, due to discretization:         -0.190695 (  -0.01335%)
     Trial step:       0.384528945667
             Q1:  -11530.993000138202
 Quadratic coef:       1.731095415764
 Linear coef   :      -4.435649265177
           Qmin:  -11531.129852981987
Quadratic minimum step length (  0.492646309312) accepted
    Initial Ne1:    7191.99991796
      Final Ne1:    7192.00000000

=================== Penalty functional idempotency correction ==================
 RMS occupancy error at iteration   1:  0.001721 (step -0.4935 Ne1=   7192.0000)
 RMS occupancy error at iteration   2:  0.000009 (step -0.5000 Ne1=   7192.0000)
            Final RMS occupancy error   :  0.000000 (Ne1=   7192.0000)
               Final occupancy bounds   : [  0.0000,  1.0000]
================================================================================

    2        -1.152828844629E+04     5.1872E-04     4.6917E-04    -2.1181E+01
MG BCs: +ve charge blocks (gridpoints):     30329 (   17032352).
MG BCs: -ve charge blocks (gridpoints):      8159 (    1070743).
MG BCs:     Elided blocks (gridpoints):    166777 (  172673610).
MG BCs: Computational effort saved:  99.9798%.
MG BCs: Charge after coarse-graining:           -9.0009519.
MG DL_MG: Calling solver with defect correction order = 8
MG DL_MG: Solver finished
MG Hartree energy from (\int phi*rho dr):              1430.187648
MG Hartree energy from (\int eps (grad phi)^2 dr):     1429.530683
MG Discrepancy due to finite box and discretization:     -0.656965 (  -0.04594%)
MG Correction to account for finite box:                  0.467134
MG Remaining discrepancy, due to discretization:         -0.189831 (  -0.01327%)
      ideal mu1:      -0.777727161202
             Q0:  -11531.163187620346
             G0:      -1.804825147417
   RMS gradient:       0.000205307676
MG BCs: +ve charge blocks (gridpoints):     30328 (   17032357).
MG BCs: -ve charge blocks (gridpoints):      8159 (    1071592).
MG BCs:     Elided blocks (gridpoints):    166777 (  172672756).
MG BCs: Computational effort saved:  99.9798%.
MG BCs: Charge after coarse-graining:           -9.0009514.
MG DL_MG: Calling solver with defect correction order = 8
MG DL_MG: Solver finished
MG Hartree energy from (\int phi*rho dr):              1428.076700
MG Hartree energy from (\int eps (grad phi)^2 dr):     1427.420078
MG Discrepancy due to finite box and discretization:     -0.656622 (  -0.04598%)
MG Correction to account for finite box:                  0.466992
MG Remaining discrepancy, due to discretization:         -0.189630 (  -0.01328%)
     Trial step:       0.435243341025
             Q1:  -11531.615839182748
 Quadratic coef:       0.332886564725
 Linear coef   :      -0.785538127127
           Qmin:  -11531.626611361764
Quadratic minimum step length (  0.513538657283) accepted
    Initial Ne1:    7191.99996782
      Final Ne1:    7192.00000000

=================== Penalty functional idempotency correction ==================
 RMS occupancy error at iteration   1:  0.000567 (step -0.4977 Ne1=   7192.0000)
 RMS occupancy error at iteration   2:  0.000001 (step -0.5000 Ne1=   7192.0000)
            Final RMS occupancy error   :  0.000000 (Ne1=   7192.0000)
               Final occupancy bounds   : [  0.0000,  1.0000]
================================================================================

    3        -1.153116318762E+04     2.0531E-04     1.8570E-04    -2.8747E+00
MG BCs: +ve charge blocks (gridpoints):     30329 (   17032347).
MG BCs: -ve charge blocks (gridpoints):      8161 (    1071777).
MG BCs:     Elided blocks (gridpoints):    166776 (  172672581).
MG BCs: Computational effort saved:  99.9798%.
MG BCs: Charge after coarse-graining:           -9.0009513.
MG DL_MG: Calling solver with defect correction order = 8
MG DL_MG: Solver finished
MG Hartree energy from (\int phi*rho dr):              1427.705188
MG Hartree energy from (\int eps (grad phi)^2 dr):     1427.048618
MG Discrepancy due to finite box and discretization:     -0.656569 (  -0.04599%)
MG Correction to account for finite box:                  0.466967
MG Remaining discrepancy, due to discretization:         -0.189603 (  -0.01328%)
      ideal mu1:      -0.778740693497
             Q0:  -11531.630657570786
             G0:      -0.422396401313
   RMS gradient:       0.000099434241
MG BCs: +ve charge blocks (gridpoints):     30328 (   17033097).
MG BCs: -ve charge blocks (gridpoints):      8162 (    1071571).
MG BCs:     Elided blocks (gridpoints):    166777 (  172672037).
MG BCs: Computational effort saved:  99.9798%.
MG BCs: Charge after coarse-graining:           -9.0009515.
MG DL_MG: Calling solver with defect correction order = 8
MG DL_MG: Solver finished
MG Hartree energy from (\int phi*rho dr):              1428.877163
MG Hartree energy from (\int eps (grad phi)^2 dr):     1428.220522
MG Discrepancy due to finite box and discretization:     -0.656641 (  -0.04596%)
MG Correction to account for finite box:                  0.466937
MG Remaining discrepancy, due to discretization:         -0.189704 (  -0.01328%)
     Trial step:       0.472772969766
             Q1:  -11531.727566096815
 Quadratic coef:       0.102789075037
 Linear coef   :      -0.199697601067
           Qmin:  -11531.727650203167
Quadratic minimum step length (  0.459249331104) accepted
    Initial Ne1:    7191.99999314
      Final Ne1:    7192.00000000

=================== Penalty functional idempotency correction ==================
 RMS occupancy error at iteration   1:  0.000183 (step -0.4992 Ne1=   7192.0000)
            Final RMS occupancy error   :  0.000000 (Ne1=   7192.0000)
               Final occupancy bounds   : [ -0.0000,  1.0000]
================================================================================

    4        -1.153163065757E+04     9.9434E-05     8.9936E-05    -4.6747E-01
MG BCs: +ve charge blocks (gridpoints):     30328 (   17033065).
MG BCs: -ve charge blocks (gridpoints):      8162 (    1071578).
MG BCs:     Elided blocks (gridpoints):    166777 (  172672062).
MG BCs: Computational effort saved:  99.9798%.
MG BCs: Charge after coarse-graining:           -9.0009515.
MG DL_MG: Calling solver with defect correction order = 8
MG DL_MG: Solver finished
MG Hartree energy from (\int phi*rho dr):              1428.843649
MG Hartree energy from (\int eps (grad phi)^2 dr):     1428.187011
MG Discrepancy due to finite box and discretization:     -0.656638 (  -0.04596%)
MG Correction to account for finite box:                  0.466938
MG Remaining discrepancy, due to discretization:         -0.189700 (  -0.01328%)
      ideal mu1:      -0.779079136101
             Q0:  -11531.728054258274
             G0:      -0.102536260953
   RMS gradient:       0.000049118352
MG BCs: +ve charge blocks (gridpoints):     30329 (   17033144).
MG BCs: -ve charge blocks (gridpoints):      8164 (    1071478).
MG BCs:     Elided blocks (gridpoints):    166776 (  172672083).
MG BCs: Computational effort saved:  99.9798%.
MG BCs: Charge after coarse-graining:           -9.0009515.
MG DL_MG: Calling solver with defect correction order = 8
MG DL_MG: Solver finished
MG Hartree energy from (\int phi*rho dr):              1429.211972
MG Hartree energy from (\int eps (grad phi)^2 dr):     1428.555200
MG Discrepancy due to finite box and discretization:     -0.656773 (  -0.04595%)
MG Correction to account for finite box:                  0.466930
MG Remaining discrepancy, due to discretization:         -0.189843 (  -0.01328%)
     Trial step:       0.465962090871
             Q1:  -11531.753277294454
 Quadratic coef:       0.022554974363
 Linear coef   :      -0.047778010544
           Qmin:  -11531.753356196716
Quadratic minimum step length (  0.493521768916) accepted
    Initial Ne1:    7192.00158838
      Final Ne1:    7192.00000000

=================== Penalty functional idempotency correction ==================
 RMS occupancy error at iteration   1:  0.000065 (step -0.4997 Ne1=   7192.0000)
            Final RMS occupancy error   :  0.000000 (Ne1=   7192.0000)
               Final occupancy bounds   : [ -0.0000,  1.0000]
================================================================================

    5        -1.153172805426E+04     4.9118E-05     4.4426E-05    -9.7397E-02
MG BCs: +ve charge blocks (gridpoints):     30329 (   17033157).
MG BCs: -ve charge blocks (gridpoints):      8165 (    1071464).
MG BCs:     Elided blocks (gridpoints):    166776 (  172672084).
MG BCs: Computational effort saved:  99.9798%.
MG BCs: Charge after coarse-graining:           -9.0009515.
MG DL_MG: Calling solver with defect correction order = 8
MG DL_MG: Solver finished
MG Hartree energy from (\int phi*rho dr):              1429.233796
MG Hartree energy from (\int eps (grad phi)^2 dr):     1428.577015
MG Discrepancy due to finite box and discretization:     -0.656780 (  -0.04595%)
MG Correction to account for finite box:                  0.466929
MG Remaining discrepancy, due to discretization:         -0.189851 (  -0.01328%)
      ideal mu1:      -0.779071038478
             Q0:  -11531.753403785639
             G0:      -0.030294047786
   RMS gradient:       0.000026723700
MG BCs: +ve charge blocks (gridpoints):     30329 (   17032707).
MG BCs: -ve charge blocks (gridpoints):      8164 (    1071699).
MG BCs:     Elided blocks (gridpoints):    166776 (  172672299).
MG BCs: Computational effort saved:  99.9798%.
MG BCs: Charge after coarse-graining:           -9.0009514.
MG DL_MG: Calling solver with defect correction order = 8
MG DL_MG: Solver finished
MG Hartree energy from (\int phi*rho dr):              1428.611806
MG Hartree energy from (\int eps (grad phi)^2 dr):     1427.955045
MG Discrepancy due to finite box and discretization:     -0.656761 (  -0.04597%)
MG Correction to account for finite box:                  0.466921
MG Remaining discrepancy, due to discretization:         -0.189840 (  -0.01329%)
     Trial step:       0.479543986861
             Q1:  -11531.762862946955
 Quadratic coef:       0.005068167138
 Linear coef   :      -0.014527328454
           Qmin:  -11531.763814022033
Quadratic minimum step length (  0.687279327525) accepted
    Initial Ne1:    7192.00096295
      Final Ne1:    7192.00000000

=================== Penalty functional idempotency correction ==================
 RMS occupancy error at iteration   1:  0.000038 (step -0.4998 Ne1=   7192.0000)
            Final RMS occupancy error   :  0.000000 (Ne1=   7192.0000)
               Final occupancy bounds   : [ -0.0000,  1.0000]
================================================================================

    6        -1.153175340379E+04     2.6724E-05     2.4171E-05    -2.5350E-02
MG BCs: +ve charge blocks (gridpoints):     30330 (   17032569).
MG BCs: -ve charge blocks (gridpoints):      8162 (    1071767).
MG BCs:     Elided blocks (gridpoints):    166775 (  172672369).
MG BCs: Computational effort saved:  99.9798%.
MG BCs: Charge after coarse-graining:           -9.0009514.
MG DL_MG: Calling solver with defect correction order = 8
MG DL_MG: Solver finished
MG Hartree energy from (\int phi*rho dr):              1428.341745
MG Hartree energy from (\int eps (grad phi)^2 dr):     1427.684993
MG Discrepancy due to finite box and discretization:     -0.656752 (  -0.04598%)
MG Correction to account for finite box:                  0.466918
MG Remaining discrepancy, due to discretization:         -0.189835 (  -0.01329%)
      ideal mu1:      -0.778846565234
             Q0:  -11531.763823082554
             G0:      -0.015063183498
   RMS gradient:       0.000018867358
MG BCs: +ve charge blocks (gridpoints):     30329 (   17033006).
MG BCs: -ve charge blocks (gridpoints):      8161 (    1071534).
MG BCs:     Elided blocks (gridpoints):    166776 (  172672165).
MG BCs: Computational effort saved:  99.9798%.
MG BCs: Charge after coarse-graining:           -9.0009515.
MG DL_MG: Calling solver with defect correction order = 8
MG DL_MG: Solver finished
MG Hartree energy from (\int phi*rho dr):              1428.938897
MG Hartree energy from (\int eps (grad phi)^2 dr):     1428.282172
MG Discrepancy due to finite box and discretization:     -0.656725 (  -0.04596%)
MG Correction to account for finite box:                  0.466907
MG Remaining discrepancy, due to discretization:         -0.189818 (  -0.01328%)
     Trial step:       0.574091167680
             Q1:  -11531.767661069171
 Quadratic coef:       0.004809653987
 Linear coef   :      -0.008647640603
           Qmin:  -11531.767710144295
Quadratic minimum step length (  0.516100961252) accepted
    Initial Ne1:    7192.00013720
      Final Ne1:    7192.00000000

=================== Penalty functional idempotency correction ==================
 RMS occupancy error at iteration   1:  0.000002 (step -0.5000 Ne1=   7192.0000)
            Final RMS occupancy error   :  0.000000 (Ne1=   7192.0000)
               Final occupancy bounds   : [  0.0000,  1.0000]
================================================================================

    7        -1.153176382308E+04     1.8867E-05     1.7065E-05    -1.0419E-02
MG BCs: +ve charge blocks (gridpoints):     30329 (   17032976).
MG BCs: -ve charge blocks (gridpoints):      8161 (    1071563).
MG BCs:     Elided blocks (gridpoints):    166776 (  172672166).
MG BCs: Computational effort saved:  99.9798%.
MG BCs: Charge after coarse-graining:           -9.0009515.
MG DL_MG: Calling solver with defect correction order = 8
MG DL_MG: Solver finished
MG Hartree energy from (\int phi*rho dr):              1428.878490
MG Hartree energy from (\int eps (grad phi)^2 dr):     1428.221762
MG Discrepancy due to finite box and discretization:     -0.656728 (  -0.04596%)
MG Correction to account for finite box:                  0.466909
MG Remaining discrepancy, due to discretization:         -0.189819 (  -0.01328%)
      ideal mu1:      -0.779179681139
             Q0:  -11531.767710264539
             G0:      -0.008597596705
   RMS gradient:       0.000014254635
MG BCs: +ve charge blocks (gridpoints):     30331 (   17033068).
MG BCs: -ve charge blocks (gridpoints):      8161 (    1071524).
MG BCs:     Elided blocks (gridpoints):    166774 (  172672113).
MG BCs: Computational effort saved:  99.9798%.
MG BCs: Charge after coarse-graining:           -9.0009515.
MG DL_MG: Calling solver with defect correction order = 8
MG DL_MG: Solver finished
MG Hartree energy from (\int phi*rho dr):              1428.925673
MG Hartree energy from (\int eps (grad phi)^2 dr):     1428.268982
MG Discrepancy due to finite box and discretization:     -0.656690 (  -0.04596%)
MG Correction to account for finite box:                  0.466901
MG Remaining discrepancy, due to discretization:         -0.189790 (  -0.01328%)
     Trial step:       0.544324355037
             Q1:  -11531.771125151892
 Quadratic coef:       0.001264993929
 Linear coef   :      -0.004679881281
           Qmin:  -11531.772038603258
Quadratic minimum step length (  1.006871772892) accepted
    Initial Ne1:    7192.00015191
      Final Ne1:    7192.00000000

=================== Penalty functional idempotency correction ==================
 RMS occupancy error at iteration   1:  0.000020 (step -0.4995 Ne1=   7192.0000)
            Final RMS occupancy error   :  0.000000 (Ne1=   7192.0000)
               Final occupancy bounds   : [ -0.0000,  1.0000]
================================================================================

    8        -1.153176771026E+04     1.4255E-05     1.2893E-05    -3.8872E-03
MG BCs: +ve charge blocks (gridpoints):     30331 (   17033152).
MG BCs: -ve charge blocks (gridpoints):      8162 (    1071479).
MG BCs:     Elided blocks (gridpoints):    166774 (  172672074).
MG BCs: Computational effort saved:  99.9798%.
MG BCs: Charge after coarse-graining:           -9.0009515.
MG DL_MG: Calling solver with defect correction order = 8
MG DL_MG: Solver finished
MG Hartree energy from (\int phi*rho dr):              1428.964418
MG Hartree energy from (\int eps (grad phi)^2 dr):     1428.307760
MG Discrepancy due to finite box and discretization:     -0.656658 (  -0.04595%)
MG Correction to account for finite box:                  0.466894
MG Remaining discrepancy, due to discretization:         -0.189764 (  -0.01328%)
      ideal mu1:      -0.779250965842
             Q0:  -11531.772031826782
             G0:      -0.011650151263
   RMS gradient:       0.000016618618
MG BCs: +ve charge blocks (gridpoints):     30330 (   17032989).
MG BCs: -ve charge blocks (gridpoints):      8160 (    1071634).
MG BCs:     Elided blocks (gridpoints):    166775 (  172672082).
MG BCs: Computational effort saved:  99.9798%.
MG BCs: Charge after coarse-graining:           -9.0009515.
MG DL_MG: Calling solver with defect correction order = 8
MG DL_MG: Solver finished
MG Hartree energy from (\int phi*rho dr):              1428.654355
MG Hartree energy from (\int eps (grad phi)^2 dr):     1427.997761
MG Discrepancy due to finite box and discretization:     -0.656594 (  -0.04596%)
MG Correction to account for finite box:                  0.466870
MG Remaining discrepancy, due to discretization:         -0.189724 (  -0.01328%)
     Trial step:       0.740314006611
             Q1:  -11531.777415847522
 Quadratic coef:       0.003240749418
 Linear coef   :      -0.008624770159
           Qmin:  -11531.777770210925
Quadratic minimum step length (  0.985117534369) accepted
    Initial Ne1:    7192.00034920
      Final Ne1:    7192.00000000

=================== Penalty functional idempotency correction ==================
 RMS occupancy error at iteration   1:  0.000103 (step -0.4969 Ne1=   7192.0000)
 RMS occupancy error at iteration   2:  0.000000 (step -0.5000 Ne1=   7192.0000)
            Final RMS occupancy error   :  0.000000 (Ne1=   7192.0000)
               Final occupancy bounds   : [  0.0000,  1.0000]
================================================================================

    9        -1.153177203183E+04     1.6619E-05     1.5031E-05    -4.3216E-03
MG BCs: +ve charge blocks (gridpoints):     30331 (   17032949).
MG BCs: -ve charge blocks (gridpoints):      8160 (    1071680).
MG BCs:     Elided blocks (gridpoints):    166774 (  172672076).
MG BCs: Computational effort saved:  99.9798%.
MG BCs: Charge after coarse-graining:           -9.0009514.
MG DL_MG: Calling solver with defect correction order = 8
MG DL_MG: Solver finished
MG Hartree energy from (\int phi*rho dr):              1428.549425
MG Hartree energy from (\int eps (grad phi)^2 dr):     1427.892854
MG Discrepancy due to finite box and discretization:     -0.656571 (  -0.04596%)
MG Correction to account for finite box:                  0.466861
MG Remaining discrepancy, due to discretization:         -0.189710 (  -0.01328%)
      ideal mu1:      -0.778948539868
   10        -1.153177773862E+04     1.8069E-05     1.6343E-05    -5.7068E-03
Finished density kernel iterations (  10)

Writing density kernel to file "host_34301.vacuum_dkn" ... done


>>> Density kernel optimised for the current NGWF basis:
     ~~~~~~~~~~~~~~~~~~~~~~~~~~~~~~~~~~~~~~~~~~~~~~~~~~~~~~~~~~~
     Total energy                =  -1.15317777386244E+04  Eh
     Estimated bandgap           =  -2.7872E-01  Eh
     RMS occupancy error         =   8.4419E-12
     [H,K] commutator            =   1.6343E-05
     Occupancy bounds            = [  0.000:  1.000]
     ~~~~~~~~~~~~~~~~~~~~~~~~~~~~~~~~~~~~~~~~~~~~~~~~~~~~~~~~~~~




################################################################################
########################### NGWF CG iteration  001 #############################
################################################################################
****** Reciprocal space K.E. preconditioning with k_zero =  3.5000 a0^-1 *******

>>> Checking for convergence of NGWFs:   NOT CONVERGED
  ========================================================================
         NGWF RMS gradient =  1.6337E-03 >  2.0000E-06  | above tolerance
  ========================================================================

>>> Improving NGWFs using line search:
============ Calculation of NGWF S^-1 using Hotelling algorithm ================ 
         Iteration  |  Frobenius norm and Maximum abs value    (of I-S*S_n^-1)   
               1       0.20410217E+00     0.56293461E-02
               2       0.97414289E-03     0.46726255E-04
               3       0.38219645E-07     0.32478834E-08
               4       0.12617843E-12     0.73274720E-14
================================================================================
MG BCs: +ve charge blocks (gridpoints):     29872 (   16978189).
MG BCs: -ve charge blocks (gridpoints):      8169 (    1071323).
MG BCs:     Elided blocks (gridpoints):    167239 (  172727193).
MG BCs: Computational effort saved:  99.9801%.
MG BCs: Charge after coarse-graining:           -9.0009558.
MG DL_MG: Calling solver with defect correction order = 8
MG DL_MG: Solver finished
MG Hartree energy from (\int phi*rho dr):              1396.239041
MG Hartree energy from (\int eps (grad phi)^2 dr):     1395.583394
MG Discrepancy due to finite box and discretization:     -0.655647 (  -0.04696%)
MG Correction to account for finite box:                  0.466800
MG Remaining discrepancy, due to discretization:         -0.188848 (  -0.01353%)
============ Calculation of NGWF S^-1 using Hotelling algorithm ================ 
         Iteration  |  Frobenius norm and Maximum abs value    (of I-S*S_n^-1)   
               1       0.18343209E+01     0.43304890E-01
               2       0.70174730E-01     0.24717829E-02
               3       0.14116203E-03     0.92524459E-05
               4       0.10524952E-08     0.13433221E-09
               5       0.10786006E-12     0.46629367E-14
================================================================================
------------------------------- NGWF line search -------------------------------
RMS gradient                =       0.00163369877485
Trial step length           =               0.122474
Gradient along search dir.  =       -284.08073170688
Functional at step 0        =  -11531.77773862436879
Functional at step 1        =  -11563.83722895407118
Functional predicted        =  -11642.50411905591500
Selected quadratic step     =               0.779542
--------------------------- NGWF line search finished --------------------------
                                               
Writing NGWFs to file "host_34301.vacuum_tightbox_ngwfs"....  done

>>> Optimising kernel for current NGWFs:
   Initial electron number for spin 1:    7226.69384333
     Final electron number for spin 1:    7192.00000000

=================== Penalty functional idempotency correction ==================
 RMS occupancy error at iteration   1:  0.004359 (step -0.4852 Ne1=   7192.0000)
 RMS occupancy error at iteration   2:  0.000076 (step -0.5003 Ne1=   7192.0000)
            Final RMS occupancy error   :  0.000000 (Ne1=   7192.0000)
               Final occupancy bounds   : [  0.0000,  1.0000]
================================================================================

................................................................................
<<<<<<<<<<<<<< LNV (Original version) density kernel optimisation >>>>>>>>>>>>>>
~~~~~~~~~~~~~~~~~~~~~~~~~~~~~~~~~~~~~~~~~~~~~~~~~~~~~~~~~~~~~~~~~~~~~~~~~~~~~~~~
   iter  |      energy (Eh)       | rms gradient |  commutator  |   dE (Eh)
MG BCs: +ve charge blocks (gridpoints):     24381 (   16647463).
MG BCs: -ve charge blocks (gridpoints):      8278 (    1055454).
MG BCs:     Elided blocks (gridpoints):    172739 (  173073788).
MG BCs: Computational effort saved:  99.9829%.
MG BCs: Charge after coarse-graining:           -9.0006797.
MG DL_MG: Calling solver with defect correction order = 8
MG DL_MG: Solver finished
MG Hartree energy from (\int phi*rho dr):              1244.567420
MG Hartree energy from (\int eps (grad phi)^2 dr):     1243.911821
MG Discrepancy due to finite box and discretization:     -0.655599 (  -0.05268%)
MG Correction to account for finite box:                  0.466511
MG Remaining discrepancy, due to discretization:         -0.189088 (  -0.01519%)
      ideal mu1:      -0.718361395009
             Q0:  -11641.738746165764
             G0:      -9.607138785522
   RMS gradient:       0.000476485546
MG BCs: +ve charge blocks (gridpoints):     24454 (   16663735).
MG BCs: -ve charge blocks (gridpoints):      8263 (    1051553).
MG BCs:     Elided blocks (gridpoints):    172666 (  173061417).
MG BCs: Computational effort saved:  99.9829%.
MG BCs: Charge after coarse-graining:           -9.0006742.
MG DL_MG: Calling solver with defect correction order = 8
MG DL_MG: Solver finished
MG Hartree energy from (\int phi*rho dr):              1263.483128
MG Hartree energy from (\int eps (grad phi)^2 dr):     1262.820510
MG Discrepancy due to finite box and discretization:     -0.662618 (  -0.05244%)
MG Correction to account for finite box:                  0.466385
MG Remaining discrepancy, due to discretization:         -0.196233 (  -0.01553%)
     Trial step:       0.853988471146
             Q1:  -11639.317732000025
 Quadratic coef:      10.625399929279
 Linear coef   :      -8.204385763539
           Qmin:  -11643.322497041143
Quadratic minimum step length (  0.329702924197) accepted
    Initial Ne1:    7191.99952192
      Final Ne1:    7192.00000000

=================== Penalty functional idempotency correction ==================
 RMS occupancy error at iteration   1:  0.000348 (step -0.4986 Ne1=   7192.0000)
 RMS occupancy error at iteration   2:  0.000000 (step -0.5000 Ne1=   7192.0000)
            Final RMS occupancy error   :  0.000000 (Ne1=   7192.0000)
               Final occupancy bounds   : [  0.0000,  1.0000]
================================================================================

    1        -1.164173874617E+04     4.7649E-04     4.3097E-04
MG BCs: +ve charge blocks (gridpoints):     24410 (   16653766).
MG BCs: -ve charge blocks (gridpoints):      8269 (    1054059).
MG BCs:     Elided blocks (gridpoints):    172710 (  173068880).
MG BCs: Computational effort saved:  99.9829%.
MG BCs: Charge after coarse-graining:           -9.0006776.
MG DL_MG: Calling solver with defect correction order = 8
MG DL_MG: Solver finished
MG Hartree energy from (\int phi*rho dr):              1250.622502
MG Hartree energy from (\int eps (grad phi)^2 dr):     1249.964325
MG Discrepancy due to finite box and discretization:     -0.658177 (  -0.05263%)
MG Correction to account for finite box:                  0.466438
MG Remaining discrepancy, due to discretization:         -0.191740 (  -0.01533%)
      ideal mu1:      -0.725338530147
             Q0:  -11643.289465479786
             G0:      -0.963889527037
   RMS gradient:       0.000152015516
MG BCs: +ve charge blocks (gridpoints):     24411 (   16653645).
MG BCs: -ve charge blocks (gridpoints):      8266 (    1054759).
MG BCs:     Elided blocks (gridpoints):    172709 (  173068301).
MG BCs: Computational effort saved:  99.9829%.
MG BCs: Charge after coarse-graining:           -9.0006774.
MG DL_MG: Calling solver with defect correction order = 8
MG DL_MG: Solver finished
MG Hartree energy from (\int phi*rho dr):              1251.808328
MG Hartree energy from (\int eps (grad phi)^2 dr):     1251.149731
MG Discrepancy due to finite box and discretization:     -0.658597 (  -0.05261%)
MG Correction to account for finite box:                  0.466446
MG Remaining discrepancy, due to discretization:         -0.192151 (  -0.01535%)
     Trial step:       0.530624628309
             Q1:  -11643.481302093482
 Quadratic coef:       0.319626908318
 Linear coef   :      -0.511463522015
           Qmin:  -11643.494075078934
Quadratic minimum step length (  0.424549895831) accepted
    Initial Ne1:    7191.99993733
      Final Ne1:    7192.00000000

=================== Penalty functional idempotency correction ==================
 RMS occupancy error at iteration   1:  0.000139 (step -0.4994 Ne1=   7192.0000)
            Final RMS occupancy error   :  0.000000 (Ne1=   7192.0000)
               Final occupancy bounds   : [ -0.0000,  1.0000]
================================================================================

    2        -1.164328946548E+04     1.5202E-04     1.3749E-04    -1.5507E+00
MG BCs: +ve charge blocks (gridpoints):     24411 (   16653666).
MG BCs: -ve charge blocks (gridpoints):      8267 (    1054627).
MG BCs:     Elided blocks (gridpoints):    172709 (  173068412).
MG BCs: Computational effort saved:  99.9829%.
MG BCs: Charge after coarse-graining:           -9.0006774.
MG DL_MG: Calling solver with defect correction order = 8
MG DL_MG: Solver finished
MG Hartree energy from (\int phi*rho dr):              1251.570935
MG Hartree energy from (\int eps (grad phi)^2 dr):     1250.912424
MG Discrepancy due to finite box and discretization:     -0.658511 (  -0.05261%)
MG Correction to account for finite box:                  0.466444
MG Remaining discrepancy, due to discretization:         -0.192066 (  -0.01535%)
      ideal mu1:      -0.726338339748
             Q0:  -11643.494527062750
             G0:      -0.143206234311
   RMS gradient:       0.000058110334
MG BCs: +ve charge blocks (gridpoints):     24412 (   16653026).
MG BCs: -ve charge blocks (gridpoints):      8266 (    1055031).
MG BCs:     Elided blocks (gridpoints):    172708 (  173068648).
MG BCs: Computational effort saved:  99.9829%.
MG BCs: Charge after coarse-graining:           -9.0006774.
MG DL_MG: Calling solver with defect correction order = 8
MG DL_MG: Solver finished
MG Hartree energy from (\int phi*rho dr):              1251.093204
MG Hartree energy from (\int eps (grad phi)^2 dr):     1250.434724
MG Discrepancy due to finite box and discretization:     -0.658480 (  -0.05263%)
MG Correction to account for finite box:                  0.466442
MG Remaining discrepancy, due to discretization:         -0.192038 (  -0.01535%)
     Trial step:       0.474633153787
             Q1:  -11643.538001601584
 Quadratic coef:       0.024495887799
 Linear coef   :      -0.067970426633
           Qmin:  -11643.541677618534
Quadratic minimum step length (  0.658498647230) accepted
    Initial Ne1:    7192.00057307
      Final Ne1:    7192.00000000

=================== Penalty functional idempotency correction ==================
 RMS occupancy error at iteration   1:  0.000061 (step -0.4998 Ne1=   7192.0000)
            Final RMS occupancy error   :  0.000000 (Ne1=   7192.0000)
               Final occupancy bounds   : [ -0.0000,  1.0000]
================================================================================

    3        -1.164349452706E+04     5.8110E-05     5.2559E-05    -2.0506E-01
MG BCs: +ve charge blocks (gridpoints):     24413 (   16652782).
MG BCs: -ve charge blocks (gridpoints):      8266 (    1055199).
MG BCs:     Elided blocks (gridpoints):    172707 (  173068724).
MG BCs: Computational effort saved:  99.9829%.
MG BCs: Charge after coarse-graining:           -9.0006774.
MG DL_MG: Calling solver with defect correction order = 8
MG DL_MG: Solver finished
MG Hartree energy from (\int phi*rho dr):              1250.908269
MG Hartree energy from (\int eps (grad phi)^2 dr):     1250.249800
MG Discrepancy due to finite box and discretization:     -0.658469 (  -0.05264%)
MG Correction to account for finite box:                  0.466442
MG Remaining discrepancy, due to discretization:         -0.192027 (  -0.01535%)
      ideal mu1:      -0.725440981290
             Q0:  -11643.541761474102
             G0:      -0.034273785027
   RMS gradient:       0.000028419510
MG BCs: +ve charge blocks (gridpoints):     24411 (   16652588).
MG BCs: -ve charge blocks (gridpoints):      8266 (    1055267).
MG BCs:     Elided blocks (gridpoints):    172709 (  173068850).
MG BCs: Computational effort saved:  99.9829%.
MG BCs: Charge after coarse-graining:           -9.0006774.
MG DL_MG: Calling solver with defect correction order = 8
MG DL_MG: Solver finished
MG Hartree energy from (\int phi*rho dr):              1250.917061
MG Hartree energy from (\int eps (grad phi)^2 dr):     1250.258705
MG Discrepancy due to finite box and discretization:     -0.658356 (  -0.05263%)
MG Correction to account for finite box:                  0.466438
MG Remaining discrepancy, due to discretization:         -0.191918 (  -0.01534%)
     Trial step:       0.559057501246
             Q1:  -11643.550152040669
 Quadratic coef:       0.010770450048
 Linear coef   :      -0.019161016615
           Qmin:  -11643.550283507910
Quadratic minimum step length (  0.497291664817) accepted
    Initial Ne1:    7192.00020863
      Final Ne1:    7192.00000000

=================== Penalty functional idempotency correction ==================
 RMS occupancy error at iteration   1:  0.000017 (step -0.4999 Ne1=   7192.0000)
            Final RMS occupancy error   :  0.000000 (Ne1=   7192.0000)
               Final occupancy bounds   : [ -0.0000,  1.0000]
================================================================================

    4        -1.164354176147E+04     2.8420E-05     2.5705E-05    -4.7234E-02
MG BCs: +ve charge blocks (gridpoints):     24411 (   16652586).
MG BCs: -ve charge blocks (gridpoints):      8266 (    1055261).
MG BCs:     Elided blocks (gridpoints):    172709 (  173068858).
MG BCs: Computational effort saved:  99.9829%.
MG BCs: Charge after coarse-graining:           -9.0006774.
MG DL_MG: Calling solver with defect correction order = 8
MG DL_MG: Solver finished
MG Hartree energy from (\int phi*rho dr):              1250.915903
MG Hartree energy from (\int eps (grad phi)^2 dr):     1250.257535
MG Discrepancy due to finite box and discretization:     -0.658369 (  -0.05263%)
MG Correction to account for finite box:                  0.466438
MG Remaining discrepancy, due to discretization:         -0.191930 (  -0.01534%)
      ideal mu1:      -0.725447204299
             Q0:  -11643.550288033206
             G0:      -0.010816488109
   RMS gradient:       0.000015985112
MG BCs: +ve charge blocks (gridpoints):     24411 (   16653138).
MG BCs: -ve charge blocks (gridpoints):      8265 (    1055035).
MG BCs:     Elided blocks (gridpoints):    172709 (  173068532).
MG BCs: Computational effort saved:  99.9829%.
MG BCs: Charge after coarse-graining:           -9.0006773.
MG DL_MG: Calling solver with defect correction order = 8
MG DL_MG: Solver finished
MG Hartree energy from (\int phi*rho dr):              1251.306443
MG Hartree energy from (\int eps (grad phi)^2 dr):     1250.648114
MG Discrepancy due to finite box and discretization:     -0.658329 (  -0.05261%)
MG Correction to account for finite box:                  0.466432
MG Remaining discrepancy, due to discretization:         -0.191896 (  -0.01534%)
     Trial step:       0.527270931802
             Q1:  -11643.553263464710
 Quadratic coef:       0.002727788260
 Linear coef   :      -0.005703219764
           Qmin:  -11643.553269085305
Quadratic minimum step length (  0.551205172959) accepted
    Initial Ne1:    7192.00008419
      Final Ne1:    7192.00000000

=================== Penalty functional idempotency correction ==================
 RMS occupancy error at iteration   1:  0.000008 (step -0.5000 Ne1=   7192.0000)
            Final RMS occupancy error   :  0.000000 (Ne1=   7192.0000)
               Final occupancy bounds   : [ -0.0000,  1.0000]
================================================================================

    5        -1.164355028803E+04     1.5985E-05     1.4458E-05    -8.5266E-03
MG BCs: +ve charge blocks (gridpoints):     24411 (   16653150).
MG BCs: -ve charge blocks (gridpoints):      8265 (    1055026).
MG BCs:     Elided blocks (gridpoints):    172709 (  173068529).
MG BCs: Computational effort saved:  99.9829%.
MG BCs: Charge after coarse-graining:           -9.0006773.
MG DL_MG: Calling solver with defect correction order = 8
MG DL_MG: Solver finished
MG Hartree energy from (\int phi*rho dr):              1251.324191
MG Hartree energy from (\int eps (grad phi)^2 dr):     1250.665865
MG Discrepancy due to finite box and discretization:     -0.658327 (  -0.05261%)
MG Correction to account for finite box:                  0.466432
MG Remaining discrepancy, due to discretization:         -0.191895 (  -0.01534%)
      ideal mu1:      -0.725794903288
             Q0:  -11643.553269915516
             G0:      -0.003164096419
   RMS gradient:       0.000008645709
MG BCs: +ve charge blocks (gridpoints):     24411 (   16653149).
MG BCs: -ve charge blocks (gridpoints):      8265 (    1055042).
MG BCs:     Elided blocks (gridpoints):    172709 (  173068514).
MG BCs: Computational effort saved:  99.9829%.
MG BCs: Charge after coarse-graining:           -9.0006773.
MG DL_MG: Calling solver with defect correction order = 8
MG DL_MG: Solver finished
MG Hartree energy from (\int phi*rho dr):              1251.293466
MG Hartree energy from (\int eps (grad phi)^2 dr):     1250.635148
MG Discrepancy due to finite box and discretization:     -0.658318 (  -0.05261%)
MG Correction to account for finite box:                  0.466427
MG Remaining discrepancy, due to discretization:         -0.191890 (  -0.01534%)
     Trial step:       0.539105244975
             Q1:  -11643.554322734359
 Quadratic coef:       0.000652962131
 Linear coef   :      -0.001705780975
           Qmin:  -11643.554383949773
Quadratic minimum step length (  0.704172130571) accepted
    Initial Ne1:    7192.00003699
      Final Ne1:    7192.00000000

=================== Penalty functional idempotency correction ==================
 RMS occupancy error at iteration   1:  0.000005 (step -0.5000 Ne1=   7192.0000)
            Final RMS occupancy error   :  0.000000 (Ne1=   7192.0000)
               Final occupancy bounds   : [  0.0000,  1.0000]
================================================================================

    6        -1.164355326992E+04     8.6457E-06     7.8198E-06    -2.9819E-03
MG BCs: +ve charge blocks (gridpoints):     24411 (   16653146).
MG BCs: -ve charge blocks (gridpoints):      8265 (    1055053).
MG BCs:     Elided blocks (gridpoints):    172709 (  173068506).
MG BCs: Computational effort saved:  99.9829%.
MG BCs: Charge after coarse-graining:           -9.0006773.
MG DL_MG: Calling solver with defect correction order = 8
MG DL_MG: Solver finished
MG Hartree energy from (\int phi*rho dr):              1251.284044
MG Hartree energy from (\int eps (grad phi)^2 dr):     1250.625729
MG Discrepancy due to finite box and discretization:     -0.658315 (  -0.05261%)
MG Correction to account for finite box:                  0.466426
MG Remaining discrepancy, due to discretization:         -0.191889 (  -0.01534%)
      ideal mu1:      -0.725758719832
             Q0:  -11643.554384011659
             G0:      -0.001652867460
   RMS gradient:       0.000006249881
MG BCs: +ve charge blocks (gridpoints):     24411 (   16652954).
MG BCs: -ve charge blocks (gridpoints):      8266 (    1055121).
MG BCs:     Elided blocks (gridpoints):    172709 (  173068630).
MG BCs: Computational effort saved:  99.9829%.
MG BCs: Charge after coarse-graining:           -9.0006773.
MG DL_MG: Calling solver with defect correction order = 8
MG DL_MG: Solver finished
MG Hartree energy from (\int phi*rho dr):              1251.186001
MG Hartree energy from (\int eps (grad phi)^2 dr):     1250.527673
MG Discrepancy due to finite box and discretization:     -0.658327 (  -0.05262%)
MG Correction to account for finite box:                  0.466430
MG Remaining discrepancy, due to discretization:         -0.191897 (  -0.01534%)
     Trial step:       0.616135446924
             Q1:  -11643.554743090877
 Quadratic coef:       0.000659311012
 Linear coef   :      -0.001018390231
           Qmin:  -11643.554777270168
Quadratic minimum step length (  0.475850022750) accepted
    Initial Ne1:    7191.99999774
      Final Ne1:    7192.00000000

=================== Penalty functional idempotency correction ==================
 RMS occupancy error at iteration   1:  0.000000 (step -0.5000 Ne1=   7192.0000)
            Final RMS occupancy error   :  0.000000 (Ne1=   7192.0000)
               Final occupancy bounds   : [  0.0000,  1.0000]
================================================================================

    7        -1.164355438401E+04     6.2499E-06     5.6529E-06    -1.1141E-03
MG BCs: +ve charge blocks (gridpoints):     24411 (   16652986).
MG BCs: -ve charge blocks (gridpoints):      8266 (    1055106).
MG BCs:     Elided blocks (gridpoints):    172709 (  173068613).
MG BCs: Computational effort saved:  99.9829%.
MG BCs: Charge after coarse-graining:           -9.0006773.
MG DL_MG: Calling solver with defect correction order = 8
MG DL_MG: Solver finished
MG Hartree energy from (\int phi*rho dr):              1251.208288
MG Hartree energy from (\int eps (grad phi)^2 dr):     1250.549963
MG Discrepancy due to finite box and discretization:     -0.658324 (  -0.05262%)
MG Correction to account for finite box:                  0.466429
MG Remaining discrepancy, due to discretization:         -0.191895 (  -0.01534%)
      ideal mu1:      -0.725667764999
             Q0:  -11643.554777266108
             G0:      -0.000992249364
   RMS gradient:       0.000004842420
MG BCs: +ve charge blocks (gridpoints):     24411 (   16652949).
MG BCs: -ve charge blocks (gridpoints):      8266 (    1055120).
MG BCs:     Elided blocks (gridpoints):    172709 (  173068636).
MG BCs: Computational effort saved:  99.9829%.
MG BCs: Charge after coarse-graining:           -9.0006773.
MG DL_MG: Calling solver with defect correction order = 8
MG DL_MG: Solver finished
MG Hartree energy from (\int phi*rho dr):              1251.167233
MG Hartree energy from (\int eps (grad phi)^2 dr):     1250.508903
MG Discrepancy due to finite box and discretization:     -0.658330 (  -0.05262%)
MG Correction to account for finite box:                  0.466429
MG Remaining discrepancy, due to discretization:         -0.191901 (  -0.01534%)
     Trial step:       0.541468435309
             Q1:  -11643.555201291107
 Quadratic coef:       0.000113246713
 Linear coef   :      -0.000537271711
           Qmin:  -11643.555414505112
Quadratic minimum step length (  1.284433182100) accepted
    Initial Ne1:    7191.99999631
      Final Ne1:    7192.00000000

=================== Penalty functional idempotency correction ==================
 RMS occupancy error at iteration   1:  0.000007 (step -0.4996 Ne1=   7192.0000)
            Final RMS occupancy error   :  0.000000 (Ne1=   7192.0000)
               Final occupancy bounds   : [ -0.0000,  1.0000]
================================================================================

    8        -1.164355477727E+04     4.8424E-06     4.3799E-06    -3.9325E-04
MG BCs: +ve charge blocks (gridpoints):     24411 (   16652883).
MG BCs: -ve charge blocks (gridpoints):      8265 (    1055144).
MG BCs:     Elided blocks (gridpoints):    172709 (  173068678).
MG BCs: Computational effort saved:  99.9829%.
[...]
MG Correction to account for finite box:                  0.006434
MG Remaining discrepancy, due to discretization:         -0.190815 (  -0.01579%)
     Trial step:       0.281485478746
             Q1:  -11677.905945079867
 Quadratic coef:       0.000000000298
 Linear coef   :      -0.000000000182
           Qmin:  -11677.905945080010
Quadratic minimum step length (  0.085896937110) accepted
    Initial Ne1:    7192.00000000
      Final Ne1:    7192.00000000

=================== Penalty functional idempotency correction ==================
 RMS occupancy error at iteration   1:  0.000000 (step -0.5000 Ne1=   7192.0000)
            Final RMS occupancy error   :  0.000000 (Ne1=   7192.0000)
               Final occupancy bounds   : [  0.0000,  1.0000]
================================================================================

    7        -1.167790594508E+04     3.9096E-09     3.5362E-09    -1.1642E-10

Reusing previously generated solute cavity.
MG BCs: +ve charge blocks (gridpoints):     28833 (   18842824).
MG BCs: -ve charge blocks (gridpoints):      8262 (    1024880).
MG BCs:     Elided blocks (gridpoints):    168287 (  170909001).
MG BCs: Computational effort saved:  99.9806%.
MG BCs: Charge after coarse-graining:           -9.0009451.
MG DL_MG: Calling solver with defect correction order = 8
MG DL_MG: Solver finished
MG Hartree energy from (\int phi*rho dr):              1208.502716
MG Hartree energy from (\int eps (grad phi)^2 dr):     1208.305468
MG Discrepancy due to finite box and discretization:     -0.197249 (  -0.01632%)
MG Correction to account for finite box:                  0.006434
MG Remaining discrepancy, due to discretization:         -0.190815 (  -0.01579%)
      ideal mu1:      -0.481643147671
             Q0:  -11677.905945079983
             G0:      -0.000000001036
   RMS gradient:       0.000000003577

Reusing previously generated solute cavity.
MG BCs: +ve charge blocks (gridpoints):     28833 (   18842824).
MG BCs: -ve charge blocks (gridpoints):      8262 (    1024880).
MG BCs:     Elided blocks (gridpoints):    168287 (  170909001).
MG BCs: Computational effort saved:  99.9806%.
MG BCs: Charge after coarse-graining:           -9.0009451.
MG DL_MG: Calling solver with defect correction order = 8
MG DL_MG: Solver finished
MG Hartree energy from (\int phi*rho dr):              1208.502706
MG Hartree energy from (\int eps (grad phi)^2 dr):     1208.305457
MG Discrepancy due to finite box and discretization:     -0.197249 (  -0.01632%)
MG Correction to account for finite box:                  0.006434
MG Remaining discrepancy, due to discretization:         -0.190815 (  -0.01579%)
     Trial step:       0.155495146115
             Q1:  -11677.905945079867
 Quadratic coef:       0.000000000278
 Linear coef   :      -0.000000000161
           Qmin:  -11677.905945080007
Quadratic minimum step length (  0.044999335490) accepted
    Initial Ne1:    7192.00000000
      Final Ne1:    7192.00000000

=================== Penalty functional idempotency correction ==================
 RMS occupancy error at iteration   1:  0.000000 (step -0.5000 Ne1=   7192.0000)
            Final RMS occupancy error   :  0.000000 (Ne1=   7192.0000)
               Final occupancy bounds   : [  0.0000,  1.0000]
================================================================================

    8        -1.167790594508E+04     3.5767E-09     3.2351E-09     0.0000E+00

Reusing previously generated solute cavity.
MG BCs: +ve charge blocks (gridpoints):     28833 (   18842824).
MG BCs: -ve charge blocks (gridpoints):      8262 (    1024880).
MG BCs:     Elided blocks (gridpoints):    168287 (  170909001).
MG BCs: Computational effort saved:  99.9806%.
MG BCs: Charge after coarse-graining:           -9.0009451.
MG DL_MG: Calling solver with defect correction order = 8
MG DL_MG: Solver finished
MG Hartree energy from (\int phi*rho dr):              1208.502713
MG Hartree energy from (\int eps (grad phi)^2 dr):     1208.305465
MG Discrepancy due to finite box and discretization:     -0.197249 (  -0.01632%)
MG Correction to account for finite box:                  0.006434
MG Remaining discrepancy, due to discretization:         -0.190815 (  -0.01579%)
      ideal mu1:      -0.481643144477
             Q0:  -11677.905945079867
             G0:      -0.000000001256
   RMS gradient:       0.000000003284

Reusing previously generated solute cavity.
MG BCs: +ve charge blocks (gridpoints):     28833 (   18842824).
MG BCs: -ve charge blocks (gridpoints):      8262 (    1024880).
MG BCs:     Elided blocks (gridpoints):    168287 (  170909001).
MG BCs: Computational effort saved:  99.9806%.
MG BCs: Charge after coarse-graining:           -9.0009451.
MG DL_MG: Calling solver with defect correction order = 8
MG DL_MG: Solver finished
MG Hartree energy from (\int phi*rho dr):              1208.502706
MG Hartree energy from (\int eps (grad phi)^2 dr):     1208.305457
MG Discrepancy due to finite box and discretization:     -0.197249 (  -0.01632%)
MG Correction to account for finite box:                  0.006434
MG Remaining discrepancy, due to discretization:         -0.190815 (  -0.01579%)
     Trial step:       0.083649137755
             Q1:  -11677.905945079867
 Quadratic coef:       0.000000000106
 Linear coef   :      -0.000000000105
           Qmin:  -11677.905945079892
Quadratic minimum step length (  0.041646831784) accepted
    Initial Ne1:    7192.00000000
      Final Ne1:    7192.00000000

=================== Penalty functional idempotency correction ==================
 RMS occupancy error at iteration   1:  0.000000 (step -0.5000 Ne1=   7192.0000)
            Final RMS occupancy error   :  0.000000 (Ne1=   7192.0000)
               Final occupancy bounds   : [ -0.0000,  1.0000]
================================================================================

    9        -1.167790594508E+04     3.2837E-09     2.9700E-09     1.1642E-10

Reusing previously generated solute cavity.
MG BCs: +ve charge blocks (gridpoints):     28833 (   18842824).
MG BCs: -ve charge blocks (gridpoints):      8262 (    1024880).
MG BCs:     Elided blocks (gridpoints):    168287 (  170909001).
MG BCs: Computational effort saved:  99.9806%.
MG BCs: Charge after coarse-graining:           -9.0009451.
MG DL_MG: Calling solver with defect correction order = 8
MG DL_MG: Solver finished
MG Hartree energy from (\int phi*rho dr):              1208.502709
MG Hartree energy from (\int eps (grad phi)^2 dr):     1208.305461
MG Discrepancy due to finite box and discretization:     -0.197249 (  -0.01632%)
MG Correction to account for finite box:                  0.006434
MG Remaining discrepancy, due to discretization:         -0.190815 (  -0.01579%)
      ideal mu1:      -0.481643140606
   10        -1.167790594508E+04     2.9409E-09     2.6599E-09     0.0000E+00
Finished density kernel iterations (  10)

Writing density kernel to file "host_34301.dkn" ... done


>>> Density kernel optimised for the current NGWF basis:
     ~~~~~~~~~~~~~~~~~~~~~~~~~~~~~~~~~~~~~~~~~~~~~~~~~~~~~~~~~~~
     Total energy                =  -1.16779059450799E+04  Eh
     Estimated bandgap           =   9.7323E-02  Eh
     RMS occupancy error         =   3.2569E-16
     [H,K] commutator            =   2.6599E-09
     Occupancy bounds            = [ -0.000:  1.000]
     ~~~~~~~~~~~~~~~~~~~~~~~~~~~~~~~~~~~~~~~~~~~~~~~~~~~~~~~~~~~




################################################################################
########################### NGWF CG iteration  005 #############################
################################################################################
****** Reciprocal space K.E. preconditioning with k_zero =  3.5000 a0^-1 *******

>>> Checking for convergence of NGWFs: 
           ........................................................
           |         *** NGWF optimisation converged ***          |
           | RMS NGWF gradient =    0.00000090809568              |
           | Criteria satisfied:                                  |
           | -> RMS NGWF gradient lower than set threshold.       |
           ========================================================

Reusing previously generated solute cavity.
MG BCs: +ve charge blocks (gridpoints):     28833 (   18842824).
MG BCs: -ve charge blocks (gridpoints):      8262 (    1024880).
MG BCs:     Elided blocks (gridpoints):    168287 (  170909001).
MG BCs: Computational effort saved:  99.9806%.
MG BCs: Charge after coarse-graining:           -9.0009451.
MG DL_MG: Calling solver with defect correction order = 8
MG DL_MG: Solver finished
MG Hartree energy from (\int phi*rho dr):              1208.502709
MG Hartree energy from (\int eps (grad phi)^2 dr):     1208.305461
MG Discrepancy due to finite box and discretization:     -0.197249 (  -0.01632%)
MG Correction to account for finite box:                  0.006434
MG Remaining discrepancy, due to discretization:         -0.190815 (  -0.01579%)

================================================================================
           ---------------- ENERGY COMPONENTS (Eh) ----------------
           | Kinetic                    :     8528.40793409181424 |
           | Pseudo. (local,OBC,corr'd) :    -5048.91089517513683 |
           | Pseudopotential (non-local):     1403.89429475323709 |
           | Hartree (molecular)        :     1208.50270949309106 |
           | Exchange-correlation       :    -3358.07441031898588 |
           | Ion-ion (open BC)          :   826503.20257522957399 |
           | Dispersion Correction      :       -3.25771648727374 |
           | Smeared ion non-self corr. :  -826455.15560650732368 |
           | Smeared ion self corr.     :   -14457.16956389741972 |
           | Solvent cavitation energy  :        2.32939158069152 |
           | Solute-solvent dis-rep en. :       -1.67465784214865 |
           | Total                      :   -11677.90594507994865 |
           --------------------------------------------------------
           ------ LOCAL ENERGY COMPONENTS FROM MATRIX TRACES ------
           | Pseudopotential (local)    :    -5048.91089517514320 |
           | Hartree                    :    -1992.72580500818299 |
           --------------------------------------------------------
           Integrated density           :     7191.99999999899319
           Integrated density tr(KS)    :     7192.00000000000000
================================================================================


                        <<<<< CALCULATION SUMMARY >>>>>                         
|ITER|    RMS GRADIENT   |     TOTAL ENERGY    |   step   |     Epredicted              
   0     0.00004156435202 -11677.84010538260918   0.618340 -11677.89695621987084        
   1     0.00001000318190 -11677.90541016170755   0.083337 -11677.90585395615199        
   2     0.00000447325495 -11677.90592522674706   0.015664 -11677.90594190747288        
   3     0.00000201751924 -11677.90594423795119   0.003239 -11677.90594493955359        
   4     0.00000090809568 -11677.90594507986680  <-- CG                                 

=================== Finished the calculation in solvent ========================
= Adjusting the following parameters: 
= read_denskern: F
= read_tightbox_ngwfs: F
= maxit_pen: 0 (restored to user-specified value)
= restart read filename prefix: ""
= restart write filename prefix: ""
================================================================================

================================================================================
IS: Calculation in solvent completed (NGWFs converged).      

Individual components of total energy in solvent:     hartree           kcal/mol
- Usual non-electrostatic DFT terms:    -12887.06338831150242    -8086754.193574
- Electrostatic fixed charge energy:      1208.50270949309106      758346.883185
- Apolar cavitation energy:                  2.32939158069152        1461.715254
- Apolar dispersion-repulsion energy:       -1.67465784214865       -1050.863639
 -------------------------------------------------------------------------------
- Total energy in solvent:              -11677.90594507986680    -7327996.458774

Components of total energy in solvent:                hartree           kcal/mol
- Usual non-electrostatic DFT terms:    -12887.06338831150242    -8086754.193574
- Electrostatic energy:                   1208.50270949309106      758346.883185
- Apolar energy terms:                       0.65473373854287         410.851615
 -------------------------------------------------------------------------------
- Total energy in solvent:              -11677.90594507986680    -7327996.458774

Calculation of free energy of solvation:              hartree           kcal/mol
- Total energy in solvent:         (+)  -11677.90594507986680    -7327996.458774
- Total energy in vacuum:          (-)  -11674.07640144356992    -7325593.383913
 -------------------------------------------------------------------------------
- Total free energy of solvation:           -3.82954363629688       -2403.074861

Components of polar term in f.e. of solvation:        hartree           kcal/mol
- Electrostatic:                            -4.61830132575574       -2898.027773
- Change in nonelectrostatic DFT terms:      0.13402395091362          84.101297
 -------------------------------------------------------------------------------
- Polar term in f.e. of solvation:          -4.48427737484212       -2813.926476

Components of free energy of solvation:               hartree           kcal/mol
- Polar term in f.e. of solvation: (+)      -4.48427737484212       -2813.926476
- Apolar (cavitation, dis., rep.): (+)       0.65473373854287         410.851615
 -------------------------------------------------------------------------------
- Total free energy of solvation:           -3.82954363629925       -2403.074861
================================================================================


------------------------------ TIMING INFORMATION ------------------------------
AVERAGE TIME:   35521.817s on     60 node(s)                                    
TOTAL TIME:     35521.820s on     60 node(s)                                    
================= AVERAGE TIMINGS FROM ALL NODES (CUMULATIVE) ==================
|| TAG                                    #calls    cpu time   %total  Gflops ||
|| work_imbalance                       :     1        0.00s   0.000%  ------ ||
|| sparse_set_to_garbage                :   206        0.03s   0.000%  ------ ||
|| parallel_prepare_fd_halos_request    :  2193        0.04s   0.000%  ------ ||
|| ngwfs_initialise_from_radial         :     1        0.09s   0.000%  ------ ||
|| basis_extract_function_from_box      :  4011        0.18s   0.001%  ------ ||
|| parallel_prepare_fd_halos_satisfy    :  2193        0.77s   0.002%  ------ ||
|| parallel_prepare_fd_halos_alloc      :  2193        1.84s   0.005%  ------ ||
|| pseudopotentials_nonlocal_mat        :    35        2.79s   0.008%  ------ ||
|| density_init_guess_real              :     1        3.55s   0.010%  ------ ||
|| restart_kernel_read                  :     1        4.29s   0.012%  ------ ||
|| openbc_locps_radial                  :     1        4.59s   0.013%  ------ ||
|| restart_ngwfs_tightbox_input         :     1        8.68s   0.024%  ------ ||
|| parallel_prepare_fd_halos_comms_imbal:  2193       11.83s   0.033%  ------ ||
|| parallel_prepare_fd_halos_clear      :  2193       22.46s   0.063%  ------ ||
|| sparse_init                          :     2       23.18s   0.065%  ------ ||
|| projectors_func_ovlp_box             :    35       30.64s   0.086%  ------ ||
|| parallel_prepare_fd_halos_comms_wait :  2193       30.67s   0.086%  ------ ||
|| function_ops_brappd_ketppd           :    35       32.99s   0.093%  ------ ||
|| projectors_init_fftbox_recip         :   161       36.17s   0.102%  ------ ||
|| palser_mano_kernel_optimise          :     1       37.21s   0.105%  ------ ||
|| basis_copy_function_to_box           : 65483       46.71s   0.131%  ------ ||
|| pseudo_make_structure_factor         :     2       53.47s   0.151%  ------ ||
|| ngwf_gradient_coeffs                 :    18       54.18s   0.153%  ------ ||
|| fourier_apply_box_pair               :  5807       59.97s   0.169% 560.648 ||
|| parallel_prepare_fd_halos            :  2193       67.62s   0.190%  ------ ||
|| sparse_embed_hotelling_invert_embed  :    35       83.64s   0.235%  ------ ||
|| restart_kernel_write                 :    19      160.76s   0.453%  ------ ||
|| projectors_gradient_batch            :   126      165.36s   0.466%  ------ ||
|| integrals_kinetic                    :    35      171.74s   0.483%  ------ ||
|| fourier_apply_cell_backward          :  1463      199.90s   0.563%  99.620 ||
|| finite_difference_derivative         :  2193      200.20s   0.564%  ------ ||
|| sparse_trace                         :  5657      215.87s   0.608%  ------ ||
|| basis_dot_function_with_box          : 9.883M     218.22s   0.614%  ------ ||
|| openbc_locps_on_grid                 :     2      260.10s   0.732%  ------ ||
|| fourier_apply_cell_forward           :  1461      264.63s   0.745%  75.152 ||
|| kernel_purify                        :   558      331.74s   0.934%  ------ ||
|| lnv_gradient_norm                    :   180      464.33s   1.307%  ------ ||
|| basis_add_function_to_box            : 20.68M     478.54s   1.347%  ------ ||
|| hamiltonian_energy_components        :     4      491.55s   1.384%  ------ ||
|| kernel_fix                           :   180      524.89s   1.478%  ------ ||
|| xc_energy_potential                  :   365      537.05s   1.512%  ------ ||
|| ngwf_gradient_build_batch            :   126      851.71s   2.398%  ------ ||
|| integrals_locpot_mat_els_batch       :  1323      883.32s   2.487%  ------ ||
|| density_batch_row_sums               :  2548     1147.78s   3.231%  ------ ||
|| ngwf_gradient_batch                  :   126     1182.36s   3.329%  ------ ||
|| ngwf_gradient_lnv                    :    18     1350.73s   3.803%  ------ ||
|| cell_grid_deposit_box_real           : 41912     1463.86s   4.121%  ------ ||
|| restart_ngwfs_tightbox_output        :    16     1658.38s   4.669%  ------ ||
|| cell_grid_extract_box_real           : 46112     1729.39s   4.869%  ------ ||
|| sparse_product                       :  7297     1989.01s   5.599%  ------ ||
|| density_fftbox_deposit_to_cell       : 39676     2189.07s   6.163%  ------ ||
|| potential_apply_to_ngwf_batch        :  1323     4010.93s  11.291%  ------ ||
|| density_fftbox_interpolate_multiply  : 39676     4131.97s  11.632%  ------ ||
|| integrals_locpot_dbl_grid            :   189     4914.04s  13.834%  ------ ||
|| multigrid_prepare_bound_cond         :   365     5013.06s  14.113%  ------ ||
|| fourier_apply_box                    : 136.4k    5067.33s  14.265% 755.300 ||
|| density_batch_interp_deposit         :  2548     7347.98s  20.686%  ------ ||
|| dl_mg_solver_calls                   :   365     8861.31s  24.946%  ------ ||
|| density_on_dbl_grid                  :   364     8994.11s  25.320%  ------ ||
|| multigrid_calculate_hartree          :   365    14138.20s  39.801%  ------ ||
|| hamiltonian_lhxc_calculate           :   360    23648.11s  66.573%  ------ ||
|| lnv_denskernel_optimise_cg           :    18    29468.09s  82.958%  ------ ||
|| ngwf_cg_optimise                     :     2    34552.06s  97.270%  ------ ||
|| total_time                           :     1    35521.82s 100.000%  ------ ||
================================================================================
Overhead of generating timer report: 
- 0 ms averaging over threads,
- 15 ms ensuring consistency across MPI ranks,
- 0 ms printing in order.

Job completed: 30-05-2020 03:14 (+0100)

Application 40676834 resources: utime ~7284300s, stime ~233239s, Rss ~3654700, inblocks ~340803077, outblocks ~74313845
