 +---------------------------------------------------------------+
 |                                                               |
 |        ####### #     # ####### ####### ####### ######         |
 |        #     # ##    # #          #    #       #     #        |
 |        #     # # #   # #          #    #       #     #        |
 |        #     # #  #  # #####      #    #####   ######         |
 |        #     # #   # # #          #    #       #              |
 |        #     # #    ## #          #    #       #              |
 |        ####### #     # #######    #    ####### #              |
 |                                                               |
 |        Linear-Scaling Ab Initio Total Energy Program          |
 |                                                               |
 |          Release for academic collaborators of ODG            |
 |                                             Version 5.3.2.6.  |
 |                                                               |
 +---------------------------------------------------------------+
 |                                                               |
 |  Authors:                                                     |
 |  Jacek Dziedzic, Peter D. Haynes, Nicholas D. M. Hine,        |
 |  Arash. A. Mostofi, Mike C. Payne and Chris-Kriton Skylaris   |
 |                                                               |
 |  Contributors:                                                |
 |  J. Aarons, L. Andrinopoulos, P. W. Avraam, R. A. Bell,       |
 |  A. Bhandari, G. A. Bramley, R. J. Charlton, S. J. Clark,     |
 |  R. J. Clements, G. C. Constantinescu, F. Corsetti,           |
 |  N. Corsini, O. Dieguez, S. M. M. Dubois, K. K. B. Duff,      |
 |  J. M. Escartin, A. Greco, H. Helal, Q. O. Hill, L. P. Lee,   |
 |  J.-H. Li, E. B. Linscott, G. Moynihan, D. D. O`Regan,        |
 |  O. K. Okan, M. J. S. Phipps, C. J. Pickard,                  |
 |  J. C. A. Prentice, M. I. J. Probert, L. E. Ratcliff,         |
 |  M. Robinson, A. Ruiz Serrano, J. S. Spencer, E. W. Tait,     |
 |  G. Teobaldi, D. Turban, V. Vitale, K. A. Wilkinson,          |
 |  C. Weber, J. C. Womack, N. Yeung and T. J. Zuehlsdorff       |
 |                                                               |
 |                                   Copyright (c) 2004-2019     |
 |                                                               |
 |  Please cite:                                                 |
 |  "Introducing ONETEP: Linear-scaling density functional       |
 |   simulations on parallel computers".                         |
 |   C.-K. Skylaris, P. D. Haynes, A. A. Mostofi, M. C. Payne.   |
 |   J. Chem. Phys. 122 084119 (2005).                           |
 |                                                               |
 |          in all publications arising from your use of ONETEP. |
 |                                                               |
 +---------------------------------------------------------------+
 |                                                               |
 |   ONETEP is based on developments described in the following  |
 |   publications:                                               |
 |                                                               |
 |  "Nonorthogonal generalized Wannier function pseudopotential  |
 |   plane-wave method".                                         |
 |   C.-K. Skylaris, A. A. Mostofi, P. D. Haynes, O. Dieguez,    |
 |   M. C. Payne.                                                |
 |   Phys. Rev. B 66 035119 (2002).                              |
 |                                                               |
 |  "Preconditioned iterative minimization for linear-scaling    |
 |   electronic structure calculations".                         |
 |   A. A. Mostofi, P. D. Haynes, C.-K. Skylaris, M. C. Payne.   |
 |   J. Chem. Phys. 119(17), pp.8842-8848 (2003).                |
 |                                                               |
 |  "Total-energy calculations on a real space grid with         |
 |   localized functions and a plane-wave basis".                |
 |   A. A. Mostofi, C.-K. Skylaris, P. D. Haynes, M. C. Payne.   |
 |   Comput. Phys. Commun. 147, pp.788-802 (2002).               |
 |                                                               |
 |  "Accurate kinetic energy evaluation in electronic structure  |
 |   calculations with localized functions on real space grids"  |
 |   C.-K. Skylaris, A. A. Mostofi, P. D. Haynes, C. J. Pickard, |
 |   M. C. Payne.                                                |
 |   Comput. Phys. Commun. 140, pp.315-322 (2001).               |
 |                                                               |
 |  "Accurate ionic forces and geometry optimization in linear-  |
 |   scaling density-functional theory with local orbitals"      |
 |   N. D. M. Hine, M. Robinson, P. D. Haynes, C.-K. Skylaris,   |
 |   M. C. Payne, and A. A. Mostofi.                             |
 |   Phys. Rev. B 83 195102 (2011).                              |
 |                                                               |
 +---------------------------------------------------------------+

Job started: 26-05-2020 07:19 (+0100)
 
Reading parameters from file "host_21381.dat" ...... done

If your calculation crashes here, before "Checking processes and threads..."
is displayed, then your stack size is insufficient.
If so, use "ulimit -s unlimited" at runtime.
You can disable this check with "check_stack_size F".

Checking processes and threads...
   Determining the default number of threads...
      No default threads set at compilation time: defaulting to 1.
      OpenMP library call suggests 4 threads.
      Hybrid MPI-OpenMP compilation detected.
      Number of MPI processes > 1.
      OMP_NUM_THREADS environment variable present and
      its value matches the one obtained from the OpenMP library call.
      Using this value as default.
      Default threads: 4
      Default applies to threads_max and threads_num_fftboxes.
      Settings in the input file override this default.
   ... done

   Running with 60 MPI processes.
   There are 6 MPI processes running on the same node as the root process.
   Each MPI process is using: 
               1 threads for simulation cell FFTs.
               1 threads for parallel FFT box operations.
               4 threads for loops over batched FFT box operations.
               4 threads in other parallel regions.
... done

Basic input checks...... done

Reading geometry and species blocks from file "host_21381.dat" ...
  <species_atomic_set> block not found: NGWF initialisation set to SOLVE
IS: Dielectric excluded regions:
    - NONE.
    
  Number of PPD points along a3 set to 1.  This is 
  the default value, it may have been provided also in the input file.
... done
 Writing xyz coordinates to file "host_21381.xyz" ... done


--------------------------------------------------------------------------------
---------------------------------- INPUT FILE ----------------------------------
--------------------------------------------------------------------------------

cutoff_energy       : 800 eV                                                    
xc_functional PBE                                                               
task SINGLEPOINT                                                                
write_xyz true                                                                  
output_detail VERBOSE                                                           
ngwf_threshold_orig : 0.000002                                                  
kernel_cutoff       : 1000                                                      
k_zero              : 3.5                                                       
elec_cg_max 0                                                                   
occ_mix 1.0                                                                     
dispersion 1                                                                    
maxit_ngwf_cg 40                                                                
minit_lnv 10                                                                    
maxit_lnv 10                                                                    
write_denskern T                                                                
write_tightbox_ngwfs T                                                          
charge 9                                                                        
is_implicit_solvent T                                                           
is_auto_solvation T                                                             
is_include_apolar T                                                             
is_smeared_ion_rep T                                                            
is_solvent_surf_tension 4.7624E-5 Ha/bohr**2                                    
is_apolar_scaling_factor 0.281075                                               
is_solvation_beta 1.3                                                           
is_density_threshold 0.00035                                                    
is_bulk_permittivity 78.54                                                      
is_dielectric_model fix_initial                                                 
is_smeared_ion_width 0.8                                                        
mg_defco_fd_order 8                                                             
is_bc_coarseness 10                                                             
is_bc_surface_coarseness 1                                                      
fine_grid_scale 2.0                                                             
%block species                                                                  
N   N   7 4 8.0                                                                 
H   H   1 1 8.0                                                                 
C   C   6 4 8.0                                                                 
S   S  16 9 8.0                                                                 
O   O   8 4 8.0                                                                 
%endblock species                                                               
%block species_pot                                                              
N   N_00.recpot                                                                 
H   H_04.recpot                                                                 
C   C_01.recpot                                                                 
S   S_00.recpot                                                                 
O   O_02.recpot                                                                 
%endblock species_pot                                                           
%block lattice_cart                                                             
139.252   0.000   0.000                                                         
0.000 142.425   0.000                                                           
0.000   0.000   162.84                                                          
%endblock lattice_cart                                                          
%block positions_abs                                                            
     Hash =  -000002457446115329767472
%endblock positions_abs                                                         

--------------------------------------------------------------------------------
-------------------------------- END INPUT FILE --------------------------------
--------------------------------------------------------------------------------


 
 ESDF WARNING(1): "kernelcutoff" (esdf_physical) has no units. Assume "bohr".
 ESDF WARNING(2): "kzero" (esdf_physical) has no units. Assume "1/bohr".
 ESDF WARNING(3
 ): "issmearedionwidth" (esdf_physical) has no units. Assume "bohr".
<<<<<<<<<<<<<<<<<<<<<<<<<<<<<<<<< Full system >>>>>>>>>>>>>>>>>>>>>>>>>>>>>>>>>>
<<<<<<<<<<<<<<<<<<<<<<<<< Pseudopotential information >>>>>>>>>>>>>>>>>>>>>>>>>>
File: N_00.recpot [ 2001 points up to Gmax=  52.9 (1/bohr)]
  Atomic number:  7;  ionic charge:  5.000000
    Shell 1: l = 0; rc = 1.48 bohr
File: H_04.recpot [ 2001 points up to Gmax=  52.9 (1/bohr)]
  Atomic number:  1;  ionic charge:  1.000000
    Local potential
File: C_01.recpot [ 2001 points up to Gmax=  52.9 (1/bohr)]
  Atomic number:  6;  ionic charge:  4.000000
    Shell 1: l = 0; rc = 1.48 bohr
File: S_00.recpot [ 2001 points up to Gmax=  52.9 (1/bohr)]
  Atomic number: 16;  ionic charge:  6.000000
    Shell 1: l = 0; rc = 1.90 bohr
    Shell 2: l = 2; rc = 1.84 bohr
File: O_02.recpot [ 2001 points up to Gmax=  52.9 (1/bohr)]
  Atomic number:  8;  ionic charge:  6.000000
    Shell 1: l = 0; rc = 1.31 bohr
<<<<<<<<<<<<<<<<<<<<<<<<<<<<<<<<<<<<<<<<>>>>>>>>>>>>>>>>>>>>>>>>>>>>>>>>>>>>>>>>

-------------------------- Atom counting information ---------------------------
Symbol    Natoms    Nngwfs    Nprojs
  N        236       944       236
  H       1311      1311         0
  C        810      3240       810
  S          6        54        36
  O        239       956       239
.......   ......    ......    ......
Totals:   2602      6505      1321
--------------------------------------------------------------------------------

=============================== PSINC grid sizes ===============================
                      Simulation cell:  275 x 280 x 320
                              FFT-box:   99 x  99 x  99
                                  PPD:    5 x   5 x   1
Grid space d1=  0.506370909091a0 (KE cutoff=  29.62556Eh = 806.15239eV)
Grid space d2=  0.508660714286a0 (KE cutoff=  29.35943Eh = 798.91072eV)
Grid space d3=  0.508875000000a0 (KE cutoff=  29.33471Eh = 798.23802eV)
================================================================================

********************* Fourier parallelisation information **********************
       Coarse grid (whole simulation cell) dimensions:    275   280   320
          Real-space ('12') slabs/node (min max mean):      5     6     5
         Recip-space ('23') slabs/node (min max mean):      2     3     2
********************************************************************************

********************* Fourier parallelisation information **********************
       Double grid (whole simulation cell) dimensions:    550   560   640
          Real-space ('12') slabs/node (min max mean):     10    11    10
         Recip-space ('23') slabs/node (min max mean):      4     5     4
********************************************************************************
ONETEP fine grid is 550 x 560 x 640 gridpoints, 139.2520 x 142.4250 x 162.8400 bohr.
FD multigrid is     545 x 553 x 633 gridpoints, 137.9861 x 140.6447 x 161.0589 bohr.


Calculating local pseudopotential in open BC on a radial grid ...
Discrepancy between calculated realspace psloc and -Z/x on [5a0,257.280a0]:
max |rel. diff| # avg |rel. diff| #  avg rel. diff #  f # pseudopotential file
 0.000256370913    0.000003612608   0.000000072509   55  'N_00.recpot'
 0.000395389207    0.000016224277  -0.000000076597   55  'H_04.recpot'
 0.000377360759    0.000017565724   0.000000149252   55  'C_01.recpot'
 0.000469715301    0.000020587835   0.000000455518   55  'S_00.recpot'
 0.000665442002    0.000026079317   0.000000158685   55  'O_02.recpot'
... done

Atom SCF Calculation for N  : Z (AE atom) =   7 : Z (PS atom) =   5
Config String:
Orbitals (num,occ):  2     2.00 3.00
Orbitals   (num,l):  2        0    1
Real-space Grid (nr,dr,rmax): 1203    0.0066555740    8.0000000000
Spherical Bessel Basis (nsws,lmax,cutoff):   47    1  176.3951722778
Confining potential (l,width,scale):  0    3.0000000000  100.0000000000
Confining potential (l,width,scale):  1    3.0000000000  100.0000000000
  1         -4.7312375307   -3.4155304497    7.0523828109   -1.9351020946
  2         -9.7309464766   -2.0532547791    8.2966052865   -2.2494486027
  3         -9.6627394379   -2.1124926340    8.2327997121   -2.2369778124
  4         -9.6814993499   -2.1215521045    8.2229805960   -2.2365178421
  5         -9.6843326483   -2.1250939529    8.2191374534   -2.2362718126
  6         -9.6859628709   -2.1267894855    8.2172963573   -2.2362066344
  7         -9.6867347035   -2.1276425665    8.2163697352   -2.2361903369
  8         -9.6870802100   -2.1280764625    8.2158983890   -2.2361891460
  9         -9.6872290423   -2.1282977424    8.2156580222   -2.2361920435
 10         -9.6872901988   -2.1284107021    8.2155353368   -2.2361953393
 11         -9.6873135296   -2.1284684031    8.2154726809   -2.2361979819
 12         -9.6873212476   -2.1284978948    8.2154406648   -2.2361998431
 13         -9.6873229586   -2.1285129774    8.2154242957   -2.2362010676
 14         -9.6873226456   -2.1285206957    8.2154159216   -2.2362018403
 15         -9.6873218534   -2.1285246479    8.2154116349   -2.2362023142
 16         -9.6873212599   -2.1285262679    8.2154098784   -2.2362025420
 17         -9.6873207834   -2.1285272564    8.2154088068   -2.2362026955
 18         -9.6873204210   -2.1285278596    8.2154081529   -2.2362027982
 19         -9.6873201550   -2.1285282280    8.2154077538   -2.2362028667
 20         -9.6873199645   -2.1285284529    8.2154075102   -2.2362029121
 21         -9.6873198305   -2.1285285903    8.2154073614   -2.2362029421
 22         -9.6873197377   -2.1285286742    8.2154072705   -2.2362029618
Atom SCF converged after  22 iterations to a total energy of     -9.68731974

Atom SCF Calculation for H  : Z (AE atom) =   1 : Z (PS atom) =   1
Config String:
Orbitals (num,occ):  1     1.00
Orbitals   (num,l):  1        0
Real-space Grid (nr,dr,rmax): 1203    0.0066555740    8.0000000000
Spherical Bessel Basis (nsws,lmax,cutoff):   47    0  176.3951722778
Confining potential (l,width,scale):  0    3.0000000000  100.0000000000
  1         -0.3194257691   -0.2393854593    0.2820953124   -0.2424203209
  2         -0.3951823392   -0.2377116493    0.2886404059   -0.2475147891
  3         -0.4317044583   -0.2352244387    0.2921333887   -0.2514046172
  4         -0.4470703708   -0.2341892222    0.2934391879   -0.2531009782
  5         -0.4532132900   -0.2338556667    0.2938388426   -0.2537313520
  6         -0.4556579251   -0.2337612552    0.2939448584   -0.2539550462
  7         -0.4566418315   -0.2337377355    0.2939680120   -0.2540342273
  8         -0.4570437922   -0.2337331116    0.2939708287   -0.2540627372
  9         -0.4572102946   -0.2337328328    0.2939698291   -0.2540732650
 10         -0.4572800424   -0.2337332404    0.2939687193   -0.2540772588
 11         -0.4573095100   -0.2337335791    0.2939680317   -0.2540788122
 12         -0.4573220379   -0.2337337762    0.2939676699   -0.2540794294
 13         -0.4573273880   -0.2337338775    0.2939674931   -0.2540796787
 14         -0.4573296803   -0.2337339266    0.2939674099   -0.2540797808
 15         -0.4573306647   -0.2337339495    0.2939673718   -0.2540798230
 16         -0.4573310882   -0.2337339601    0.2939673545   -0.2540798406
 17         -0.4573312706   -0.2337339649    0.2939673467   -0.2540798479
 18         -0.4573313493   -0.2337339670    0.2939673433   -0.2540798510
Atom SCF converged after  18 iterations to a total energy of     -0.45733135

Atom SCF Calculation for C  : Z (AE atom) =   6 : Z (PS atom) =   4
Config String:
Orbitals (num,occ):  2     2.00 2.00
Orbitals   (num,l):  2        0    1
Real-space Grid (nr,dr,rmax): 1203    0.0066555740    8.0000000000
Spherical Bessel Basis (nsws,lmax,cutoff):   47    1  176.3951722778
Confining potential (l,width,scale):  0    3.0000000000  100.0000000000
Confining potential (l,width,scale):  1    3.0000000000  100.0000000000
  1         -5.2976922011   -1.3069684169    4.5135249990   -1.4493313817
  2         -5.3721716256   -1.3429755895    4.4750154450   -1.4361613026
  3         -5.3809959565   -1.3617365618    4.4541655428   -1.4305930207
  4         -5.3918938866   -1.3667928461    4.4484735100   -1.4294652294
  5         -5.3956096428   -1.3688539142    4.4461376126   -1.4290734646
  6         -5.3968271862   -1.3696852393    4.4451910874   -1.4289366866
  7         -5.3972028401   -1.3700178062    4.4448112275   -1.4288900460
  8         -5.3973067903   -1.3701500158    4.4446598370   -1.4288749220
  9         -5.3973286940   -1.3702023868    4.4445997329   -1.4288704293
 10         -5.3973289850   -1.3702230869    4.4445759233   -1.4288693188
 11         -5.3973254264   -1.3702312560    4.4445665049   -1.4288691775
 12         -5.3973224003   -1.3702344755    4.4445627836   -1.4288692549
 13         -5.3973208708   -1.3702354890    4.4445616088   -1.4288693270
 14         -5.3973198783   -1.3702360102    4.4445610034   -1.4288693814
 15         -5.3973192535   -1.3702362780    4.4445606917   -1.4288694190
 16         -5.3973188684   -1.3702364155    4.4445605313   -1.4288694437
 17         -5.3973186349   -1.3702364860    4.4445604489   -1.4288694595
 18         -5.3973184951   -1.3702365221    4.4445604065   -1.4288694693
 19         -5.3973184122   -1.3702365405    4.4445603848   -1.4288694753
Atom SCF converged after  19 iterations to a total energy of     -5.39731841

Atom SCF Calculation for S  : Z (AE atom) =  16 : Z (PS atom) =   6
Config String:
Orbitals (num,occ):  3     2.00 4.00 0.00
Orbitals   (num,l):  3        0    1    2
Real-space Grid (nr,dr,rmax): 1203    0.0066555740    8.0000000000
Spherical Bessel Basis (nsws,lmax,cutoff):   47    2  176.3951722778
Confining potential (l,width,scale):  0    3.0000000000  100.0000000000
Confining potential (l,width,scale):  1    3.0000000000  100.0000000000
Confining potential (l,width,scale):  2    3.0000000000  100.0000000000
  1        -12.4735062396   -1.0328741412   10.1554312477   -2.4512393157
  2         -9.9458301913   -2.4607392455    8.3041325857   -2.0306994528
  3        -10.1450417646   -2.2931184565    8.4831893826   -2.0812538287
  4        -10.1528335592   -2.2733105793    8.5050388867   -2.0896035179
  5        -10.1571940363   -2.2633716629    8.5160794258   -2.0939370707
  6        -10.1594380571   -2.2584938667    8.5215163935   -2.0961289008
  7        -10.1605856507   -2.2561081821    8.5241804044   -2.0972291378
  8        -10.1611799191   -2.2549395235    8.5254868240   -2.0977806248
  9        -10.1614918752   -2.2543658586    8.5261285885   -2.0980571586
 10        -10.1616572884   -2.2540839121    8.5264441898   -2.0981959233
 11        -10.1617455602   -2.2539453058    8.5265994231   -2.0982656006
 12        -10.1617928447   -2.2538772062    8.5266757320   -2.0983006047
 13        -10.1618182292   -2.2538437891    8.5267131983   -2.0983181961
 14        -10.1618318741   -2.2538274201    8.5267315620   -2.0983270391
 15        -10.1618392144   -2.2538194197    8.5267405433   -2.0983314852
 16        -10.1618431651   -2.2538155200    8.5267449245   -2.0983337210
 17        -10.1618452923   -2.2538136252    8.5267470551   -2.0983348455
 18        -10.1618464380   -2.2538127080    8.5267480875   -2.0983354110
 19        -10.1618470552   -2.2538122659    8.5267485856   -2.0983356955
 20        -10.1618473878   -2.2538120540    8.5267488248   -2.0983358386
 21        -10.1618475670   -2.2538119530    8.5267489389   -2.0983359106
 22        -10.1618476637   -2.2538119053    8.5267489929   -2.0983359468
Atom SCF converged after  22 iterations to a total energy of    -10.16184766

Atom SCF Calculation for O  : Z (AE atom) =   8 : Z (PS atom) =   6
Config String:
Orbitals (num,occ):  2     2.00 4.00
Orbitals   (num,l):  2        0    1
Real-space Grid (nr,dr,rmax): 1203    0.0066555740    8.0000000000
Spherical Bessel Basis (nsws,lmax,cutoff):   47    1  176.3951722778
Confining potential (l,width,scale):  0    3.0000000000  100.0000000000
Confining potential (l,width,scale):  1    3.0000000000  100.0000000000
  1         -1.8735052164   -7.5539365035   10.1554312477   -2.4512393157
  2        -16.0318313751   -3.1285771268   13.6395848164   -3.2358799643
  3        -15.9524020423   -3.0762819706   13.6967272503   -3.2536856837
  4        -15.8521515939   -3.0781493909   13.6951909330   -3.2561700440
  5        -15.8357139793   -3.0748501933   13.6988803334   -3.2580493133
  6        -15.8246052853   -3.0740779781   13.6997881576   -3.2588327446
  7        -15.8189019501   -3.0737449687   13.7001869911   -3.2592378801
  8        -15.8159785510   -3.0736026016   13.7003615168   -3.2594475790
  9        -15.8144776168   -3.0735437994   13.7004360379   -3.2595560735
 10        -15.8137058024   -3.0735207882   13.7004667348   -3.2596122456
 11        -15.8133083127   -3.0735125946   13.7004786868   -3.2596413656
 12        -15.8131032938   -3.0735102195   13.7004828997   -3.2596564858
 13        -15.8129973902   -3.0735099286   13.7004840891   -3.2596643505
 14        -15.8129426040   -3.0735102506   13.7004842061   -3.2596684489
 15        -15.8129142203   -3.0735106556   13.7004840157   -3.2596705887
 16        -15.8128994940   -3.0735109855   13.7004837906   -3.2596717080
 17        -15.8128918425   -3.0735112169   13.7004836103   -3.2596722946
 18        -15.8128878614   -3.0735113674   13.7004834848   -3.2596726026
 19        -15.8128857871   -3.0735114608   13.7004834035   -3.2596727646
 20        -15.8128847048   -3.0735115170   13.7004833533   -3.2596728500
 21        -15.8128841394   -3.0735115501   13.7004833231   -3.2596728951
 22        -15.8128838436   -3.0735115693   13.7004833054   -3.2596729190
 23        -15.8128836887   -3.0735115802   13.7004832951   -3.2596729316
 24        -15.8128836074   -3.0735115864   13.7004832893   -3.2596729383
Atom SCF converged after  24 iterations to a total energy of    -15.81288361

========================== Calculation in vacuum ==============================
= Adjusting the following parameters: 
= is_implicit_solvent: F
= is_include_apolar: F
= write_denskern: T
= write_tightbox_ngwfs: T
= restart read filename prefix: ""
= restart write filename prefix: "vacuum_"
===============================================================================

Determining parallel strategy ...
... using space-filling curve
... NGWF load balancing: max    109;  min    108;  average    108
... Projector load balancing: max     25;  min     21;  average     22
... done
Calculating direct Ion-Ion energy ...
Ion-Ion Energy        :    828319.74660146888345
======================= Empirical dispersion information =======================
Model : Elstner
Dispersion Correction Energy: -0.33065438E+01 Hartree
================================================================================
Basis initialisation ...... NGWF spheres initialised
... Projector spheres initialised
... NGWF tight boxes initialised
... Tight-boxes gathered
... NGWF basis size (local,global):    1374892  82709027
... Nonlocal pseudopotential projector initialisation
... done

========================== Sparse matrix information ===========================
                        Overlap matrix filling:   6.84%
                        Density kernel filling: 100.00%
              NGWF-Proj overlap matrix filling:   1.79%
                    Hamiltonian matrix filling:   7.73%
                  NGWF diagonal matrix filling:   0.05%
                             KS matrix filling: 100.00% 
                           KSKS matrix filling: 100.00% 
================================================================================

Sparse matrix initialisation ... done

Generating smeared ion density ... done
Smeared ion self correction:     -14457.169564
Smeared ion non-self correction: -828271.882599
NGWF initialisation ...... done
============ Calculation of NGWF S^-1 using Hotelling algorithm ================ 
         Iteration  |  Frobenius norm and Maximum abs value    (of I-S*S_n^-1)   
               1       0.78435066E+02     0.98226214E+00
               2       0.76552160E+02     0.96497792E+00
               3       0.73514671E+02     0.93169325E+00
               4       0.69216205E+02     0.86979649E+00
               5       0.63880623E+02     0.76508752E+00
               6       0.57901516E+02     0.70687823E+00
               7       0.51911084E+02     0.67111812E+00
               8       0.46371456E+02     0.64365376E+00
               9       0.40262058E+02     0.60385841E+00
              10       0.31925492E+02     0.53524606E+00
              11       0.21328335E+02     0.42487308E+00
              12       0.10801969E+02     0.27531678E+00
              13       0.35147293E+01     0.12892044E+00
              14       0.54724945E+00     0.31928387E-01
              15       0.25775932E-01     0.23402571E-02
              16       0.13198421E-03     0.15886826E-04
              17       0.54342389E-08     0.84983998E-09
              18       0.92972546E-13     0.43298698E-14
================================================================================
Calculating local pseudopotential in open BC on the fine real space grid ...
... done

MG BCs: +ve charge blocks (gridpoints):     19797 (   15528010).
MG BCs: -ve charge blocks (gridpoints):      7820 (    1056626).
MG BCs:     Elided blocks (gridpoints):    177323 (  174192069).
MG BCs: Computational effort saved:  99.9855%.
MG BCs: Charge after coarse-graining:           -9.0002188.
MG DL_MG: Calling solver with defect correction order = 8
MG DL_MG: Solver finished
MG Hartree energy from (\int phi*rho dr):              1462.543771
MG Hartree energy from (\int eps (grad phi)^2 dr):     1461.920826
MG Discrepancy due to finite box and discretization:     -0.622945 (  -0.04259%)
MG Correction to account for finite box:                  0.463284
MG Remaining discrepancy, due to discretization:         -0.159662 (  -0.01092%)
Up spin density kernel initialisation ... 
======= Optimisation of K by Palser-Manolopoulos canonical purification ======== 
         Iteration  |  Band structure energy |    c_n   
               1       -2586.33932718249844    0.5263999
               2       -2762.05106454999350    0.5167414
               3       -2941.45727689918840    0.5154560
               4       -3090.37802446703927    0.5293249
               5       -3181.23272140518156    0.5650726
               6       -3219.02672682497905    0.6087518
               7       -3231.93772285796967    0.6198328
               8       -3237.55511297406838    0.6182634
               9       -3240.26265622145002    0.6318652
              10       -3241.38002188943301    0.6618915
              11       -3241.80185418739256    0.6936255
              12       -3241.97186994219373    0.6912251
              13       -3242.06258789356116    0.6533863
              14       -3242.12169316080417    0.5984605
              15       -3242.15739734083036    0.5227324
              16       -3242.17454620943363    0.4309540
              17       -3242.17729654589039    0.4032992
              18       -3242.17776107754753    0.4381700
              19       -3242.17798103032192    0.4804393
              20       -3242.17811305739178    0.4980668
              21       -3242.17821863462814    0.4999812
              22       -3242.17833038679146    0.5000000
              23       -3242.17841901200609    0.5000000
              24       -3242.17845415570400    0.5000000
              25       -3242.17845795503445    0.5000000
              26       -3242.17845799298129    0.5000000
Termination criterion satisfied: band energy change below threshold.
Final occupancy bounds: [    0.00000000000009:    1.00000000000000]
Closest occupancy to 0.5:     1.00000000000000
================================================================================
... done

Writing density kernel to file "host_21381.vacuum_dkn" ... done

>>> Optimising kernel for current NGWFs:
   Initial electron number for spin 1:    7192.00000000
     Final electron number for spin 1:    7192.00000000

=================== Penalty functional idempotency correction ==================
 RMS occupancy error at iteration   1:  0.000000 (step -0.5000 Ne1=   7192.0000)
            Final RMS occupancy error   :  0.000000 (Ne1=   7192.0000)
               Final occupancy bounds   : [  0.0000,  1.0000]
================================================================================

................................................................................
<<<<<<<<<<<<<< LNV (Original version) density kernel optimisation >>>>>>>>>>>>>>
~~~~~~~~~~~~~~~~~~~~~~~~~~~~~~~~~~~~~~~~~~~~~~~~~~~~~~~~~~~~~~~~~~~~~~~~~~~~~~~~
   iter  |      energy (Eh)       | rms gradient |  commutator  |   dE (Eh)
MG BCs: +ve charge blocks (gridpoints):     30421 (   16738455).
MG BCs: -ve charge blocks (gridpoints):      8165 (    1088199).
MG BCs:     Elided blocks (gridpoints):    166689 (  172950051).
MG BCs: Computational effort saved:  99.9798%.
MG BCs: Charge after coarse-graining:           -9.0009401.
MG DL_MG: Calling solver with defect correction order = 8
MG DL_MG: Solver finished
MG Hartree energy from (\int phi*rho dr):              1416.866287
MG Hartree energy from (\int eps (grad phi)^2 dr):     1416.193581
MG Discrepancy due to finite box and discretization:     -0.672706 (  -0.04748%)
MG Correction to account for finite box:                  0.468131
MG Remaining discrepancy, due to discretization:         -0.204575 (  -0.01444%)
      ideal mu1:      -0.723016253077
             Q0:  -11507.197475017398
             G0:    -140.384720516920
   RMS gradient:       0.001821430564
MG BCs: +ve charge blocks (gridpoints):     30397 (   16817137).
MG BCs: -ve charge blocks (gridpoints):      8061 (    1068872).
MG BCs:     Elided blocks (gridpoints):    166712 (  172890696).
MG BCs: Computational effort saved:  99.9798%.
MG BCs: Charge after coarse-graining:           -9.0009605.
MG DL_MG: Calling solver with defect correction order = 8
MG DL_MG: Solver finished
MG Hartree energy from (\int phi*rho dr):              1442.305263
MG Hartree energy from (\int eps (grad phi)^2 dr):     1441.649530
MG Discrepancy due to finite box and discretization:     -0.655733 (  -0.04546%)
MG Correction to account for finite box:                  0.467652
MG Remaining discrepancy, due to discretization:         -0.188081 (  -0.01304%)
     Trial step:       0.500000000000
             Q1:  -11518.035655942862
 Quadratic coef:      59.354179332995
 Linear coef   :     -70.192360258460
           Qmin:  -11527.949878192798
Quadratic minimum step length (  0.295650453967) accepted
    Initial Ne1:    7192.00000000
      Final Ne1:    7192.00000000

=================== Penalty functional idempotency correction ==================
 RMS occupancy error at iteration   1:  0.003277 (step -0.4889 Ne1=   7192.0000)
 RMS occupancy error at iteration   2:  0.000024 (step -0.5000 Ne1=   7192.0000)
            Final RMS occupancy error   :  0.000000 (Ne1=   7192.0000)
               Final occupancy bounds   : [  0.0000,  1.0000]
================================================================================

    1        -1.150719747502E+04     1.8214E-03     1.6474E-03
MG BCs: +ve charge blocks (gridpoints):     30403 (   16786268).
MG BCs: -ve charge blocks (gridpoints):      8113 (    1077197).
MG BCs:     Elided blocks (gridpoints):    166706 (  172913240).
MG BCs: Computational effort saved:  99.9798%.
MG BCs: Charge after coarse-graining:           -9.0009522.
MG DL_MG: Calling solver with defect correction order = 8
MG DL_MG: Solver finished
MG Hartree energy from (\int phi*rho dr):              1424.128987
MG Hartree energy from (\int eps (grad phi)^2 dr):     1423.467265
MG Discrepancy due to finite box and discretization:     -0.661722 (  -0.04647%)
MG Correction to account for finite box:                  0.467768
MG Remaining discrepancy, due to discretization:         -0.193954 (  -0.01362%)
      ideal mu1:      -0.760807948910
             Q0:  -11528.326604902744
             G0:     -11.375552232792
   RMS gradient:       0.000515117705
MG BCs: +ve charge blocks (gridpoints):     30401 (   16802216).
MG BCs: -ve charge blocks (gridpoints):      8088 (    1072214).
MG BCs:     Elided blocks (gridpoints):    166708 (  172902275).
MG BCs: Computational effort saved:  99.9798%.
MG BCs: Charge after coarse-graining:           -9.0009559.
MG DL_MG: Calling solver with defect correction order = 8
MG DL_MG: Solver finished
MG Hartree energy from (\int phi*rho dr):              1429.473017
MG Hartree energy from (\int eps (grad phi)^2 dr):     1428.815030
MG Discrepancy due to finite box and discretization:     -0.657988 (  -0.04603%)
MG Correction to account for finite box:                  0.467380
MG Remaining discrepancy, due to discretization:         -0.190608 (  -0.01333%)
     Trial step:       0.384480463721
             Q1:  -11531.002554781619
 Quadratic coef:       1.697727718674
 Linear coef   :      -4.373677597549
           Qmin:  -11531.143466451991
Quadratic minimum step length (  0.495248317023) accepted
    Initial Ne1:    7191.99992965
      Final Ne1:    7192.00000000

=================== Penalty functional idempotency correction ==================
 RMS occupancy error at iteration   1:  0.001710 (step -0.4936 Ne1=   7192.0000)
 RMS occupancy error at iteration   2:  0.000008 (step -0.5000 Ne1=   7192.0000)
            Final RMS occupancy error   :  0.000000 (Ne1=   7192.0000)
               Final occupancy bounds   : [  0.0000,  1.0000]
================================================================================

    2        -1.152832660490E+04     5.1512E-04     4.6591E-04    -2.1129E+01
MG BCs: +ve charge blocks (gridpoints):     30397 (   16806930).
MG BCs: -ve charge blocks (gridpoints):      8079 (    1070702).
MG BCs:     Elided blocks (gridpoints):    166711 (  172899073).
MG BCs: Computational effort saved:  99.9798%.
MG BCs: Charge after coarse-graining:           -9.0009570.
MG DL_MG: Calling solver with defect correction order = 8
MG DL_MG: Solver finished
MG Hartree energy from (\int phi*rho dr):              1431.050979
MG Hartree energy from (\int eps (grad phi)^2 dr):     1430.393992
MG Discrepancy due to finite box and discretization:     -0.656987 (  -0.04591%)
MG Correction to account for finite box:                  0.467277
MG Remaining discrepancy, due to discretization:         -0.189710 (  -0.01326%)
      ideal mu1:      -0.781180540965
             Q0:  -11531.176203959389
             G0:      -1.793311819562
   RMS gradient:       0.000204654177
MG BCs: +ve charge blocks (gridpoints):     30397 (   16806154).
MG BCs: -ve charge blocks (gridpoints):      8086 (    1071824).
MG BCs:     Elided blocks (gridpoints):    166712 (  172898727).
MG BCs: Computational effort saved:  99.9798%.
MG BCs: Charge after coarse-graining:           -9.0009566.
MG DL_MG: Calling solver with defect correction order = 8
MG DL_MG: Solver finished
MG Hartree energy from (\int phi*rho dr):              1428.956421
MG Hartree energy from (\int eps (grad phi)^2 dr):     1428.299807
MG Discrepancy due to finite box and discretization:     -0.656614 (  -0.04595%)
MG Correction to account for finite box:                  0.467091
MG Remaining discrepancy, due to discretization:         -0.189523 (  -0.01326%)
     Trial step:       0.436363727395
             Q1:  -11531.627453323337
 Quadratic coef:       0.331286866018
 Linear coef   :      -0.782536229966
           Qmin:  -11531.638313247458
Quadratic minimum step length (  0.515369700939) accepted
    Initial Ne1:    7191.99997197
      Final Ne1:    7192.00000000

=================== Penalty functional idempotency correction ==================
 RMS occupancy error at iteration   1:  0.000568 (step -0.4977 Ne1=   7192.0000)
 RMS occupancy error at iteration   2:  0.000001 (step -0.5000 Ne1=   7192.0000)
            Final RMS occupancy error   :  0.000000 (Ne1=   7192.0000)
               Final occupancy bounds   : [  0.0000,  1.0000]
================================================================================

    3        -1.153117620396E+04     2.0465E-04     1.8511E-04    -2.8496E+00
MG BCs: +ve charge blocks (gridpoints):     30397 (   16806063).
MG BCs: -ve charge blocks (gridpoints):      8084 (    1071996).
MG BCs:     Elided blocks (gridpoints):    166712 (  172898646).
MG BCs: Computational effort saved:  99.9798%.
MG BCs: Charge after coarse-graining:           -9.0009565.
MG DL_MG: Calling solver with defect correction order = 8
MG DL_MG: Solver finished
MG Hartree energy from (\int phi*rho dr):              1428.585181
MG Hartree energy from (\int eps (grad phi)^2 dr):     1427.928626
MG Discrepancy due to finite box and discretization:     -0.656555 (  -0.04596%)
MG Correction to account for finite box:                  0.467058
MG Remaining discrepancy, due to discretization:         -0.189497 (  -0.01326%)
      ideal mu1:      -0.781938042141
             Q0:  -11531.642362589948
             G0:      -0.415101357504
   RMS gradient:       0.000098563668
MG BCs: +ve charge blocks (gridpoints):     30396 (   16806741).
MG BCs: -ve charge blocks (gridpoints):      8079 (    1071803).
MG BCs:     Elided blocks (gridpoints):    166713 (  172898161).
MG BCs: Computational effort saved:  99.9798%.
MG BCs: Charge after coarse-graining:           -9.0009568.
MG DL_MG: Calling solver with defect correction order = 8
MG DL_MG: Solver finished
MG Hartree energy from (\int phi*rho dr):              1429.762710
MG Hartree energy from (\int eps (grad phi)^2 dr):     1429.106110
MG Discrepancy due to finite box and discretization:     -0.656600 (  -0.04592%)
MG Correction to account for finite box:                  0.466982
MG Remaining discrepancy, due to discretization:         -0.189618 (  -0.01326%)
     Trial step:       0.474224254639
             Q1:  -11531.737742061028
 Quadratic coef:       0.101471660782
 Linear coef   :      -0.196851131862
           Qmin:  -11531.737833502262
Quadratic minimum step length (  0.459988436981) accepted
    Initial Ne1:    7191.99999408
      Final Ne1:    7192.00000000

=================== Penalty functional idempotency correction ==================
 RMS occupancy error at iteration   1:  0.000180 (step -0.4992 Ne1=   7192.0000)
            Final RMS occupancy error   :  0.000000 (Ne1=   7192.0000)
               Final occupancy bounds   : [ -0.0000,  1.0000]
================================================================================

    4        -1.153164236259E+04     9.8564E-05     8.9149E-05    -4.6616E-01
MG BCs: +ve charge blocks (gridpoints):     30396 (   16806722).
MG BCs: -ve charge blocks (gridpoints):      8079 (    1071817).
MG BCs:     Elided blocks (gridpoints):    166713 (  172898166).
MG BCs: Computational effort saved:  99.9798%.
MG BCs: Charge after coarse-graining:           -9.0009568.
MG DL_MG: Calling solver with defect correction order = 8
MG DL_MG: Solver finished
MG Hartree energy from (\int phi*rho dr):              1429.727359
MG Hartree energy from (\int eps (grad phi)^2 dr):     1429.070760
MG Discrepancy due to finite box and discretization:     -0.656598 (  -0.04592%)
MG Correction to account for finite box:                  0.466984
MG Remaining discrepancy, due to discretization:         -0.189614 (  -0.01326%)
      ideal mu1:      -0.782315288395
             Q0:  -11531.738224968896
             G0:      -0.101384253469
   RMS gradient:       0.000048852745
MG BCs: +ve charge blocks (gridpoints):     30398 (   16806848).
MG BCs: -ve charge blocks (gridpoints):      8081 (    1071676).
MG BCs:     Elided blocks (gridpoints):    166711 (  172898181).
MG BCs: Computational effort saved:  99.9798%.
MG BCs: Charge after coarse-graining:           -9.0009567.
MG DL_MG: Calling solver with defect correction order = 8
MG DL_MG: Solver finished
MG Hartree energy from (\int phi*rho dr):              1430.091979
MG Hartree energy from (\int eps (grad phi)^2 dr):     1429.435245
MG Discrepancy due to finite box and discretization:     -0.656734 (  -0.04592%)
MG Correction to account for finite box:                  0.466974
MG Remaining discrepancy, due to discretization:         -0.189760 (  -0.01327%)
     Trial step:       0.467052110230
             Q1:  -11531.763316620723
 Quadratic coef:       0.022260077700
 Linear coef   :      -0.047351729527
           Qmin:  -11531.763406667715
Quadratic minimum step length (  0.496757592152) accepted
    Initial Ne1:    7192.00157746
      Final Ne1:    7192.00000000

=================== Penalty functional idempotency correction ==================
 RMS occupancy error at iteration   1:  0.000065 (step -0.4997 Ne1=   7192.0000)
            Final RMS occupancy error   :  0.000000 (Ne1=   7192.0000)
               Final occupancy bounds   : [ -0.0000,  1.0000]
================================================================================

    5        -1.153173822497E+04     4.8853E-05     4.4186E-05    -9.5862E-02
MG BCs: +ve charge blocks (gridpoints):     30398 (   16806842).
MG BCs: -ve charge blocks (gridpoints):      8081 (    1071672).
MG BCs:     Elided blocks (gridpoints):    166711 (  172898191).
MG BCs: Computational effort saved:  99.9798%.
MG BCs: Charge after coarse-graining:           -9.0009567.
MG DL_MG: Calling solver with defect correction order = 8
MG DL_MG: Solver finished
MG Hartree energy from (\int phi*rho dr):              1430.115206
MG Hartree energy from (\int eps (grad phi)^2 dr):     1429.458463
MG Discrepancy due to finite box and discretization:     -0.656743 (  -0.04592%)
MG Correction to account for finite box:                  0.466973
MG Remaining discrepancy, due to discretization:         -0.189769 (  -0.01327%)
      ideal mu1:      -0.782210883957
             Q0:  -11531.763453592430
             G0:      -0.031041372042
   RMS gradient:       0.000027052038
MG BCs: +ve charge blocks (gridpoints):     30396 (   16806524).
MG BCs: -ve charge blocks (gridpoints):      8080 (    1071853).
MG BCs:     Elided blocks (gridpoints):    166713 (  172898328).
MG BCs: Computational effort saved:  99.9798%.
MG BCs: Charge after coarse-graining:           -9.0009566.
MG DL_MG: Calling solver with defect correction order = 8
MG DL_MG: Solver finished
MG Hartree energy from (\int phi*rho dr):              1429.478816
MG Hartree energy from (\int eps (grad phi)^2 dr):     1428.822088
MG Discrepancy due to finite box and discretization:     -0.656729 (  -0.04594%)
MG Correction to account for finite box:                  0.466971
MG Remaining discrepancy, due to discretization:         -0.189758 (  -0.01327%)
     Trial step:       0.481675909391
             Q1:  -11531.773276011692
 Quadratic coef:       0.005129461844
 Linear coef   :      -0.014951881107
           Qmin:  -11531.774349411300
Quadratic minimum step length (  0.702019154061) accepted
    Initial Ne1:    7192.00101102
      Final Ne1:    7192.00000000

=================== Penalty functional idempotency correction ==================
 RMS occupancy error at iteration   1:  0.000041 (step -0.4997 Ne1=   7192.0000)
            Final RMS occupancy error   :  0.000000 (Ne1=   7192.0000)
               Final occupancy bounds   : [ -0.0000,  1.0000]
================================================================================

    6        -1.153176345359E+04     2.7052E-05     2.4468E-05    -2.5229E-02
MG BCs: +ve charge blocks (gridpoints):     30396 (   16806381).
MG BCs: -ve charge blocks (gridpoints):      8080 (    1071958).
MG BCs:     Elided blocks (gridpoints):    166713 (  172898366).
MG BCs: Computational effort saved:  99.9798%.
MG BCs: Charge after coarse-graining:           -9.0009565.
MG DL_MG: Calling solver with defect correction order = 8
MG DL_MG: Solver finished
MG Hartree energy from (\int phi*rho dr):              1429.186978
MG Hartree energy from (\int eps (grad phi)^2 dr):     1428.530256
MG Discrepancy due to finite box and discretization:     -0.656722 (  -0.04595%)
MG Correction to account for finite box:                  0.466969
MG Remaining discrepancy, due to discretization:         -0.189752 (  -0.01328%)
      ideal mu1:      -0.781911394126
             Q0:  -11531.774357654387
             G0:      -0.016130795900
   RMS gradient:       0.000019524530
MG BCs: +ve charge blocks (gridpoints):     30397 (   16806822).
MG BCs: -ve charge blocks (gridpoints):      8079 (    1071704).
MG BCs:     Elided blocks (gridpoints):    166712 (  172898179).
MG BCs: Computational effort saved:  99.9798%.
MG BCs: Charge after coarse-graining:           -9.0009567.
MG DL_MG: Calling solver with defect correction order = 8
MG DL_MG: Solver finished
MG Hartree energy from (\int phi*rho dr):              1429.840411
MG Hartree energy from (\int eps (grad phi)^2 dr):     1429.183722
MG Discrepancy due to finite box and discretization:     -0.656689 (  -0.04593%)
MG Correction to account for finite box:                  0.466955
MG Remaining discrepancy, due to discretization:         -0.189735 (  -0.01327%)
     Trial step:       0.581502978876
             Q1:  -11531.778576307697
 Quadratic coef:       0.005161452556
 Linear coef   :      -0.009380105867
           Qmin:  -11531.778619361006
Quadratic minimum step length (  0.528393843055) accepted
    Initial Ne1:    7192.00024005
      Final Ne1:    7192.00000000

=================== Penalty functional idempotency correction ==================
 RMS occupancy error at iteration   1:  0.000002 (step -0.5000 Ne1=   7192.0000)
            Final RMS occupancy error   :  0.000000 (Ne1=   7192.0000)
               Final occupancy bounds   : [  0.0000,  1.0000]
================================================================================

    7        -1.153177435765E+04     1.9525E-05     1.7659E-05    -1.0904E-02
MG BCs: +ve charge blocks (gridpoints):     30397 (   16806775).
MG BCs: -ve charge blocks (gridpoints):      8080 (    1071734).
MG BCs:     Elided blocks (gridpoints):    166712 (  172898196).
MG BCs: Computational effort saved:  99.9798%.
MG BCs: Charge after coarse-graining:           -9.0009567.
MG DL_MG: Calling solver with defect correction order = 8
MG DL_MG: Solver finished
MG Hartree energy from (\int phi*rho dr):              1429.780650
MG Hartree energy from (\int eps (grad phi)^2 dr):     1429.123958
MG Discrepancy due to finite box and discretization:     -0.656692 (  -0.04593%)
MG Correction to account for finite box:                  0.466956
MG Remaining discrepancy, due to discretization:         -0.189736 (  -0.01327%)
      ideal mu1:      -0.782205099503
             Q0:  -11531.778619475313
             G0:      -0.009385919078
   RMS gradient:       0.000014893719
MG BCs: +ve charge blocks (gridpoints):     30397 (   16806828).
MG BCs: -ve charge blocks (gridpoints):      8079 (    1071707).
MG BCs:     Elided blocks (gridpoints):    166712 (  172898170).
MG BCs: Computational effort saved:  99.9798%.
MG BCs: Charge after coarse-graining:           -9.0009567.
MG DL_MG: Calling solver with defect correction order = 8
MG DL_MG: Solver finished
MG Hartree energy from (\int phi*rho dr):              1429.819616
MG Hartree energy from (\int eps (grad phi)^2 dr):     1429.162973
MG Discrepancy due to finite box and discretization:     -0.656643 (  -0.04592%)
MG Correction to account for finite box:                  0.466940
MG Remaining discrepancy, due to discretization:         -0.189703 (  -0.01327%)
     Trial step:       0.554312721987
             Q1:  -11531.782417631126
 Quadratic coef:       0.001404578541
 Linear coef   :      -0.005202734353
           Qmin:  -11531.783437369784
Quadratic minimum step length (  1.026621778911) accepted
    Initial Ne1:    7192.00027000
      Final Ne1:    7192.00000000

=================== Penalty functional idempotency correction ==================
 RMS occupancy error at iteration   1:  0.000025 (step -0.4992 Ne1=   7192.0000)
            Final RMS occupancy error   :  0.000000 (Ne1=   7192.0000)
               Final occupancy bounds   : [ -0.0000,  1.0000]
================================================================================

    8        -1.153177861948E+04     1.4894E-05     1.3471E-05    -4.2618E-03
MG BCs: +ve charge blocks (gridpoints):     30397 (   16806874).
MG BCs: -ve charge blocks (gridpoints):      8078 (    1071711).
MG BCs:     Elided blocks (gridpoints):    166712 (  172898120).
MG BCs: Computational effort saved:  99.9798%.
MG BCs: Charge after coarse-graining:           -9.0009567.
MG DL_MG: Calling solver with defect correction order = 8
MG DL_MG: Solver finished
MG Hartree energy from (\int phi*rho dr):              1429.851345
MG Hartree energy from (\int eps (grad phi)^2 dr):     1429.194745
MG Discrepancy due to finite box and discretization:     -0.656601 (  -0.04592%)
MG Correction to account for finite box:                  0.466926
MG Remaining discrepancy, due to discretization:         -0.189675 (  -0.01327%)
      ideal mu1:      -0.782244513368
             Q0:  -11531.783424181165
             G0:      -0.013017115522
   RMS gradient:       0.000017587696
MG BCs: +ve charge blocks (gridpoints):     30400 (   16806779).
MG BCs: -ve charge blocks (gridpoints):      8080 (    1071796).
MG BCs:     Elided blocks (gridpoints):    166709 (  172898130).
MG BCs: Computational effort saved:  99.9798%.
MG BCs: Charge after coarse-graining:           -9.0009567.
MG DL_MG: Calling solver with defect correction order = 8
MG DL_MG: Solver finished
MG Hartree energy from (\int phi*rho dr):              1429.513542
MG Hartree energy from (\int eps (grad phi)^2 dr):     1428.857018
MG Discrepancy due to finite box and discretization:     -0.656524 (  -0.04593%)
MG Correction to account for finite box:                  0.466894
MG Remaining discrepancy, due to discretization:         -0.189630 (  -0.01327%)
     Trial step:       0.754366961577
             Q1:  -11531.789319318021
 Quadratic coef:       0.003924545030
 Linear coef   :      -0.009819681885
           Qmin:  -11531.789566686321
Quadratic minimum step length (  0.943758261278) accepted
    Initial Ne1:    7192.00062744
      Final Ne1:    7192.00000000

=================== Penalty functional idempotency correction ==================
 RMS occupancy error at iteration   1:  0.000120 (step -0.4959 Ne1=   7192.0000)
 RMS occupancy error at iteration   2:  0.000000 (step -0.5000 Ne1=   7192.0000)
            Final RMS occupancy error   :  0.000000 (Ne1=   7192.0000)
               Final occupancy bounds   : [  0.0000,  1.0000]
================================================================================

    9        -1.153178342418E+04     1.7588E-05     1.5908E-05    -4.8047E-03
MG BCs: +ve charge blocks (gridpoints):     30401 (   16806778).
MG BCs: -ve charge blocks (gridpoints):      8080 (    1071808).
MG BCs:     Elided blocks (gridpoints):    166708 (  172898119).
MG BCs: Computational effort saved:  99.9798%.
MG BCs: Charge after coarse-graining:           -9.0009567.
MG DL_MG: Calling solver with defect correction order = 8
MG DL_MG: Solver finished
MG Hartree energy from (\int phi*rho dr):              1429.426887
MG Hartree energy from (\int eps (grad phi)^2 dr):     1428.770384
MG Discrepancy due to finite box and discretization:     -0.656503 (  -0.04593%)
MG Correction to account for finite box:                  0.466885
MG Remaining discrepancy, due to discretization:         -0.189618 (  -0.01327%)
      ideal mu1:      -0.781730865627
   10        -1.153178953986E+04     1.8321E-05     1.6571E-05    -6.1157E-03
Finished density kernel iterations (  10)

Writing density kernel to file "host_21381.vacuum_dkn" ... done


>>> Density kernel optimised for the current NGWF basis:
     ~~~~~~~~~~~~~~~~~~~~~~~~~~~~~~~~~~~~~~~~~~~~~~~~~~~~~~~~~~~
     Total energy                =  -1.15317895398586E+04  Eh
     Estimated bandgap           =  -2.9180E-01  Eh
     RMS occupancy error         =   1.7666E-11
     [H,K] commutator            =   1.6571E-05
     Occupancy bounds            = [  0.000:  1.000]
     ~~~~~~~~~~~~~~~~~~~~~~~~~~~~~~~~~~~~~~~~~~~~~~~~~~~~~~~~~~~




################################################################################
########################### NGWF CG iteration  001 #############################
################################################################################
****** Reciprocal space K.E. preconditioning with k_zero =  3.5000 a0^-1 *******

>>> Checking for convergence of NGWFs:   NOT CONVERGED
  ========================================================================
         NGWF RMS gradient =  1.6323E-03 >  2.0000E-06  | above tolerance
  ========================================================================

>>> Improving NGWFs using line search:
============ Calculation of NGWF S^-1 using Hotelling algorithm ================ 
         Iteration  |  Frobenius norm and Maximum abs value    (of I-S*S_n^-1)   
               1       0.20362066E+00     0.54642574E-02
               2       0.96711474E-03     0.42103400E-04
               3       0.37518927E-07     0.25145885E-08
               4       0.12746271E-12     0.75495166E-14
================================================================================
MG BCs: +ve charge blocks (gridpoints):     29910 (   16749091).
MG BCs: -ve charge blocks (gridpoints):      8092 (    1071577).
MG BCs:     Elided blocks (gridpoints):    167201 (  172956037).
MG BCs: Computational effort saved:  99.9801%.
MG BCs: Charge after coarse-graining:           -9.0009564.
MG DL_MG: Calling solver with defect correction order = 8
MG DL_MG: Solver finished
MG Hartree energy from (\int phi*rho dr):              1397.220075
MG Hartree energy from (\int eps (grad phi)^2 dr):     1396.564542
MG Discrepancy due to finite box and discretization:     -0.655533 (  -0.04692%)
MG Correction to account for finite box:                  0.466842
MG Remaining discrepancy, due to discretization:         -0.188691 (  -0.01350%)
============ Calculation of NGWF S^-1 using Hotelling algorithm ================ 
         Iteration  |  Frobenius norm and Maximum abs value    (of I-S*S_n^-1)   
               1       0.18300102E+01     0.40540136E-01
               2       0.69718494E-01     0.22105549E-02
               3       0.13825134E-03     0.73757233E-05
               4       0.96013938E-09     0.84756979E-10
               5       0.10958313E-12     0.59952043E-14
================================================================================
------------------------------- NGWF line search -------------------------------
RMS gradient                =       0.00163231561924
Trial step length           =               0.122474
Gradient along search dir.  =       -283.59990680828
Functional at step 0        =  -11531.78953985858243
Functional at step 1        =  -11563.79518931964412
Functional predicted        =  -11642.34560274358228
Selected quadratic step     =               0.779662
--------------------------- NGWF line search finished --------------------------
                                               
Writing NGWFs to file "host_21381.vacuum_tightbox_ngwfs"....  done

>>> Optimising kernel for current NGWFs:
   Initial electron number for spin 1:    7226.78178220
     Final electron number for spin 1:    7192.00000000

=================== Penalty functional idempotency correction ==================
 RMS occupancy error at iteration   1:  0.004387 (step -0.4850 Ne1=   7192.0000)
 RMS occupancy error at iteration   2:  0.000078 (step -0.5003 Ne1=   7192.0000)
            Final RMS occupancy error   :  0.000000 (Ne1=   7192.0000)
               Final occupancy bounds   : [  0.0000,  1.0000]
================================================================================

................................................................................
<<<<<<<<<<<<<< LNV (Original version) density kernel optimisation >>>>>>>>>>>>>>
~~~~~~~~~~~~~~~~~~~~~~~~~~~~~~~~~~~~~~~~~~~~~~~~~~~~~~~~~~~~~~~~~~~~~~~~~~~~~~~~
   iter  |      energy (Eh)       | rms gradient |  commutator  |   dE (Eh)
MG BCs: +ve charge blocks (gridpoints):     24169 (   16411895).
MG BCs: -ve charge blocks (gridpoints):      8226 (    1056298).
MG BCs:     Elided blocks (gridpoints):    172951 (  173308512).
MG BCs: Computational effort saved:  99.9830%.
MG BCs: Charge after coarse-graining:           -9.0006677.
MG DL_MG: Calling solver with defect correction order = 8
MG DL_MG: Solver finished
MG Hartree energy from (\int phi*rho dr):              1246.015263
MG Hartree energy from (\int eps (grad phi)^2 dr):     1245.359964
MG Discrepancy due to finite box and discretization:     -0.655299 (  -0.05259%)
MG Correction to account for finite box:                  0.466645
MG Remaining discrepancy, due to discretization:         -0.188654 (  -0.01514%)
      ideal mu1:      -0.720870294267
             Q0:  -11641.579903876525
             G0:      -9.628845891795
   RMS gradient:       0.000477023547
MG BCs: +ve charge blocks (gridpoints):     24236 (   16428783).
MG BCs: -ve charge blocks (gridpoints):      8211 (    1052474).
MG BCs:     Elided blocks (gridpoints):    172884 (  173295448).
MG BCs: Computational effort saved:  99.9830%.
MG BCs: Charge after coarse-graining:           -9.0006627.
MG DL_MG: Calling solver with defect correction order = 8
MG DL_MG: Solver finished
MG Hartree energy from (\int phi*rho dr):              1264.479642
MG Hartree energy from (\int eps (grad phi)^2 dr):     1263.817666
MG Discrepancy due to finite box and discretization:     -0.661976 (  -0.05235%)
MG Correction to account for finite box:                  0.466222
MG Remaining discrepancy, due to discretization:         -0.195754 (  -0.01548%)
     Trial step:       0.843765401059
             Q1:  -11639.311157986871
 Quadratic coef:      10.393232905277
 Linear coef   :      -8.124487015623
           Qmin:  -11643.167650679388
Quadratic minimum step length (  0.329789638489) accepted
    Initial Ne1:    7191.99947611
      Final Ne1:    7192.00000000

=================== Penalty functional idempotency correction ==================
 RMS occupancy error at iteration   1:  0.000350 (step -0.4986 Ne1=   7192.0000)
 RMS occupancy error at iteration   2:  0.000000 (step -0.5000 Ne1=   7192.0000)
            Final RMS occupancy error   :  0.000000 (Ne1=   7192.0000)
               Final occupancy bounds   : [  0.0000,  1.0000]
================================================================================

    1        -1.164157990388E+04     4.7702E-04     4.3146E-04
MG BCs: +ve charge blocks (gridpoints):     24192 (   16418724).
MG BCs: -ve charge blocks (gridpoints):      8224 (    1054782).
MG BCs:     Elided blocks (gridpoints):    172928 (  173303199).
MG BCs: Computational effort saved:  99.9830%.
MG BCs: Charge after coarse-graining:           -9.0006656.
MG DL_MG: Calling solver with defect correction order = 8
MG DL_MG: Solver finished
MG Hartree energy from (\int phi*rho dr):              1252.003371
MG Hartree energy from (\int eps (grad phi)^2 dr):     1251.345587
MG Discrepancy due to finite box and discretization:     -0.657784 (  -0.05254%)
MG Correction to account for finite box:                  0.466459
MG Remaining discrepancy, due to discretization:         -0.191325 (  -0.01528%)
      ideal mu1:      -0.728073102489
             Q0:  -11643.135227313382
             G0:      -0.966378625768
   RMS gradient:       0.000152176390
MG BCs: +ve charge blocks (gridpoints):     24197 (   16418498).
MG BCs: -ve charge blocks (gridpoints):      8228 (    1055652).
MG BCs:     Elided blocks (gridpoints):    172923 (  173302555).
MG BCs: Computational effort saved:  99.9830%.
MG BCs: Charge after coarse-graining:           -9.0006655.
MG DL_MG: Calling solver with defect correction order = 8
MG DL_MG: Solver finished
MG Hartree energy from (\int phi*rho dr):              1253.139171
MG Hartree energy from (\int eps (grad phi)^2 dr):     1252.480979
MG Discrepancy due to finite box and discretization:     -0.658193 (  -0.05252%)
MG Correction to account for finite box:                  0.466451
MG Remaining discrepancy, due to discretization:         -0.191742 (  -0.01530%)
     Trial step:       0.527508375843
             Q1:  -11643.329825493041
 Quadratic coef:       0.315174639669
 Linear coef   :      -0.509772819329
           Qmin:  -11643.341357736501
Quadratic minimum step length (  0.426603854066) accepted
    Initial Ne1:    7191.99993102
      Final Ne1:    7192.00000000

=================== Penalty functional idempotency correction ==================
 RMS occupancy error at iteration   1:  0.000141 (step -0.4994 Ne1=   7192.0000)
            Final RMS occupancy error   :  0.000000 (Ne1=   7192.0000)
               Final occupancy bounds   : [ -0.0000,  1.0000]
================================================================================

    2        -1.164313522731E+04     1.5218E-04     1.3764E-04    -1.5553E+00
MG BCs: +ve charge blocks (gridpoints):     24194 (   16418549).
MG BCs: -ve charge blocks (gridpoints):      8229 (    1055480).
MG BCs:     Elided blocks (gridpoints):    172926 (  173302676).
MG BCs: Computational effort saved:  99.9830%.
MG BCs: Charge after coarse-graining:           -9.0006655.
MG DL_MG: Calling solver with defect correction order = 8
MG DL_MG: Solver finished
MG Hartree energy from (\int phi*rho dr):              1252.921714
MG Hartree energy from (\int eps (grad phi)^2 dr):     1252.263602
MG Discrepancy due to finite box and discretization:     -0.658112 (  -0.05253%)
MG Correction to account for finite box:                  0.466452
MG Remaining discrepancy, due to discretization:         -0.191659 (  -0.01530%)
      ideal mu1:      -0.729186846514
             Q0:  -11643.341814001789
             G0:      -0.143335762988
   RMS gradient:       0.000058136217
MG BCs: +ve charge blocks (gridpoints):     24196 (   16417885).
MG BCs: -ve charge blocks (gridpoints):      8229 (    1055864).
MG BCs:     Elided blocks (gridpoints):    172924 (  173302956).
MG BCs: Computational effort saved:  99.9830%.
MG BCs: Charge after coarse-graining:           -9.0006656.
MG DL_MG: Calling solver with defect correction order = 8
MG DL_MG: Solver finished
MG Hartree energy from (\int phi*rho dr):              1252.439253
MG Hartree energy from (\int eps (grad phi)^2 dr):     1251.781173
MG Discrepancy due to finite box and discretization:     -0.658079 (  -0.05254%)
MG Correction to account for finite box:                  0.466447
MG Remaining discrepancy, due to discretization:         -0.191632 (  -0.01530%)
     Trial step:       0.474380760768
             Q1:  -11643.385341435671
 Quadratic coef:       0.024468294410
 Linear coef   :      -0.067995728291
           Qmin:  -11643.389052879460
Quadratic minimum step length (  0.659135957231) accepted
    Initial Ne1:    7192.00059169
      Final Ne1:    7192.00000000

=================== Penalty functional idempotency correction ==================
 RMS occupancy error at iteration   1:  0.000061 (step -0.4998 Ne1=   7192.0000)
            Final RMS occupancy error   :  0.000000 (Ne1=   7192.0000)
               Final occupancy bounds   : [ -0.0000,  1.0000]
================================================================================

    3        -1.164334181400E+04     5.8136E-05     5.2583E-05    -2.0659E-01
MG BCs: +ve charge blocks (gridpoints):     24192 (   16417647).
MG BCs: -ve charge blocks (gridpoints):      8229 (    1056051).
MG BCs:     Elided blocks (gridpoints):    172928 (  173303007).
MG BCs: Computational effort saved:  99.9830%.
MG BCs: Charge after coarse-graining:           -9.0006655.
MG DL_MG: Calling solver with defect correction order = 8
MG DL_MG: Solver finished
MG Hartree energy from (\int phi*rho dr):              1252.251452
MG Hartree energy from (\int eps (grad phi)^2 dr):     1251.593385
MG Discrepancy due to finite box and discretization:     -0.658067 (  -0.05255%)
MG Correction to account for finite box:                  0.466445
MG Remaining discrepancy, due to discretization:         -0.191622 (  -0.01530%)
      ideal mu1:      -0.728218333021
             Q0:  -11643.389137051185
             G0:      -0.033729746214
   RMS gradient:       0.000028193165
MG BCs: +ve charge blocks (gridpoints):     24191 (   16417412).
MG BCs: -ve charge blocks (gridpoints):      8228 (    1056120).
MG BCs:     Elided blocks (gridpoints):    172929 (  173303173).
MG BCs: Computational effort saved:  99.9830%.
MG BCs: Charge after coarse-graining:           -9.0006656.
MG DL_MG: Calling solver with defect correction order = 8
MG DL_MG: Solver finished
MG Hartree energy from (\int phi*rho dr):              1252.269335
MG Hartree energy from (\int eps (grad phi)^2 dr):     1251.611372
MG Discrepancy due to finite box and discretization:     -0.657963 (  -0.05254%)
MG Correction to account for finite box:                  0.466450
MG Remaining discrepancy, due to discretization:         -0.191513 (  -0.01529%)
     Trial step:       0.559179234987
             Q1:  -11643.397537781158
 Quadratic coef:       0.010460243711
 Linear coef   :      -0.018860973684
           Qmin:  -11643.397639155393
Quadratic minimum step length (  0.504130932650) accepted
    Initial Ne1:    7192.00021202
      Final Ne1:    7192.00000000

=================== Penalty functional idempotency correction ==================
 RMS occupancy error at iteration   1:  0.000017 (step -0.4999 Ne1=   7192.0000)
            Final RMS occupancy error   :  0.000000 (Ne1=   7192.0000)
               Final occupancy bounds   : [ -0.0000,  1.0000]
================================================================================

    4        -1.164338913705E+04     2.8193E-05     2.5500E-05    -4.7323E-02
MG BCs: +ve charge blocks (gridpoints):     24192 (   16417429).
MG BCs: -ve charge blocks (gridpoints):      8228 (    1056115).
MG BCs:     Elided blocks (gridpoints):    172928 (  173303161).
MG BCs: Computational effort saved:  99.9830%.
MG BCs: Charge after coarse-graining:           -9.0006656.
MG DL_MG: Calling solver with defect correction order = 8
MG DL_MG: Solver finished
MG Hartree energy from (\int phi*rho dr):              1252.267414
MG Hartree energy from (\int eps (grad phi)^2 dr):     1251.609441
MG Discrepancy due to finite box and discretization:     -0.657973 (  -0.05254%)
MG Correction to account for finite box:                  0.466449
MG Remaining discrepancy, due to discretization:         -0.191524 (  -0.01529%)
      ideal mu1:      -0.728205962725
             Q0:  -11643.397643567529
             G0:      -0.010849981725
   RMS gradient:       0.000016009852
MG BCs: +ve charge blocks (gridpoints):     24194 (   16417963).
MG BCs: -ve charge blocks (gridpoints):      8227 (    1055916).
MG BCs:     Elided blocks (gridpoints):    172926 (  173302826).
MG BCs: Computational effort saved:  99.9830%.
MG BCs: Charge after coarse-graining:           -9.0006654.
MG DL_MG: Calling solver with defect correction order = 8
MG DL_MG: Solver finished
MG Hartree energy from (\int phi*rho dr):              1252.659592
MG Hartree energy from (\int eps (grad phi)^2 dr):     1252.001658
MG Discrepancy due to finite box and discretization:     -0.657934 (  -0.05252%)
MG Correction to account for finite box:                  0.466443
MG Remaining discrepancy, due to discretization:         -0.191491 (  -0.01529%)
     Trial step:       0.530942133619
             Q1:  -11643.400639981846
 Quadratic coef:       0.002764298129
 Linear coef   :      -0.005760712447
           Qmin:  -11643.400644854504
Quadratic minimum step length (  0.553233554103) accepted
    Initial Ne1:    7192.00008554
      Final Ne1:    7192.00000000

=================== Penalty functional idempotency correction ==================
 RMS occupancy error at iteration   1:  0.000008 (step -0.5000 Ne1=   7192.0000)
            Final RMS occupancy error   :  0.000000 (Ne1=   7192.0000)
               Final occupancy bounds   : [ -0.0000,  1.0000]
================================================================================

    5        -1.164339764357E+04     1.6010E-05     1.4481E-05    -8.5065E-03
MG BCs: +ve charge blocks (gridpoints):     24194 (   16417980).
MG BCs: -ve charge blocks (gridpoints):      8227 (    1055910).
MG BCs:     Elided blocks (gridpoints):    172926 (  173302815).
MG BCs: Computational effort saved:  99.9830%.
MG BCs: Charge after coarse-graining:           -9.0006654.
MG DL_MG: Calling solver with defect correction order = 8
MG DL_MG: Solver finished
MG Hartree energy from (\int phi*rho dr):              1252.676077
MG Hartree energy from (\int eps (grad phi)^2 dr):     1252.018145
MG Discrepancy due to finite box and discretization:     -0.657932 (  -0.05252%)
MG Correction to account for finite box:                  0.466443
MG Remaining discrepancy, due to discretization:         -0.191490 (  -0.01529%)
      ideal mu1:      -0.728562098577
             Q0:  -11643.400645685964
             G0:      -0.003250926526
   RMS gradient:       0.000008763524
MG BCs: +ve charge blocks (gridpoints):     24194 (   16417993).
MG BCs: -ve charge blocks (gridpoints):      8227 (    1055922).
MG BCs:     Elided blocks (gridpoints):    172926 (  173302790).
MG BCs: Computational effort saved:  99.9830%.
MG BCs: Charge after coarse-graining:           -9.0006654.
MG DL_MG: Calling solver with defect correction order = 8
MG DL_MG: Solver finished
MG Hartree energy from (\int phi*rho dr):              1252.640791
MG Hartree energy from (\int eps (grad phi)^2 dr):     1251.982867
MG Discrepancy due to finite box and discretization:     -0.657924 (  -0.05252%)
MG Correction to account for finite box:                  0.466439
MG Remaining discrepancy, due to discretization:         -0.191485 (  -0.01529%)
     Trial step:       0.541973249898
             Q1:  -11643.401743488153
 Quadratic coef:       0.000664113026
 Linear coef   :      -0.001761915215
           Qmin:  -11643.401814291723
Quadratic minimum step length (  0.718937046724) accepted
    Initial Ne1:    7192.00003906
      Final Ne1:    7192.00000000

=================== Penalty functional idempotency correction ==================
 RMS occupancy error at iteration   1:  0.000005 (step -0.4999 Ne1=   7192.0000)
            Final RMS occupancy error   :  0.000000 (Ne1=   7192.0000)
               Final occupancy bounds   : [ -0.0000,  1.0000]
================================================================================

    6        -1.164340064569E+04     8.7635E-06     7.9264E-06    -3.0021E-03
MG BCs: +ve charge blocks (gridpoints):     24194 (   16417988).
MG BCs: -ve charge blocks (gridpoints):      8227 (    1055936).
MG BCs:     Elided blocks (gridpoints):    172926 (  173302781).
MG BCs: Computational effort saved:  99.9830%.
MG BCs: Charge after coarse-graining:           -9.0006654.
MG DL_MG: Calling solver with defect correction order = 8
MG DL_MG: Solver finished
MG Hartree energy from (\int phi*rho dr):              1252.629249
MG Hartree energy from (\int eps (grad phi)^2 dr):     1251.971328
MG Discrepancy due to finite box and discretization:     -0.657921 (  -0.05252%)
MG Correction to account for finite box:                  0.466438
MG Remaining discrepancy, due to discretization:         -0.191483 (  -0.01529%)
      ideal mu1:      -0.728520708424
             Q0:  -11643.401814345852
             G0:      -0.001803229914
   RMS gradient:       0.000006527972
MG BCs: +ve charge blocks (gridpoints):     24194 (   16417744).
MG BCs: -ve charge blocks (gridpoints):      8228 (    1056021).
MG BCs:     Elided blocks (gridpoints):    172926 (  173302940).
MG BCs: Computational effort saved:  99.9830%.
MG BCs: Charge after coarse-graining:           -9.0006655.
MG DL_MG: Calling solver with defect correction order = 8
MG DL_MG: Solver finished
MG Hartree energy from (\int phi*rho dr):              1252.535553
MG Hartree energy from (\int eps (grad phi)^2 dr):     1251.877619
MG Discrepancy due to finite box and discretization:     -0.657934 (  -0.05253%)
MG Correction to account for finite box:                  0.466442
MG Remaining discrepancy, due to discretization:         -0.191492 (  -0.01529%)
     Trial step:       0.624215225451
             Q1:  -11643.402223624405
 Quadratic coef:       0.000716325014
 Linear coef   :      -0.001125603567
           Qmin:  -11643.402256527601
Quadratic minimum step length (  0.490433023314) accepted
    Initial Ne1:    7192.00000771
      Final Ne1:    7192.00000000

=================== Penalty functional idempotency correction ==================
 RMS occupancy error at iteration   1:  0.000000 (step -0.5000 Ne1=   7192.0000)
            Final RMS occupancy error   :  0.000000 (Ne1=   7192.0000)
               Final occupancy bounds   : [  0.0000,  1.0000]
================================================================================

    7        -1.164340181435E+04     6.5280E-06     5.9044E-06    -1.1687E-03
MG BCs: +ve charge blocks (gridpoints):     24194 (   16417795).
MG BCs: -ve charge blocks (gridpoints):      8228 (    1056007).
MG BCs:     Elided blocks (gridpoints):    172926 (  173302903).
MG BCs: Computational effort saved:  99.9830%.
MG BCs: Charge after coarse-graining:           -9.0006655.
MG DL_MG: Calling solver with defect correction order = 8
MG DL_MG: Solver finished
MG Hartree energy from (\int phi*rho dr):              1252.555597
MG Hartree energy from (\int eps (grad phi)^2 dr):     1251.897666
MG Discrepancy due to finite box and discretization:     -0.657931 (  -0.05253%)
MG Correction to account for finite box:                  0.466441
MG Remaining discrepancy, due to discretization:         -0.191490 (  -0.01529%)
      ideal mu1:      -0.728445039810
             Q0:  -11643.402256525005
             G0:      -0.001167989152
   RMS gradient:       0.000005253738
MG BCs: +ve charge blocks (gridpoints):     24194 (   16417733).
MG BCs: -ve charge blocks (gridpoints):      8228 (    1056023).
MG BCs:     Elided blocks (gridpoints):    172926 (  173302949).
MG BCs: Computational effort saved:  99.9830%.
MG BCs: Charge after coarse-graining:           -9.0006655.
MG DL_MG: Calling solver with defect correction order = 8
MG DL_MG: Solver finished
MG Hartree energy from (\int phi*rho dr):              1252.512079
MG Hartree energy from (\int eps (grad phi)^2 dr):     1251.854140
MG Discrepancy due to finite box and discretization:     -0.657939 (  -0.05253%)
MG Correction to account for finite box:                  0.466443
MG Remaining discrepancy, due to discretization:         -0.191496 (  -0.01529%)
     Trial step:       0.553295364355
             Q1:  -11643.402775808354
 Quadratic coef:       0.000126959634
 Linear coef   :      -0.000646242983
           Qmin:  -11643.403078892674
Quadratic minimum step length (  1.408176895130) accepted
    Initial Ne1:    7192.00001428
      Final Ne1:    7192.00000000

=================== Penalty functional idempotency correction ==================
 RMS occupancy error at iteration   1:  0.000011 (step -0.4993 Ne1=   7192.0000)
            Final RMS occupancy error   :  0.000000 (Ne1=   7192.0000)
               Final occupancy bounds   : [ -0.0000,  1.0000]
================================================================================

    8        -1.164340225653E+04     5.2537E-06     4.7519E-06    -4.4218E-04
MG BCs: +ve charge blocks (gridpoints):     24194 (   16417675).
MG BCs: -ve charge blocks (gridpoints):      8228 (    1056046).
MG BCs:     Elided blocks (gridpoints):    172926 (  173302984).
MG BCs: Computational effort saved:  99.9830%.
MG BCs: Charge after coarse-graining:           -9.0006655.
[...]
MG Correction to account for finite box:                  0.006470
MG Remaining discrepancy, due to discretization:         -0.190634 (  -0.01576%)
     Trial step:       0.332843781768
             Q1:  -11677.877405499225
 Quadratic coef:       0.000000001752
 Linear coef   :      -0.000000001170
           Qmin:  -11677.877405500001
Quadratic minimum step length (  0.111174855229) accepted
    Initial Ne1:    7192.00000000
      Final Ne1:    7192.00000000

=================== Penalty functional idempotency correction ==================
 RMS occupancy error at iteration   1:  0.000000 (step -0.5000 Ne1=   7192.0000)
            Final RMS occupancy error   :  0.000000 (Ne1=   7192.0000)
               Final occupancy bounds   : [ -0.0000,  1.0000]
================================================================================

    7        -1.167787740550E+04     6.6998E-09     6.0598E-09    -2.3283E-10

Reusing previously generated solute cavity.
MG BCs: +ve charge blocks (gridpoints):     28710 (   18587166).
MG BCs: -ve charge blocks (gridpoints):      8224 (    1025417).
MG BCs:     Elided blocks (gridpoints):    168410 (  171164122).
MG BCs: Computational effort saved:  99.9806%.
MG BCs: Charge after coarse-graining:           -9.0009313.
MG DL_MG: Calling solver with defect correction order = 8
MG DL_MG: Solver finished
MG Hartree energy from (\int phi*rho dr):              1209.757532
MG Hartree energy from (\int eps (grad phi)^2 dr):     1209.560428
MG Discrepancy due to finite box and discretization:     -0.197104 (  -0.01629%)
MG Correction to account for finite box:                  0.006470
MG Remaining discrepancy, due to discretization:         -0.190634 (  -0.01576%)
      ideal mu1:      -0.481873428338
             Q0:  -11677.877405499690
             G0:      -0.000000003088
   RMS gradient:       0.000000005459

Reusing previously generated solute cavity.
MG BCs: +ve charge blocks (gridpoints):     28710 (   18587166).
MG BCs: -ve charge blocks (gridpoints):      8224 (    1025417).
MG BCs:     Elided blocks (gridpoints):    168410 (  171164122).
MG BCs: Computational effort saved:  99.9806%.
MG BCs: Charge after coarse-graining:           -9.0009313.
MG DL_MG: Calling solver with defect correction order = 8
MG DL_MG: Solver finished
MG Hartree energy from (\int phi*rho dr):              1209.757510
MG Hartree energy from (\int eps (grad phi)^2 dr):     1209.560406
MG Discrepancy due to finite box and discretization:     -0.197104 (  -0.01629%)
MG Correction to account for finite box:                  0.006470
MG Remaining discrepancy, due to discretization:         -0.190634 (  -0.01576%)
     Trial step:       0.192363872002
             Q1:  -11677.877405499225
 Quadratic coef:       0.000000001060
 Linear coef   :      -0.000000000594
           Qmin:  -11677.877405499774
Quadratic minimum step length (  0.053870040280) accepted
    Initial Ne1:    7192.00000000
      Final Ne1:    7192.00000000

=================== Penalty functional idempotency correction ==================
 RMS occupancy error at iteration   1:  0.000000 (step -0.5000 Ne1=   7192.0000)
            Final RMS occupancy error   :  0.000000 (Ne1=   7192.0000)
               Final occupancy bounds   : [  0.0000,  1.0000]
================================================================================

    8        -1.167787740550E+04     5.4585E-09     4.9371E-09     1.1642E-10

Reusing previously generated solute cavity.
MG BCs: +ve charge blocks (gridpoints):     28710 (   18587166).
MG BCs: -ve charge blocks (gridpoints):      8224 (    1025417).
MG BCs:     Elided blocks (gridpoints):    168410 (  171164122).
MG BCs: Computational effort saved:  99.9806%.
MG BCs: Charge after coarse-graining:           -9.0009313.
MG DL_MG: Calling solver with defect correction order = 8
MG DL_MG: Solver finished
MG Hartree energy from (\int phi*rho dr):              1209.757526
MG Hartree energy from (\int eps (grad phi)^2 dr):     1209.560422
MG Discrepancy due to finite box and discretization:     -0.197104 (  -0.01629%)
MG Correction to account for finite box:                  0.006470
MG Remaining discrepancy, due to discretization:         -0.190634 (  -0.01576%)
      ideal mu1:      -0.481873421846
             Q0:  -11677.877405499574
             G0:      -0.000000003057
   RMS gradient:       0.000000004805

Reusing previously generated solute cavity.
MG BCs: +ve charge blocks (gridpoints):     28710 (   18587166).
MG BCs: -ve charge blocks (gridpoints):      8224 (    1025417).
MG BCs:     Elided blocks (gridpoints):    168410 (  171164122).
MG BCs: Computational effort saved:  99.9806%.
MG BCs: Charge after coarse-graining:           -9.0009313.
MG DL_MG: Calling solver with defect correction order = 8
MG DL_MG: Solver finished
MG Hartree energy from (\int phi*rho dr):              1209.757511
MG Hartree energy from (\int eps (grad phi)^2 dr):     1209.560408
MG Discrepancy due to finite box and discretization:     -0.197104 (  -0.01629%)
MG Correction to account for finite box:                  0.006470
MG Remaining discrepancy, due to discretization:         -0.190634 (  -0.01576%)
     Trial step:       0.101797099827
             Q1:  -11677.877405499341
 Quadratic coef:       0.000000000544
 Linear coef   :      -0.000000000311
           Qmin:  -11677.877405499617
Quadratic minimum step length (  0.029121898291) accepted
    Initial Ne1:    7192.00000000
      Final Ne1:    7192.00000000

=================== Penalty functional idempotency correction ==================
 RMS occupancy error at iteration   1:  0.000000 (step -0.5000 Ne1=   7192.0000)
            Final RMS occupancy error   :  0.000000 (Ne1=   7192.0000)
               Final occupancy bounds   : [  0.0000,  1.0000]
================================================================================

    9        -1.167787740550E+04     4.8046E-09     4.3457E-09     1.1642E-10

Reusing previously generated solute cavity.
MG BCs: +ve charge blocks (gridpoints):     28710 (   18587166).
MG BCs: -ve charge blocks (gridpoints):      8224 (    1025417).
MG BCs:     Elided blocks (gridpoints):    168410 (  171164122).
MG BCs: Computational effort saved:  99.9806%.
MG BCs: Charge after coarse-graining:           -9.0009313.
MG DL_MG: Calling solver with defect correction order = 8
MG DL_MG: Solver finished
MG Hartree energy from (\int phi*rho dr):              1209.757522
MG Hartree energy from (\int eps (grad phi)^2 dr):     1209.560418
MG Discrepancy due to finite box and discretization:     -0.197104 (  -0.01629%)
MG Correction to account for finite box:                  0.006470
MG Remaining discrepancy, due to discretization:         -0.190634 (  -0.01576%)
      ideal mu1:      -0.481873417739
   10        -1.167787740550E+04     4.4030E-09     3.9824E-09     0.0000E+00
Finished density kernel iterations (  10)

Writing density kernel to file "host_21381.dkn" ... done


>>> Density kernel optimised for the current NGWF basis:
     ~~~~~~~~~~~~~~~~~~~~~~~~~~~~~~~~~~~~~~~~~~~~~~~~~~~~~~~~~~~
     Total energy                =  -1.16778774054996E+04  Eh
     Estimated bandgap           =   8.9144E-02  Eh
     RMS occupancy error         =   3.2085E-16
     [H,K] commutator            =   3.9824E-09
     Occupancy bounds            = [  0.000:  1.000]
     ~~~~~~~~~~~~~~~~~~~~~~~~~~~~~~~~~~~~~~~~~~~~~~~~~~~~~~~~~~~




################################################################################
########################### NGWF CG iteration  005 #############################
################################################################################
****** Reciprocal space K.E. preconditioning with k_zero =  3.5000 a0^-1 *******

>>> Checking for convergence of NGWFs: 
           ........................................................
           |         *** NGWF optimisation converged ***          |
           | RMS NGWF gradient =    0.00000088568804              |
           | Criteria satisfied:                                  |
           | -> RMS NGWF gradient lower than set threshold.       |
           ========================================================

Reusing previously generated solute cavity.
MG BCs: +ve charge blocks (gridpoints):     28710 (   18587166).
MG BCs: -ve charge blocks (gridpoints):      8224 (    1025417).
MG BCs:     Elided blocks (gridpoints):    168410 (  171164122).
MG BCs: Computational effort saved:  99.9806%.
MG BCs: Charge after coarse-graining:           -9.0009313.
MG DL_MG: Calling solver with defect correction order = 8
MG DL_MG: Solver finished
MG Hartree energy from (\int phi*rho dr):              1209.757522
MG Hartree energy from (\int eps (grad phi)^2 dr):     1209.560418
MG Discrepancy due to finite box and discretization:     -0.197104 (  -0.01629%)
MG Correction to account for finite box:                  0.006470
MG Remaining discrepancy, due to discretization:         -0.190634 (  -0.01576%)

================================================================================
           ---------------- ENERGY COMPONENTS (Eh) ----------------
           | Kinetic                    :     8523.36093958245510 |
           | Pseudo. (local,OBC,corr'd) :    -5046.19950077517478 |
           | Pseudopotential (non-local):     1404.11690251080722 |
           | Hartree (molecular)        :     1209.75752167914470 |
           | Exchange-correlation       :    -3356.94122255073171 |
           | Ion-ion (open BC)          :   828319.74660146888345 |
           | Dispersion Correction      :       -3.30654377777324 |
           | Smeared ion non-self corr. :  -828271.88259932072833 |
           | Smeared ion self corr.     :   -14457.16956389741972 |
           | Solvent cavitation energy  :        2.27718431392070 |
           | Solute-solvent dis-rep en. :       -1.63712473288544 |
           | Total                      :   -11677.87740549941009 |
           --------------------------------------------------------
           ------ LOCAL ENERGY COMPONENTS FROM MATRIX TRACES ------
           | Pseudopotential (local)    :    -5046.19950077517387 |
           | Hartree                    :    -1993.24608763838137 |
           --------------------------------------------------------
           Integrated density           :     7191.99999999899410
           Integrated density tr(KS)    :     7192.00000000000000
================================================================================


                        <<<<< CALCULATION SUMMARY >>>>>                         
|ITER|    RMS GRADIENT   |     TOTAL ENERGY    |   step   |     Epredicted              
   0     0.00004071713402 -11677.81496027112007   0.612249 -11677.86897975139982        
   1     0.00000996583876 -11677.87686890107580   0.084271 -11677.87731432686269        
   2     0.00000444017063 -11677.87738584284671   0.015708 -11677.87740232365286        
   3     0.00000200151856 -11677.87740468245465   0.003240 -11677.87740537314676        
   4     0.00000088568804 -11677.87740549957380  <-- CG                                 

=================== Finished the calculation in solvent ========================
= Adjusting the following parameters: 
= read_denskern: F
= read_tightbox_ngwfs: F
= maxit_pen: 0 (restored to user-specified value)
= restart read filename prefix: ""
= restart write filename prefix: ""
================================================================================

================================================================================
IS: Calculation in solvent completed (NGWFs converged).      

Individual components of total energy in solvent:     hartree           kcal/mol
- Usual non-electrostatic DFT terms:    -12888.27498675975221    -8087514.483063
- Electrostatic fixed charge energy:      1209.75752167914470      759134.289703
- Apolar cavitation energy:                  2.27718431392070        1428.954700
- Apolar dispersion-repulsion energy:       -1.63712473288544       -1027.311258
 -------------------------------------------------------------------------------
- Total energy in solvent:              -11677.87740549957380    -7327978.549917

Components of total energy in solvent:                hartree           kcal/mol
- Usual non-electrostatic DFT terms:    -12888.27498675975221    -8087514.483063
- Electrostatic energy:                   1209.75752167914470      759134.289703
- Apolar energy terms:                       0.64005958103526         401.643442
 -------------------------------------------------------------------------------
- Total energy in solvent:              -11677.87740549957380    -7327978.549917

Calculation of free energy of solvation:              hartree           kcal/mol
- Total energy in solvent:         (+)  -11677.87740549957380    -7327978.549917
- Total energy in vacuum:          (-)  -11673.92885481345002    -7325500.797007
 -------------------------------------------------------------------------------
- Total free energy of solvation:           -3.94855068612378       -2477.752911

Components of polar term in f.e. of solvation:        hartree           kcal/mol
- Electrostatic:                            -4.67515113691616       -2933.701567
- Change in nonelectrostatic DFT terms:      0.08654086975912          54.305214
 -------------------------------------------------------------------------------
- Polar term in f.e. of solvation:          -4.58861026715704       -2879.396353

Components of free energy of solvation:               hartree           kcal/mol
- Polar term in f.e. of solvation: (+)      -4.58861026715704       -2879.396353
- Apolar (cavitation, dis., rep.): (+)       0.64005958103526         401.643442
 -------------------------------------------------------------------------------
- Total free energy of solvation:           -3.94855068612178       -2477.752911
================================================================================


------------------------------ TIMING INFORMATION ------------------------------
AVERAGE TIME:   30370.461s on     60 node(s)                                    
TOTAL TIME:     30370.462s on     60 node(s)                                    
================= AVERAGE TIMINGS FROM ALL NODES (CUMULATIVE) ==================
|| TAG                                    #calls    cpu time   %total  Gflops ||
|| work_imbalance                       :     1        0.00s   0.000%  ------ ||
|| sparse_set_to_garbage                :   176        0.03s   0.000%  ------ ||
|| parallel_prepare_fd_halos_request    :  1947        0.03s   0.000%  ------ ||
|| ngwfs_initialise_from_radial         :     1        0.09s   0.000%  ------ ||
|| basis_extract_function_from_box      :  3577        0.16s   0.001%  ------ ||
|| parallel_prepare_fd_halos_satisfy    :  1947        0.67s   0.002%  ------ ||
|| parallel_prepare_fd_halos_alloc      :  1947        1.61s   0.005%  ------ ||
|| pseudopotentials_nonlocal_mat        :    30        2.26s   0.007%  ------ ||
|| density_init_guess_real              :     1        3.51s   0.012%  ------ ||
|| restart_kernel_read                  :     1        4.11s   0.014%  ------ ||
|| openbc_locps_radial                  :     1        4.71s   0.016%  ------ ||
|| restart_ngwfs_tightbox_input         :     1        8.39s   0.028%  ------ ||
|| parallel_prepare_fd_halos_comms_imbal:  1947        9.44s   0.031%  ------ ||
|| parallel_prepare_fd_halos_clear      :  1947       20.00s   0.066%  ------ ||
|| sparse_init                          :     2       22.87s   0.075%  ------ ||
|| projectors_func_ovlp_box             :    30       26.26s   0.086%  ------ ||
|| parallel_prepare_fd_halos_comms_wait :  1947       27.40s   0.090%  ------ ||
|| function_ops_brappd_ketppd           :    30       28.30s   0.093%  ------ ||
|| projectors_init_fftbox_recip         :   142       31.81s   0.105%  ------ ||
|| palser_mano_kernel_optimise          :     1       35.20s   0.116%  ------ ||
|| basis_copy_function_to_box           : 58111       41.47s   0.137%  ------ ||
|| fourier_apply_box_pair               :  5101       52.46s   0.173% 562.961 ||
|| pseudo_make_structure_factor         :     2       52.53s   0.173%  ------ ||
|| ngwf_gradient_coeffs                 :    16       52.94s   0.174%  ------ ||
|| parallel_prepare_fd_halos            :  1947       59.17s   0.195%  ------ ||
|| sparse_embed_hotelling_invert_embed  :    30       82.38s   0.271%  ------ ||
|| restart_kernel_write                 :    17      118.32s   0.390%  ------ ||
|| finite_difference_derivative         :  1947      131.84s   0.434%  ------ ||
|| integrals_kinetic                    :    30      149.12s   0.491%  ------ ||
|| projectors_gradient_batch            :   112      152.11s   0.501%  ------ ||
|| fourier_apply_cell_backward          :  1299      173.95s   0.573% 101.648 ||
|| sparse_trace                         :  5178      195.96s   0.645%  ------ ||
|| basis_dot_function_with_box          : 8.952M     197.03s   0.649%  ------ ||
|| fourier_apply_cell_forward           :  1297      228.25s   0.752%  77.348 ||
|| openbc_locps_on_grid                 :     2      259.61s   0.855%  ------ ||
|| kernel_purify                        :   495      316.29s   1.041%  ------ ||
|| basis_add_function_to_box            : 18.66M     430.39s   1.417%  ------ ||
|| xc_energy_potential                  :   324      466.91s   1.537%  ------ ||
|| hamiltonian_energy_components        :     4      473.85s   1.560%  ------ ||
|| lnv_gradient_norm                    :   160      475.93s   1.567%  ------ ||
|| kernel_fix                           :   160      531.47s   1.750%  ------ ||
|| ngwf_gradient_build_batch            :   112      752.96s   2.479%  ------ ||
|| integrals_locpot_mat_els_batch       :  1183      759.00s   2.499%  ------ ||
|| density_batch_row_sums               :  2261     1031.42s   3.396%  ------ ||
|| ngwf_gradient_batch                  :   112     1046.31s   3.445%  ------ ||
|| restart_ngwfs_tightbox_output        :    14     1076.65s   3.545%  ------ ||
|| ngwf_gradient_lnv                    :    16     1202.16s   3.958%  ------ ||
|| cell_grid_deposit_box_real           : 37197     1274.71s   4.197%  ------ ||
|| cell_grid_extract_box_real           : 41070     1493.21s   4.917%  ------ ||
|| density_fftbox_deposit_to_cell       : 35207     1817.68s   5.985%  ------ ||
|| sparse_product                       :  6573     1951.42s   6.425%  ------ ||
|| potential_apply_to_ngwf_batch        :  1183     3491.05s  11.495%  ------ ||
|| density_fftbox_interpolate_multiply  : 35207     3693.23s  12.161%  ------ ||
|| integrals_locpot_dbl_grid            :   169     4268.62s  14.055%  ------ ||
|| multigrid_prepare_bound_cond         :   324     4451.05s  14.656%  ------ ||
|| fourier_apply_box                    : 121.3k    4543.60s  14.961% 749.290 ||
|| density_batch_interp_deposit         :  2261     6367.22s  20.965%  ------ ||
|| dl_mg_solver_calls                   :   324     7209.06s  23.737%  ------ ||
|| density_on_dbl_grid                  :   323     7791.60s  25.655%  ------ ||
|| multigrid_calculate_hartree          :   324    11846.29s  39.006%  ------ ||
|| hamiltonian_lhxc_calculate           :   319    20077.94s  66.110%  ------ ||
|| lnv_denskernel_optimise_cg           :    16    25402.19s  83.641%  ------ ||
|| ngwf_cg_optimise                     :     2    29451.16s  96.973%  ------ ||
|| total_time                           :     1    30370.46s 100.000%  ------ ||
================================================================================
Overhead of generating timer report: 
- 0 ms averaging over threads,
- 15 ms ensuring consistency across MPI ranks,
- 1 ms printing in order.

Job completed: 26-05-2020 15:45 (+0100)

Application 40621522 resources: utime ~6367063s, stime ~207326s, Rss ~3648000, inblocks ~317811541, outblocks ~65608018
