 +---------------------------------------------------------------+
 |                                                               |
 |        ####### #     # ####### ####### ####### ######         |
 |        #     # ##    # #          #    #       #     #        |
 |        #     # # #   # #          #    #       #     #        |
 |        #     # #  #  # #####      #    #####   ######         |
 |        #     # #   # # #          #    #       #              |
 |        #     # #    ## #          #    #       #              |
 |        ####### #     # #######    #    ####### #              |
 |                                                               |
 |        Linear-Scaling Ab Initio Total Energy Program          |
 |                                                               |
 |          Release for academic collaborators of ODG            |
 |                                             Version 5.3.2.6.  |
 |                                                               |
 +---------------------------------------------------------------+
 |                                                               |
 |  Authors:                                                     |
 |  Jacek Dziedzic, Peter D. Haynes, Nicholas D. M. Hine,        |
 |  Arash. A. Mostofi, Mike C. Payne and Chris-Kriton Skylaris   |
 |                                                               |
 |  Contributors:                                                |
 |  J. Aarons, L. Andrinopoulos, P. W. Avraam, R. A. Bell,       |
 |  A. Bhandari, G. A. Bramley, R. J. Charlton, S. J. Clark,     |
 |  R. J. Clements, G. C. Constantinescu, F. Corsetti,           |
 |  N. Corsini, O. Dieguez, S. M. M. Dubois, K. K. B. Duff,      |
 |  J. M. Escartin, A. Greco, H. Helal, Q. O. Hill, L. P. Lee,   |
 |  J.-H. Li, E. B. Linscott, G. Moynihan, D. D. O`Regan,        |
 |  O. K. Okan, M. J. S. Phipps, C. J. Pickard,                  |
 |  J. C. A. Prentice, M. I. J. Probert, L. E. Ratcliff,         |
 |  M. Robinson, A. Ruiz Serrano, J. S. Spencer, E. W. Tait,     |
 |  G. Teobaldi, D. Turban, V. Vitale, K. A. Wilkinson,          |
 |  C. Weber, J. C. Womack, N. Yeung and T. J. Zuehlsdorff       |
 |                                                               |
 |                                   Copyright (c) 2004-2019     |
 |                                                               |
 |  Please cite:                                                 |
 |  "Introducing ONETEP: Linear-scaling density functional       |
 |   simulations on parallel computers".                         |
 |   C.-K. Skylaris, P. D. Haynes, A. A. Mostofi, M. C. Payne.   |
 |   J. Chem. Phys. 122 084119 (2005).                           |
 |                                                               |
 |          in all publications arising from your use of ONETEP. |
 |                                                               |
 +---------------------------------------------------------------+
 |                                                               |
 |   ONETEP is based on developments described in the following  |
 |   publications:                                               |
 |                                                               |
 |  "Nonorthogonal generalized Wannier function pseudopotential  |
 |   plane-wave method".                                         |
 |   C.-K. Skylaris, A. A. Mostofi, P. D. Haynes, O. Dieguez,    |
 |   M. C. Payne.                                                |
 |   Phys. Rev. B 66 035119 (2002).                              |
 |                                                               |
 |  "Preconditioned iterative minimization for linear-scaling    |
 |   electronic structure calculations".                         |
 |   A. A. Mostofi, P. D. Haynes, C.-K. Skylaris, M. C. Payne.   |
 |   J. Chem. Phys. 119(17), pp.8842-8848 (2003).                |
 |                                                               |
 |  "Total-energy calculations on a real space grid with         |
 |   localized functions and a plane-wave basis".                |
 |   A. A. Mostofi, C.-K. Skylaris, P. D. Haynes, M. C. Payne.   |
 |   Comput. Phys. Commun. 147, pp.788-802 (2002).               |
 |                                                               |
 |  "Accurate kinetic energy evaluation in electronic structure  |
 |   calculations with localized functions on real space grids"  |
 |   C.-K. Skylaris, A. A. Mostofi, P. D. Haynes, C. J. Pickard, |
 |   M. C. Payne.                                                |
 |   Comput. Phys. Commun. 140, pp.315-322 (2001).               |
 |                                                               |
 |  "Accurate ionic forces and geometry optimization in linear-  |
 |   scaling density-functional theory with local orbitals"      |
 |   N. D. M. Hine, M. Robinson, P. D. Haynes, C.-K. Skylaris,   |
 |   M. C. Payne, and A. A. Mostofi.                             |
 |   Phys. Rev. B 83 195102 (2011).                              |
 |                                                               |
 +---------------------------------------------------------------+

Job started: 23-01-2020 01:17 (-0000)
 
Reading parameters from file "host_13401.dat" ...... done

If your calculation crashes here, before "Checking processes and threads..."
is displayed, then your stack size is insufficient.
If so, use "ulimit -s unlimited" at runtime.
You can disable this check with "check_stack_size F".

Checking processes and threads...
   Determining the default number of threads...
      No default threads set at compilation time: defaulting to 1.
      OpenMP library call suggests 4 threads.
      Hybrid MPI-OpenMP compilation detected.
      Number of MPI processes > 1.
      OMP_NUM_THREADS environment variable present and
      its value matches the one obtained from the OpenMP library call.
      Using this value as default.
      Default threads: 4
      Default applies to threads_max and threads_num_fftboxes.
      Settings in the input file override this default.
   ... done

   Running with 60 MPI processes.
   There are 6 MPI processes running on the same node as the root process.
   Each MPI process is using: 
               1 threads for simulation cell FFTs.
               1 threads for parallel FFT box operations.
               4 threads for loops over batched FFT box operations.
               4 threads in other parallel regions.
... done

Basic input checks...... done

Reading geometry and species blocks from file "host_13401.dat" ...
  <species_atomic_set> block not found: NGWF initialisation set to SOLVE
IS: Dielectric excluded regions:
    - NONE.
    
  Number of PPD points along a3 set to 1.  This is 
  the default value, it may have been provided also in the input file.
... done
 Writing xyz coordinates to file "host_13401.xyz" ... done


--------------------------------------------------------------------------------
---------------------------------- INPUT FILE ----------------------------------
--------------------------------------------------------------------------------

cutoff_energy       : 800 eV                                                    
xc_functional PBE                                                               
task SINGLEPOINT                                                                
write_xyz true                                                                  
output_detail VERBOSE                                                           
ngwf_threshold_orig : 0.000002                                                  
kernel_cutoff       : 1000                                                      
k_zero              : 3.5                                                       
elec_cg_max 0                                                                   
occ_mix 1.0                                                                     
dispersion 1                                                                    
maxit_ngwf_cg 40                                                                
minit_lnv 10                                                                    
maxit_lnv 10                                                                    
write_denskern T                                                                
write_tightbox_ngwfs T                                                          
charge 9                                                                        
is_implicit_solvent T                                                           
is_auto_solvation T                                                             
is_include_apolar T                                                             
is_smeared_ion_rep T                                                            
is_solvent_surf_tension 4.7624E-5 Ha/bohr**2                                    
is_apolar_scaling_factor 0.281075                                               
is_solvation_beta 1.3                                                           
is_density_threshold 0.00035                                                    
is_bulk_permittivity 78.54                                                      
is_dielectric_model fix_initial                                                 
is_smeared_ion_width 0.8                                                        
mg_defco_fd_order 8                                                             
is_bc_coarseness 10                                                             
is_bc_surface_coarseness 1                                                      
fine_grid_scale 2.0                                                             
%block species                                                                  
N   N   7 4 8.0                                                                 
H   H   1 1 8.0                                                                 
C   C   6 4 8.0                                                                 
S   S  16 9 8.0                                                                 
O   O   8 4 8.0                                                                 
%endblock species                                                               
%block species_pot                                                              
N   N_00.recpot                                                                 
H   H_04.recpot                                                                 
C   C_01.recpot                                                                 
S   S_00.recpot                                                                 
O   O_02.recpot                                                                 
%endblock species_pot                                                           
%block lattice_cart                                                             
139.252   0.000   0.000                                                         
0.000 142.425   0.000                                                           
0.000   0.000   162.84                                                          
%endblock lattice_cart                                                          
%block positions_abs                                                            
     Hash =   000000986868494539831052
%endblock positions_abs                                                         

--------------------------------------------------------------------------------
-------------------------------- END INPUT FILE --------------------------------
--------------------------------------------------------------------------------


 
 ESDF WARNING(1): "kernelcutoff" (esdf_physical) has no units. Assume "bohr".
 ESDF WARNING(2): "kzero" (esdf_physical) has no units. Assume "1/bohr".
 ESDF WARNING(3
 ): "issmearedionwidth" (esdf_physical) has no units. Assume "bohr".
<<<<<<<<<<<<<<<<<<<<<<<<<<<<<<<<< Full system >>>>>>>>>>>>>>>>>>>>>>>>>>>>>>>>>>
<<<<<<<<<<<<<<<<<<<<<<<<< Pseudopotential information >>>>>>>>>>>>>>>>>>>>>>>>>>
File: N_00.recpot [ 2001 points up to Gmax=  52.9 (1/bohr)]
  Atomic number:  7;  ionic charge:  5.000000
    Shell 1: l = 0; rc = 1.48 bohr
File: H_04.recpot [ 2001 points up to Gmax=  52.9 (1/bohr)]
  Atomic number:  1;  ionic charge:  1.000000
    Local potential
File: C_01.recpot [ 2001 points up to Gmax=  52.9 (1/bohr)]
  Atomic number:  6;  ionic charge:  4.000000
    Shell 1: l = 0; rc = 1.48 bohr
File: S_00.recpot [ 2001 points up to Gmax=  52.9 (1/bohr)]
  Atomic number: 16;  ionic charge:  6.000000
    Shell 1: l = 0; rc = 1.90 bohr
    Shell 2: l = 2; rc = 1.84 bohr
File: O_02.recpot [ 2001 points up to Gmax=  52.9 (1/bohr)]
  Atomic number:  8;  ionic charge:  6.000000
    Shell 1: l = 0; rc = 1.31 bohr
<<<<<<<<<<<<<<<<<<<<<<<<<<<<<<<<<<<<<<<<>>>>>>>>>>>>>>>>>>>>>>>>>>>>>>>>>>>>>>>>

-------------------------- Atom counting information ---------------------------
Symbol    Natoms    Nngwfs    Nprojs
  N        236       944       236
  H       1311      1311         0
  C        810      3240       810
  S          6        54        36
  O        239       956       239
.......   ......    ......    ......
Totals:   2602      6505      1321
--------------------------------------------------------------------------------

=============================== PSINC grid sizes ===============================
                      Simulation cell:  275 x 280 x 320
                              FFT-box:   99 x  99 x  99
                                  PPD:    5 x   5 x   1
Grid space d1=  0.506370909091a0 (KE cutoff=  29.62556Eh = 806.15239eV)
Grid space d2=  0.508660714286a0 (KE cutoff=  29.35943Eh = 798.91072eV)
Grid space d3=  0.508875000000a0 (KE cutoff=  29.33471Eh = 798.23802eV)
================================================================================

********************* Fourier parallelisation information **********************
       Coarse grid (whole simulation cell) dimensions:    275   280   320
          Real-space ('12') slabs/node (min max mean):      5     6     5
         Recip-space ('23') slabs/node (min max mean):      2     3     2
********************************************************************************

********************* Fourier parallelisation information **********************
       Double grid (whole simulation cell) dimensions:    550   560   640
          Real-space ('12') slabs/node (min max mean):     10    11    10
         Recip-space ('23') slabs/node (min max mean):      4     5     4
********************************************************************************
ONETEP fine grid is 550 x 560 x 640 gridpoints, 139.2520 x 142.4250 x 162.8400 bohr.
FD multigrid is     545 x 553 x 633 gridpoints, 137.9861 x 140.6447 x 161.0589 bohr.


Calculating local pseudopotential in open BC on a radial grid ...
Discrepancy between calculated realspace psloc and -Z/x on [5a0,257.280a0]:
max |rel. diff| # avg |rel. diff| #  avg rel. diff #  f # pseudopotential file
 0.000256370913    0.000003612608   0.000000072509   55  'N_00.recpot'
 0.000395389207    0.000016224277  -0.000000076597   55  'H_04.recpot'
 0.000377360759    0.000017565724   0.000000149252   55  'C_01.recpot'
 0.000469715301    0.000020587835   0.000000455518   55  'S_00.recpot'
 0.000665442002    0.000026079317   0.000000158685   55  'O_02.recpot'
... done

Atom SCF Calculation for N  : Z (AE atom) =   7 : Z (PS atom) =   5
Config String:
Orbitals (num,occ):  2     2.00 3.00
Orbitals   (num,l):  2        0    1
Real-space Grid (nr,dr,rmax): 1203    0.0066555740    8.0000000000
Spherical Bessel Basis (nsws,lmax,cutoff):   47    1  176.3951722778
Confining potential (l,width,scale):  0    3.0000000000  100.0000000000
Confining potential (l,width,scale):  1    3.0000000000  100.0000000000
  1         -4.7312375307   -3.4155304497    7.0523828109   -1.9351020946
  2         -9.7309464766   -2.0532547791    8.2966052865   -2.2494486027
  3         -9.6627394379   -2.1124926340    8.2327997121   -2.2369778124
  4         -9.6814993499   -2.1215521045    8.2229805960   -2.2365178421
  5         -9.6843326483   -2.1250939529    8.2191374534   -2.2362718126
  6         -9.6859628709   -2.1267894855    8.2172963573   -2.2362066344
  7         -9.6867347035   -2.1276425665    8.2163697352   -2.2361903369
  8         -9.6870802100   -2.1280764625    8.2158983890   -2.2361891460
  9         -9.6872290423   -2.1282977424    8.2156580222   -2.2361920435
 10         -9.6872901988   -2.1284107021    8.2155353368   -2.2361953393
 11         -9.6873135296   -2.1284684031    8.2154726809   -2.2361979819
 12         -9.6873212476   -2.1284978948    8.2154406648   -2.2361998431
 13         -9.6873229586   -2.1285129774    8.2154242957   -2.2362010676
 14         -9.6873226456   -2.1285206957    8.2154159216   -2.2362018403
 15         -9.6873218534   -2.1285246479    8.2154116349   -2.2362023142
 16         -9.6873212599   -2.1285262679    8.2154098784   -2.2362025420
 17         -9.6873207834   -2.1285272564    8.2154088068   -2.2362026955
 18         -9.6873204210   -2.1285278596    8.2154081529   -2.2362027982
 19         -9.6873201550   -2.1285282280    8.2154077538   -2.2362028667
 20         -9.6873199645   -2.1285284529    8.2154075102   -2.2362029121
 21         -9.6873198305   -2.1285285903    8.2154073614   -2.2362029421
 22         -9.6873197377   -2.1285286742    8.2154072705   -2.2362029618
Atom SCF converged after  22 iterations to a total energy of     -9.68731974

Atom SCF Calculation for H  : Z (AE atom) =   1 : Z (PS atom) =   1
Config String:
Orbitals (num,occ):  1     1.00
Orbitals   (num,l):  1        0
Real-space Grid (nr,dr,rmax): 1203    0.0066555740    8.0000000000
Spherical Bessel Basis (nsws,lmax,cutoff):   47    0  176.3951722778
Confining potential (l,width,scale):  0    3.0000000000  100.0000000000
  1         -0.3194257691   -0.2393854593    0.2820953124   -0.2424203209
  2         -0.3951823392   -0.2377116493    0.2886404059   -0.2475147891
  3         -0.4317044583   -0.2352244387    0.2921333887   -0.2514046172
  4         -0.4470703708   -0.2341892222    0.2934391879   -0.2531009782
  5         -0.4532132900   -0.2338556667    0.2938388426   -0.2537313520
  6         -0.4556579251   -0.2337612552    0.2939448584   -0.2539550462
  7         -0.4566418315   -0.2337377355    0.2939680120   -0.2540342273
  8         -0.4570437922   -0.2337331116    0.2939708287   -0.2540627372
  9         -0.4572102946   -0.2337328328    0.2939698291   -0.2540732650
 10         -0.4572800424   -0.2337332404    0.2939687193   -0.2540772588
 11         -0.4573095100   -0.2337335791    0.2939680317   -0.2540788122
 12         -0.4573220379   -0.2337337762    0.2939676699   -0.2540794294
 13         -0.4573273880   -0.2337338775    0.2939674931   -0.2540796787
 14         -0.4573296803   -0.2337339266    0.2939674099   -0.2540797808
 15         -0.4573306647   -0.2337339495    0.2939673718   -0.2540798230
 16         -0.4573310882   -0.2337339601    0.2939673545   -0.2540798406
 17         -0.4573312706   -0.2337339649    0.2939673467   -0.2540798479
 18         -0.4573313493   -0.2337339670    0.2939673433   -0.2540798510
Atom SCF converged after  18 iterations to a total energy of     -0.45733135

Atom SCF Calculation for C  : Z (AE atom) =   6 : Z (PS atom) =   4
Config String:
Orbitals (num,occ):  2     2.00 2.00
Orbitals   (num,l):  2        0    1
Real-space Grid (nr,dr,rmax): 1203    0.0066555740    8.0000000000
Spherical Bessel Basis (nsws,lmax,cutoff):   47    1  176.3951722778
Confining potential (l,width,scale):  0    3.0000000000  100.0000000000
Confining potential (l,width,scale):  1    3.0000000000  100.0000000000
  1         -5.2976922011   -1.3069684169    4.5135249990   -1.4493313817
  2         -5.3721716256   -1.3429755895    4.4750154450   -1.4361613026
  3         -5.3809959565   -1.3617365618    4.4541655428   -1.4305930207
  4         -5.3918938866   -1.3667928461    4.4484735100   -1.4294652294
  5         -5.3956096428   -1.3688539142    4.4461376126   -1.4290734646
  6         -5.3968271862   -1.3696852393    4.4451910874   -1.4289366866
  7         -5.3972028401   -1.3700178062    4.4448112275   -1.4288900460
  8         -5.3973067903   -1.3701500158    4.4446598370   -1.4288749220
  9         -5.3973286940   -1.3702023868    4.4445997329   -1.4288704293
 10         -5.3973289850   -1.3702230869    4.4445759233   -1.4288693188
 11         -5.3973254264   -1.3702312560    4.4445665049   -1.4288691775
 12         -5.3973224003   -1.3702344755    4.4445627836   -1.4288692549
 13         -5.3973208708   -1.3702354890    4.4445616088   -1.4288693270
 14         -5.3973198783   -1.3702360102    4.4445610034   -1.4288693814
 15         -5.3973192535   -1.3702362780    4.4445606917   -1.4288694190
 16         -5.3973188684   -1.3702364155    4.4445605313   -1.4288694437
 17         -5.3973186349   -1.3702364860    4.4445604489   -1.4288694595
 18         -5.3973184951   -1.3702365221    4.4445604065   -1.4288694693
 19         -5.3973184122   -1.3702365405    4.4445603848   -1.4288694753
Atom SCF converged after  19 iterations to a total energy of     -5.39731841

Atom SCF Calculation for S  : Z (AE atom) =  16 : Z (PS atom) =   6
Config String:
Orbitals (num,occ):  3     2.00 4.00 0.00
Orbitals   (num,l):  3        0    1    2
Real-space Grid (nr,dr,rmax): 1203    0.0066555740    8.0000000000
Spherical Bessel Basis (nsws,lmax,cutoff):   47    2  176.3951722778
Confining potential (l,width,scale):  0    3.0000000000  100.0000000000
Confining potential (l,width,scale):  1    3.0000000000  100.0000000000
Confining potential (l,width,scale):  2    3.0000000000  100.0000000000
  1        -12.4735062396   -1.0328741412   10.1554312477   -2.4512393157
  2         -9.9458301913   -2.4607392455    8.3041325857   -2.0306994528
  3        -10.1450417646   -2.2931184565    8.4831893826   -2.0812538287
  4        -10.1528335592   -2.2733105793    8.5050388867   -2.0896035179
  5        -10.1571940363   -2.2633716629    8.5160794258   -2.0939370707
  6        -10.1594380571   -2.2584938667    8.5215163935   -2.0961289008
  7        -10.1605856507   -2.2561081821    8.5241804044   -2.0972291378
  8        -10.1611799191   -2.2549395235    8.5254868240   -2.0977806248
  9        -10.1614918752   -2.2543658586    8.5261285885   -2.0980571586
 10        -10.1616572884   -2.2540839121    8.5264441898   -2.0981959233
 11        -10.1617455602   -2.2539453058    8.5265994231   -2.0982656006
 12        -10.1617928447   -2.2538772062    8.5266757320   -2.0983006047
 13        -10.1618182292   -2.2538437891    8.5267131983   -2.0983181961
 14        -10.1618318741   -2.2538274201    8.5267315620   -2.0983270391
 15        -10.1618392144   -2.2538194197    8.5267405433   -2.0983314852
 16        -10.1618431651   -2.2538155200    8.5267449245   -2.0983337210
 17        -10.1618452923   -2.2538136252    8.5267470551   -2.0983348455
 18        -10.1618464380   -2.2538127080    8.5267480875   -2.0983354110
 19        -10.1618470552   -2.2538122659    8.5267485856   -2.0983356955
 20        -10.1618473878   -2.2538120540    8.5267488248   -2.0983358386
 21        -10.1618475670   -2.2538119530    8.5267489389   -2.0983359106
 22        -10.1618476637   -2.2538119053    8.5267489929   -2.0983359468
Atom SCF converged after  22 iterations to a total energy of    -10.16184766

Atom SCF Calculation for O  : Z (AE atom) =   8 : Z (PS atom) =   6
Config String:
Orbitals (num,occ):  2     2.00 4.00
Orbitals   (num,l):  2        0    1
Real-space Grid (nr,dr,rmax): 1203    0.0066555740    8.0000000000
Spherical Bessel Basis (nsws,lmax,cutoff):   47    1  176.3951722778
Confining potential (l,width,scale):  0    3.0000000000  100.0000000000
Confining potential (l,width,scale):  1    3.0000000000  100.0000000000
  1         -1.8735052164   -7.5539365035   10.1554312477   -2.4512393157
  2        -16.0318313751   -3.1285771268   13.6395848164   -3.2358799643
  3        -15.9524020423   -3.0762819706   13.6967272503   -3.2536856837
  4        -15.8521515939   -3.0781493909   13.6951909330   -3.2561700440
  5        -15.8357139793   -3.0748501933   13.6988803334   -3.2580493133
  6        -15.8246052853   -3.0740779781   13.6997881576   -3.2588327446
  7        -15.8189019501   -3.0737449687   13.7001869911   -3.2592378801
  8        -15.8159785510   -3.0736026016   13.7003615168   -3.2594475790
  9        -15.8144776168   -3.0735437994   13.7004360379   -3.2595560735
 10        -15.8137058024   -3.0735207882   13.7004667348   -3.2596122456
 11        -15.8133083127   -3.0735125946   13.7004786868   -3.2596413656
 12        -15.8131032938   -3.0735102195   13.7004828997   -3.2596564858
 13        -15.8129973902   -3.0735099286   13.7004840891   -3.2596643505
 14        -15.8129426040   -3.0735102506   13.7004842061   -3.2596684489
 15        -15.8129142203   -3.0735106556   13.7004840157   -3.2596705887
 16        -15.8128994940   -3.0735109855   13.7004837906   -3.2596717080
 17        -15.8128918425   -3.0735112169   13.7004836103   -3.2596722946
 18        -15.8128878614   -3.0735113674   13.7004834848   -3.2596726026
 19        -15.8128857871   -3.0735114608   13.7004834035   -3.2596727646
 20        -15.8128847048   -3.0735115170   13.7004833533   -3.2596728500
 21        -15.8128841394   -3.0735115501   13.7004833231   -3.2596728951
 22        -15.8128838436   -3.0735115693   13.7004833054   -3.2596729190
 23        -15.8128836887   -3.0735115802   13.7004832951   -3.2596729316
 24        -15.8128836074   -3.0735115864   13.7004832893   -3.2596729383
Atom SCF converged after  24 iterations to a total energy of    -15.81288361

========================== Calculation in vacuum ==============================
= Adjusting the following parameters: 
= is_implicit_solvent: F
= is_include_apolar: F
= write_denskern: T
= write_tightbox_ngwfs: T
= restart read filename prefix: ""
= restart write filename prefix: "vacuum_"
===============================================================================

Determining parallel strategy ...
... using space-filling curve
... NGWF load balancing: max    109;  min    108;  average    108
... Projector load balancing: max     25;  min     21;  average     22
... done
Calculating direct Ion-Ion energy ...
Ion-Ion Energy        :    826090.72212477191351
======================= Empirical dispersion information =======================
Model : Elstner
Dispersion Correction Energy: -0.32553730E+01 Hartree
================================================================================
Basis initialisation ...... NGWF spheres initialised
... Projector spheres initialised
... NGWF tight boxes initialised
... Tight-boxes gathered
... NGWF basis size (local,global):    1379052  82735619
... Nonlocal pseudopotential projector initialisation
... done

========================== Sparse matrix information ===========================
                        Overlap matrix filling:   6.73%
                        Density kernel filling: 100.00%
              NGWF-Proj overlap matrix filling:   1.78%
                    Hamiltonian matrix filling:   7.62%
                  NGWF diagonal matrix filling:   0.05%
                             KS matrix filling: 100.00% 
                           KSKS matrix filling: 100.00% 
================================================================================

Sparse matrix initialisation ... done

Generating smeared ion density ... done
Smeared ion self correction:     -14457.169564
Smeared ion non-self correction: -826042.655179
NGWF initialisation ...... done
============ Calculation of NGWF S^-1 using Hotelling algorithm ================ 
         Iteration  |  Frobenius norm and Maximum abs value    (of I-S*S_n^-1)   
               1       0.78393004E+02     0.98196867E+00
               2       0.76480236E+02     0.96439178E+00
               3       0.73405161E+02     0.93052972E+00
               4       0.69071824E+02     0.86753561E+00
               5       0.63712190E+02     0.76058418E+00
               6       0.57724641E+02     0.69967362E+00
               7       0.51748371E+02     0.66947809E+00
               8       0.46217700E+02     0.64340591E+00
               9       0.40061538E+02     0.60520992E+00
              10       0.31640004E+02     0.53824916E+00
              11       0.20985942E+02     0.42947838E+00
              12       0.10501848E+02     0.28012158E+00
              13       0.33455799E+01     0.13005554E+00
              14       0.50054803E+00     0.32766563E-01
              15       0.22180150E-01     0.26662416E-02
              16       0.11135972E-03     0.20905266E-04
              17       0.57661031E-08     0.13421406E-08
              18       0.87692929E-13     0.41078252E-14
================================================================================
Calculating local pseudopotential in open BC on the fine real space grid ...
... done

MG BCs: +ve charge blocks (gridpoints):     20141 (   15792147).
MG BCs: -ve charge blocks (gridpoints):      7892 (    1056529).
MG BCs:     Elided blocks (gridpoints):    176979 (  173928029).
MG BCs: Computational effort saved:  99.9853%.
MG BCs: Charge after coarse-graining:           -9.0002246.
MG DL_MG: Calling solver with defect correction order = 8
MG DL_MG: Solver finished
MG Hartree energy from (\int phi*rho dr):              1462.732869
MG Hartree energy from (\int eps (grad phi)^2 dr):     1462.110180
MG Discrepancy due to finite box and discretization:     -0.622689 (  -0.04257%)
MG Correction to account for finite box:                  0.463103
MG Remaining discrepancy, due to discretization:         -0.159586 (  -0.01091%)
Up spin density kernel initialisation ... 
======= Optimisation of K by Palser-Manolopoulos canonical purification ======== 
         Iteration  |  Band structure energy |    c_n   
               1       -2578.31909461057558    0.5270564
               2       -2753.89024811839590    0.5171825
               3       -2933.95152169751691    0.5154025
               4       -3084.51771836614716    0.5285506
               5       -3177.38997058823861    0.5636015
               6       -3216.42668775720995    0.6085936
               7       -3229.67767268172520    0.6222758
               8       -3235.34926112114408    0.6216823
               9       -3238.09708166171731    0.6360295
              10       -3239.25202364826828    0.6680111
              11       -3239.69340570834538    0.6955311
              12       -3239.88101147729685    0.7025522
              13       -3239.97922316939275    0.6960397
              14       -3240.03624727267288    0.6850355
              15       -3240.06981137016874    0.6821602
              16       -3240.08800066289587    0.6706142
              17       -3240.09823224422053    0.6641765
              18       -3240.10375912852305    0.6861228
              19       -3240.10620724328237    0.6880405
              20       -3240.10747947682012    0.6681563
              21       -3240.10826797157279    0.6454505
              22       -3240.10874401879846    0.6180442
              23       -3240.10902457607699    0.5825471
              24       -3240.10918493996860    0.5418272
              25       -3240.10926701207109    0.5107828
              26       -3240.10930606938655    0.5007026
              27       -3240.10933697180963    0.5000029
              28       -3240.10936713653291    0.5000000
              29       -3240.10938629631164    0.5000000
              30       -3240.10939125178948    0.5000000
              31       -3240.10939149828846    0.5000000
Termination criterion satisfied: band energy change below threshold.
Final occupancy bounds: [    0.00000000114571:    0.99999999993037]
Closest occupancy to 0.5:     0.99999999954329
================================================================================
... done

Writing density kernel to file "host_13401.vacuum_dkn" ... done

>>> Optimising kernel for current NGWFs:
   Initial electron number for spin 1:    7192.00000000
     Final electron number for spin 1:    7192.00000000

=================== Penalty functional idempotency correction ==================
 RMS occupancy error at iteration   1:  0.000000 (step -0.5000 Ne1=   7192.0000)
            Final RMS occupancy error   :  0.000000 (Ne1=   7192.0000)
               Final occupancy bounds   : [  0.0000,  1.0000]
================================================================================

................................................................................
<<<<<<<<<<<<<< LNV (Original version) density kernel optimisation >>>>>>>>>>>>>>
~~~~~~~~~~~~~~~~~~~~~~~~~~~~~~~~~~~~~~~~~~~~~~~~~~~~~~~~~~~~~~~~~~~~~~~~~~~~~~~~
   iter  |      energy (Eh)       | rms gradient |  commutator  |   dE (Eh)
MG BCs: +ve charge blocks (gridpoints):     30589 (   16993382).
MG BCs: -ve charge blocks (gridpoints):      8214 (    1088661).
MG BCs:     Elided blocks (gridpoints):    166522 (  172694662).
MG BCs: Computational effort saved:  99.9797%.
MG BCs: Charge after coarse-graining:           -9.0009391.
MG DL_MG: Calling solver with defect correction order = 8
MG DL_MG: Solver finished
MG Hartree energy from (\int phi*rho dr):              1418.666297
MG Hartree energy from (\int eps (grad phi)^2 dr):     1417.987882
MG Discrepancy due to finite box and discretization:     -0.678415 (  -0.04782%)
MG Correction to account for finite box:                  0.474194
MG Remaining discrepancy, due to discretization:         -0.204221 (  -0.01440%)
      ideal mu1:      -0.689948280483
             Q0:  -11504.952558946330
             G0:    -143.261288170011
   RMS gradient:       0.001839997043
MG BCs: +ve charge blocks (gridpoints):     30598 (   17073601).
MG BCs: -ve charge blocks (gridpoints):      8125 (    1069422).
MG BCs:     Elided blocks (gridpoints):    166513 (  172633682).
MG BCs: Computational effort saved:  99.9797%.
MG BCs: Charge after coarse-graining:           -9.0009618.
MG DL_MG: Calling solver with defect correction order = 8
MG DL_MG: Solver finished
MG Hartree energy from (\int phi*rho dr):              1443.915290
MG Hartree energy from (\int eps (grad phi)^2 dr):     1443.256734
MG Discrepancy due to finite box and discretization:     -0.658556 (  -0.04561%)
MG Correction to account for finite box:                  0.470606
MG Remaining discrepancy, due to discretization:         -0.187950 (  -0.01302%)
     Trial step:       0.500000000000
             Q1:  -11516.446240933496
 Quadratic coef:      60.136962097840
 Linear coef   :     -71.630644085005
           Qmin:  -11526.282823200803
Quadratic minimum step length (  0.297781271227) accepted
    Initial Ne1:    7192.00000000
      Final Ne1:    7192.00000000

=================== Penalty functional idempotency correction ==================
 RMS occupancy error at iteration   1:  0.003370 (step -0.4887 Ne1=   7192.0000)
 RMS occupancy error at iteration   2:  0.000026 (step -0.5001 Ne1=   7192.0000)
            Final RMS occupancy error   :  0.000000 (Ne1=   7192.0000)
               Final occupancy bounds   : [  0.0000,  1.0000]
================================================================================

    1        -1.150495255895E+04     1.8400E-03     1.6642E-03
MG BCs: +ve charge blocks (gridpoints):     30590 (   17042808).
MG BCs: -ve charge blocks (gridpoints):      8167 (    1077394).
MG BCs:     Elided blocks (gridpoints):    166520 (  172656503).
MG BCs: Computational effort saved:  99.9797%.
MG BCs: Charge after coarse-graining:           -9.0009525.
MG DL_MG: Calling solver with defect correction order = 8
MG DL_MG: Solver finished
MG Hartree energy from (\int phi*rho dr):              1425.874064
MG Hartree energy from (\int eps (grad phi)^2 dr):     1425.208485
MG Discrepancy due to finite box and discretization:     -0.665579 (  -0.04668%)
MG Correction to account for finite box:                  0.471917
MG Remaining discrepancy, due to discretization:         -0.193662 (  -0.01358%)
      ideal mu1:      -0.733768772864
             Q0:  -11526.673103238107
             G0:     -12.066151890380
   RMS gradient:       0.000530472829
MG BCs: +ve charge blocks (gridpoints):     30596 (   17059593).
MG BCs: -ve charge blocks (gridpoints):      8148 (    1072318).
MG BCs:     Elided blocks (gridpoints):    166514 (  172644794).
MG BCs: Computational effort saved:  99.9797%.
MG BCs: Charge after coarse-graining:           -9.0009566.
MG DL_MG: Calling solver with defect correction order = 8
MG DL_MG: Solver finished
MG Hartree energy from (\int phi*rho dr):              1431.030030
MG Hartree energy from (\int eps (grad phi)^2 dr):     1430.368964
MG Discrepancy due to finite box and discretization:     -0.661066 (  -0.04620%)
MG Correction to account for finite box:                  0.470724
MG Remaining discrepancy, due to discretization:         -0.190342 (  -0.01330%)
     Trial step:       0.385863493497
             Q1:  -11529.502080320031
 Quadratic coef:       1.826910439562
 Linear coef   :      -4.655887521488
           Qmin:  -11529.639489567633
Quadratic minimum step length (  0.491687218340) accepted
    Initial Ne1:    7191.99990564
      Final Ne1:    7192.00000000

=================== Penalty functional idempotency correction ==================
 RMS occupancy error at iteration   1:  0.001790 (step -0.4932 Ne1=   7192.0000)
 RMS occupancy error at iteration   2:  0.000011 (step -0.5001 Ne1=   7192.0000)
            Final RMS occupancy error   :  0.000000 (Ne1=   7192.0000)
               Final occupancy bounds   : [  0.0000,  1.0000]
================================================================================

    2        -1.152667310324E+04     5.3047E-04     4.7980E-04    -2.1721E+01
MG BCs: +ve charge blocks (gridpoints):     30597 (   17063989).
MG BCs: -ve charge blocks (gridpoints):      8145 (    1071077).
MG BCs:     Elided blocks (gridpoints):    166513 (  172641639).
MG BCs: Computational effort saved:  99.9797%.
MG BCs: Charge after coarse-graining:           -9.0009578.
MG DL_MG: Calling solver with defect correction order = 8
MG DL_MG: Solver finished
MG Hartree energy from (\int phi*rho dr):              1432.492364
MG Hartree energy from (\int eps (grad phi)^2 dr):     1431.832456
MG Discrepancy due to finite box and discretization:     -0.659908 (  -0.04607%)
MG Correction to account for finite box:                  0.470411
MG Remaining discrepancy, due to discretization:         -0.189496 (  -0.01323%)
      ideal mu1:      -0.758174053497
             Q0:  -11529.675680345856
             G0:      -1.950029144560
   RMS gradient:       0.000213333458
MG BCs: +ve charge blocks (gridpoints):     30594 (   17063879).
MG BCs: -ve charge blocks (gridpoints):      8145 (    1071705).
MG BCs:     Elided blocks (gridpoints):    166516 (  172641121).
MG BCs: Computational effort saved:  99.9797%.
MG BCs: Charge after coarse-graining:           -9.0009573.
MG DL_MG: Calling solver with defect correction order = 8
MG DL_MG: Solver finished
MG Hartree energy from (\int phi*rho dr):              1430.292930
MG Hartree energy from (\int eps (grad phi)^2 dr):     1429.633603
MG Discrepancy due to finite box and discretization:     -0.659327 (  -0.04610%)
MG Correction to account for finite box:                  0.470055
MG Remaining discrepancy, due to discretization:         -0.189272 (  -0.01323%)
     Trial step:       0.435573355219
             Q1:  -11530.181803970714
 Quadratic coef:       0.343257112412
 Linear coef   :      -0.849380737271
           Qmin:  -11530.201122944682
Quadratic minimum step length (  0.538907431504) accepted
    Initial Ne1:    7191.99994588
      Final Ne1:    7192.00000000

=================== Penalty functional idempotency correction ==================
 RMS occupancy error at iteration   1:  0.000682 (step -0.4955 Ne1=   7192.0000)
 RMS occupancy error at iteration   2:  0.000007 (step -0.5005 Ne1=   7192.0000)
            Final RMS occupancy error   :  0.000000 (Ne1=   7192.0000)
               Final occupancy bounds   : [  0.0000,  1.0000]
================================================================================

    3        -1.152967568035E+04     2.1333E-04     1.9296E-04    -3.0026E+00
MG BCs: +ve charge blocks (gridpoints):     30591 (   17063782).
MG BCs: -ve charge blocks (gridpoints):      8146 (    1071942).
MG BCs:     Elided blocks (gridpoints):    166519 (  172640981).
MG BCs: Computational effort saved:  99.9797%.
MG BCs: Charge after coarse-graining:           -9.0009572.
MG DL_MG: Calling solver with defect correction order = 8
MG DL_MG: Solver finished
MG Hartree energy from (\int phi*rho dr):              1429.781697
MG Hartree energy from (\int eps (grad phi)^2 dr):     1429.122496
MG Discrepancy due to finite box and discretization:     -0.659201 (  -0.04611%)
MG Correction to account for finite box:                  0.469970
MG Remaining discrepancy, due to discretization:         -0.189231 (  -0.01323%)
      ideal mu1:      -0.759068014679
             Q0:  -11530.205901529524
             G0:      -0.546520554884
   RMS gradient:       0.000113090604
MG BCs: +ve charge blocks (gridpoints):     30591 (   17064653).
MG BCs: -ve charge blocks (gridpoints):      8143 (    1071628).
MG BCs:     Elided blocks (gridpoints):    166519 (  172640424).
MG BCs: Computational effort saved:  99.9797%.
MG BCs: Charge after coarse-graining:           -9.0009575.
MG DL_MG: Calling solver with defect correction order = 8
MG DL_MG: Solver finished
MG Hartree energy from (\int phi*rho dr):              1431.123070
MG Hartree energy from (\int eps (grad phi)^2 dr):     1430.463859
MG Discrepancy due to finite box and discretization:     -0.659211 (  -0.04606%)
MG Correction to account for finite box:                  0.469874
MG Remaining discrepancy, due to discretization:         -0.189338 (  -0.01323%)
     Trial step:       0.484493259079
             Q1:  -11530.351337820990
 Quadratic coef:       0.119349233322
 Linear coef   :      -0.264785524789
           Qmin:  -11530.352763332037
Quadratic minimum step length (  0.537442923975) accepted
    Initial Ne1:    7191.99992202
      Final Ne1:    7192.00000000

=================== Penalty functional idempotency correction ==================
 RMS occupancy error at iteration   1:  0.000444 (step -0.4838 Ne1=   7192.0000)
 RMS occupancy error at iteration   2:  0.000011 (step -0.5002 Ne1=   7192.0000)
            Final RMS occupancy error   :  0.000000 (Ne1=   7192.0000)
               Final occupancy bounds   : [  0.0000,  1.0000]
================================================================================

    4        -1.153020590153E+04     1.1309E-04     1.0229E-04    -5.3022E-01
MG BCs: +ve charge blocks (gridpoints):     30591 (   17064736).
MG BCs: -ve charge blocks (gridpoints):      8142 (    1071608).
MG BCs:     Elided blocks (gridpoints):    166519 (  172640361).
MG BCs: Computational effort saved:  99.9797%.
MG BCs: Charge after coarse-graining:           -9.0009576.
MG DL_MG: Calling solver with defect correction order = 8
MG DL_MG: Solver finished
MG Hartree energy from (\int phi*rho dr):              1431.271027
MG Hartree energy from (\int eps (grad phi)^2 dr):     1430.611814
MG Discrepancy due to finite box and discretization:     -0.659213 (  -0.04606%)
MG Correction to account for finite box:                  0.469863
MG Remaining discrepancy, due to discretization:         -0.189350 (  -0.01323%)
      ideal mu1:      -0.759339652912
             Q0:  -11530.353285767022
             G0:      -0.257524336663
   RMS gradient:       0.000077910683
MG BCs: +ve charge blocks (gridpoints):     30591 (   17064840).
MG BCs: -ve charge blocks (gridpoints):      8138 (    1071419).
MG BCs:     Elided blocks (gridpoints):    166519 (  172640446).
MG BCs: Computational effort saved:  99.9797%.
MG BCs: Charge after coarse-graining:           -9.0009575.
MG DL_MG: Calling solver with defect correction order = 8
MG DL_MG: Solver finished
MG Hartree energy from (\int phi*rho dr):              1431.667062
MG Hartree energy from (\int eps (grad phi)^2 dr):     1431.007660
MG Discrepancy due to finite box and discretization:     -0.659401 (  -0.04606%)
MG Correction to account for finite box:                  0.469866
MG Remaining discrepancy, due to discretization:         -0.189535 (  -0.01324%)
     Trial step:       0.510281759233
             Q1:  -11530.440804861137
 Quadratic coef:       0.043890877443
 Linear coef   :      -0.131409971557
           Qmin:  -11530.451646643078
Quadratic minimum step length (  0.763895772578) accepted
    Initial Ne1:    7191.99983365
      Final Ne1:    7192.00000000

=================== Penalty functional idempotency correction ==================
 RMS occupancy error at iteration   1:  0.001187 (step -0.4289 Ne1=   7192.0000)
 RMS occupancy error at iteration   2:  0.000051 (step -0.4991 Ne1=   7192.0000)
 RMS occupancy error at iteration   3:  0.000000 (step -0.5000 Ne1=   7192.0000)
            Final RMS occupancy error   :  0.000000 (Ne1=   7192.0000)
               Final occupancy bounds   : [  0.0000,  1.0000]
================================================================================

    5        -1.153035328577E+04     7.7911E-05     7.0468E-05    -1.4738E-01
MG BCs: +ve charge blocks (gridpoints):     30590 (   17064769).
MG BCs: -ve charge blocks (gridpoints):      8136 (    1071401).
MG BCs:     Elided blocks (gridpoints):    166520 (  172640535).
MG BCs: Computational effort saved:  99.9797%.
MG BCs: Charge after coarse-graining:           -9.0009575.
MG DL_MG: Calling solver with defect correction order = 8
MG DL_MG: Solver finished
MG Hartree energy from (\int phi*rho dr):              1431.867884
MG Hartree energy from (\int eps (grad phi)^2 dr):     1431.208389
MG Discrepancy due to finite box and discretization:     -0.659496 (  -0.04606%)
MG Correction to account for finite box:                  0.469868
MG Remaining discrepancy, due to discretization:         -0.189628 (  -0.01324%)
      ideal mu1:      -0.758766556759
             Q0:  -11530.448779056780
             G0:      -0.261567067927
   RMS gradient:       0.000079799342
MG BCs: +ve charge blocks (gridpoints):     30593 (   17063721).
MG BCs: -ve charge blocks (gridpoints):      8143 (    1071968).
MG BCs:     Elided blocks (gridpoints):    166517 (  172641016).
MG BCs: Computational effort saved:  99.9797%.
MG BCs: Charge after coarse-graining:           -9.0009571.
MG DL_MG: Calling solver with defect correction order = 8
MG DL_MG: Solver finished
MG Hartree energy from (\int phi*rho dr):              1430.094952
MG Hartree energy from (\int eps (grad phi)^2 dr):     1429.435560
MG Discrepancy due to finite box and discretization:     -0.659391 (  -0.04611%)
MG Correction to account for finite box:                  0.469807
MG Remaining discrepancy, due to discretization:         -0.189585 (  -0.01326%)
     Trial step:       0.624341315869
             Q1:  -11530.547802315908
 Quadratic coef:       0.064283868249
 Linear coef   :      -0.163307127377
           Qmin:  -11530.552495660100
Quadratic minimum step length (  0.793040225917) accepted
    Initial Ne1:    7191.99981882
      Final Ne1:    7192.00000000

=================== Penalty functional idempotency correction ==================
 RMS occupancy error at iteration   1:  0.004079 (step -0.3191 Ne1=   7192.0000)
 RMS occupancy error at iteration   2:  0.000331 (step -0.4838 Ne1=   7192.0000)
 RMS occupancy error at iteration   3:  0.000008 (step -0.5003 Ne1=   7192.0000)
            Final RMS occupancy error   :  0.000000 (Ne1=   7192.0000)
               Final occupancy bounds   : [  0.0000,  1.0000]
================================================================================

    6        -1.153044877906E+04     7.9799E-05     7.2177E-05    -9.5493E-02
MG BCs: +ve charge blocks (gridpoints):     30595 (   17063427).
MG BCs: -ve charge blocks (gridpoints):      8142 (    1072153).
MG BCs:     Elided blocks (gridpoints):    166515 (  172641125).
MG BCs: Computational effort saved:  99.9797%.
MG BCs: Charge after coarse-graining:           -9.0009570.
MG DL_MG: Calling solver with defect correction order = 8
MG DL_MG: Solver finished
MG Hartree energy from (\int phi*rho dr):              1429.635206
MG Hartree energy from (\int eps (grad phi)^2 dr):     1428.975831
MG Discrepancy due to finite box and discretization:     -0.659374 (  -0.04612%)
MG Correction to account for finite box:                  0.469799
MG Remaining discrepancy, due to discretization:         -0.189576 (  -0.01326%)
      ideal mu1:      -0.758242314431
             Q0:  -11530.554004047881
             G0:      -0.258799405474
   RMS gradient:       0.000078204967
MG BCs: +ve charge blocks (gridpoints):     30591 (   17064940).
MG BCs: -ve charge blocks (gridpoints):      8140 (    1071373).
MG BCs:     Elided blocks (gridpoints):    166519 (  172640392).
MG BCs: Computational effort saved:  99.9797%.
MG BCs: Charge after coarse-graining:           -9.0009576.
MG DL_MG: Calling solver with defect correction order = 8
MG DL_MG: Solver finished
MG Hartree energy from (\int phi*rho dr):              1431.276212
MG Hartree energy from (\int eps (grad phi)^2 dr):     1430.617065
MG Discrepancy due to finite box and discretization:     -0.659147 (  -0.04605%)
MG Correction to account for finite box:                  0.469789
MG Remaining discrepancy, due to discretization:         -0.189357 (  -0.01323%)
     Trial step:       0.703653166117
             Q1:  -11530.648086437839
 Quadratic coef:       0.088022631093
 Linear coef   :      -0.182105021051
           Qmin:  -11530.648190731124
Quadratic minimum step length (  0.727874031016) accepted
    Initial Ne1:    7191.99993931
      Final Ne1:    7192.00000000

=================== Penalty functional idempotency correction ==================
 RMS occupancy error at iteration   1:  0.000219 (step -0.4864 Ne1=   7192.0000)
 RMS occupancy error at iteration   2:  0.000002 (step -0.5000 Ne1=   7192.0000)
            Final RMS occupancy error   :  0.000000 (Ne1=   7192.0000)
               Final occupancy bounds   : [  0.0000,  1.0000]
================================================================================

    7        -1.153055400405E+04     7.8205E-05     7.0735E-05    -1.0522E-01
MG BCs: +ve charge blocks (gridpoints):     30591 (   17064988).
MG BCs: -ve charge blocks (gridpoints):      8140 (    1071358).
MG BCs:     Elided blocks (gridpoints):    166519 (  172640359).
MG BCs: Computational effort saved:  99.9797%.
MG BCs: Charge after coarse-graining:           -9.0009576.
MG DL_MG: Calling solver with defect correction order = 8
MG DL_MG: Solver finished
MG Hartree energy from (\int phi*rho dr):              1431.332950
MG Hartree energy from (\int eps (grad phi)^2 dr):     1430.673811
MG Discrepancy due to finite box and discretization:     -0.659139 (  -0.04605%)
MG Correction to account for finite box:                  0.469789
MG Remaining discrepancy, due to discretization:         -0.189350 (  -0.01323%)
      ideal mu1:      -0.759470201921
             Q0:  -11530.648139161058
             G0:      -0.224705613694
   RMS gradient:       0.000072925307
MG BCs: +ve charge blocks (gridpoints):     30588 (   17064805).
MG BCs: -ve charge blocks (gridpoints):      8137 (    1071322).
MG BCs:     Elided blocks (gridpoints):    166522 (  172640578).
MG BCs: Computational effort saved:  99.9797%.
MG BCs: Charge after coarse-graining:           -9.0009577.
MG DL_MG: Calling solver with defect correction order = 8
MG DL_MG: Solver finished
MG Hartree energy from (\int phi*rho dr):              1431.212147
MG Hartree energy from (\int eps (grad phi)^2 dr):     1430.553073
MG Discrepancy due to finite box and discretization:     -0.659073 (  -0.04605%)
MG Correction to account for finite box:                  0.469842
MG Remaining discrepancy, due to discretization:         -0.189231 (  -0.01322%)
     Trial step:       0.715661139408
             Q1:  -11530.739352600416
 Quadratic coef:       0.069599636168
 Linear coef   :      -0.160813075527
           Qmin:  -11530.741030613817
Quadratic minimum step length (  0.826783552326) accepted
    Initial Ne1:    7191.99993963
      Final Ne1:    7192.00000000

=================== Penalty functional idempotency correction ==================
 RMS occupancy error at iteration   1:  0.001442 (step -0.4222 Ne1=   7192.0000)
 RMS occupancy error at iteration   2:  0.000048 (step -0.4986 Ne1=   7192.0000)
 RMS occupancy error at iteration   3:  0.000000 (step -0.5000 Ne1=   7192.0000)
            Final RMS occupancy error   :  0.000000 (Ne1=   7192.0000)
               Final occupancy bounds   : [  0.0000,  1.0000]
================================================================================

    8        -1.153064813916E+04     7.2925E-05     6.5959E-05    -9.4135E-02
MG BCs: +ve charge blocks (gridpoints):     30589 (   17064803).
MG BCs: -ve charge blocks (gridpoints):      8138 (    1071293).
MG BCs:     Elided blocks (gridpoints):    166521 (  172640609).
MG BCs: Computational effort saved:  99.9797%.
MG BCs: Charge after coarse-graining:           -9.0009577.
MG DL_MG: Calling solver with defect correction order = 8
MG DL_MG: Solver finished
MG Hartree energy from (\int phi*rho dr):              1431.197382
MG Hartree energy from (\int eps (grad phi)^2 dr):     1430.538318
MG Discrepancy due to finite box and discretization:     -0.659064 (  -0.04605%)
MG Correction to account for finite box:                  0.469851
MG Remaining discrepancy, due to discretization:         -0.189213 (  -0.01322%)
      ideal mu1:      -0.759319239126
             Q0:  -11530.740272569121
             G0:      -0.217479511365
   RMS gradient:       0.000071580408
MG BCs: +ve charge blocks (gridpoints):     30592 (   17063815).
MG BCs: -ve charge blocks (gridpoints):      8139 (    1071806).
MG BCs:     Elided blocks (gridpoints):    166518 (  172641084).
MG BCs: Computational effort saved:  99.9797%.
MG BCs: Charge after coarse-graining:           -9.0009575.
MG DL_MG: Calling solver with defect correction order = 8
MG DL_MG: Solver finished
MG Hartree energy from (\int phi*rho dr):              1430.107424
MG Hartree energy from (\int eps (grad phi)^2 dr):     1429.448258
MG Discrepancy due to finite box and discretization:     -0.659166 (  -0.04609%)
MG Correction to account for finite box:                  0.469988
MG Remaining discrepancy, due to discretization:         -0.189178 (  -0.01323%)
     Trial step:       0.769218342931
             Q1:  -11530.817734377575
 Quadratic coef:       0.089827420899
 Linear coef   :      -0.167289229354
           Qmin:  -11530.818159939085
Quadratic minimum step length (  0.716273174189) accepted
    Initial Ne1:    7191.99994960
      Final Ne1:    7192.00000000

=================== Penalty functional idempotency correction ==================
 RMS occupancy error at iteration   1:  0.003366 (step -0.3516 Ne1=   7192.0000)
 RMS occupancy error at iteration   2:  0.000190 (step -0.4932 Ne1=   7192.0000)
 RMS occupancy error at iteration   3:  0.000003 (step -0.5000 Ne1=   7192.0000)
            Final RMS occupancy error   :  0.000000 (Ne1=   7192.0000)
               Final occupancy bounds   : [  0.0000,  1.0000]
================================================================================

    9        -1.153074027257E+04     7.1580E-05     6.4743E-05    -9.2133E-02
MG BCs: +ve charge blocks (gridpoints):     30592 (   17063906).
MG BCs: -ve charge blocks (gridpoints):      8139 (    1071750).
MG BCs:     Elided blocks (gridpoints):    166518 (  172641049).
MG BCs: Computational effort saved:  99.9797%.
MG BCs: Charge after coarse-graining:           -9.0009575.
MG DL_MG: Calling solver with defect correction order = 8
MG DL_MG: Solver finished
MG Hartree energy from (\int phi*rho dr):              1430.181866
MG Hartree energy from (\int eps (grad phi)^2 dr):     1429.522710
MG Discrepancy due to finite box and discretization:     -0.659155 (  -0.04609%)
MG Correction to account for finite box:                  0.469980
MG Remaining discrepancy, due to discretization:         -0.189176 (  -0.01323%)
      ideal mu1:      -0.758234270473
   10        -1.153082527980E+04     6.1686E-05     5.5793E-05    -8.5007E-02
Finished density kernel iterations (  10)

Writing density kernel to file "host_13401.vacuum_dkn" ... done


>>> Density kernel optimised for the current NGWF basis:
     ~~~~~~~~~~~~~~~~~~~~~~~~~~~~~~~~~~~~~~~~~~~~~~~~~~~~~~~~~~~
     Total energy                =  -1.15308252797996E+04  Eh
     Estimated bandgap           =  -2.9523E-01  Eh
     RMS occupancy error         =   1.3330E-09
     [H,K] commutator            =   5.5793E-05
     Occupancy bounds            = [  0.000:  1.000]
     ~~~~~~~~~~~~~~~~~~~~~~~~~~~~~~~~~~~~~~~~~~~~~~~~~~~~~~~~~~~




################################################################################
########################### NGWF CG iteration  001 #############################
################################################################################
****** Reciprocal space K.E. preconditioning with k_zero =  3.5000 a0^-1 *******

>>> Checking for convergence of NGWFs:   NOT CONVERGED
  ========================================================================
         NGWF RMS gradient =  1.6338E-03 >  2.0000E-06  | above tolerance
  ========================================================================

>>> Improving NGWFs using line search:
============ Calculation of NGWF S^-1 using Hotelling algorithm ================ 
         Iteration  |  Frobenius norm and Maximum abs value    (of I-S*S_n^-1)   
               1       0.20368729E+00     0.55545956E-02
               2       0.97045409E-03     0.45049800E-04
               3       0.38071172E-07     0.30089082E-08
               4       0.12742789E-12     0.66613381E-14
================================================================================
MG BCs: +ve charge blocks (gridpoints):     30117 (   17007653).
MG BCs: -ve charge blocks (gridpoints):      8142 (    1071803).
MG BCs:     Elided blocks (gridpoints):    166995 (  172697249).
MG BCs: Computational effort saved:  99.9799%.
MG BCs: Charge after coarse-graining:           -9.0009606.
MG DL_MG: Calling solver with defect correction order = 8
MG DL_MG: Solver finished
MG Hartree energy from (\int phi*rho dr):              1397.868192
MG Hartree energy from (\int eps (grad phi)^2 dr):     1397.209997
MG Discrepancy due to finite box and discretization:     -0.658195 (  -0.04709%)
MG Correction to account for finite box:                  0.469870
MG Remaining discrepancy, due to discretization:         -0.188325 (  -0.01347%)
============ Calculation of NGWF S^-1 using Hotelling algorithm ================ 
         Iteration  |  Frobenius norm and Maximum abs value    (of I-S*S_n^-1)   
               1       0.18332735E+01     0.43294935E-01
               2       0.70081707E-01     0.24119672E-02
               3       0.14041588E-03     0.83565535E-05
               4       0.10243918E-08     0.10886914E-09
               5       0.11021799E-12     0.48849813E-14
================================================================================
------------------------------- NGWF line search -------------------------------
RMS gradient                =       0.00163378510207
Trial step length           =               0.122474
Gradient along search dir.  =       -284.11075504888
Functional at step 0        =  -11530.82527979963925
Functional at step 1        =  -11562.88887431961484
Functional predicted        =  -11641.59237497102731
Selected quadratic step     =               0.779746
--------------------------- NGWF line search finished --------------------------
                                               
Writing NGWFs to file "host_13401.vacuum_tightbox_ngwfs"....  done

>>> Optimising kernel for current NGWFs:
   Initial electron number for spin 1:    7226.66567939
     Final electron number for spin 1:    7192.00000000

=================== Penalty functional idempotency correction ==================
 RMS occupancy error at iteration   1:  0.004359 (step -0.4852 Ne1=   7192.0000)
 RMS occupancy error at iteration   2:  0.000077 (step -0.5003 Ne1=   7192.0000)
            Final RMS occupancy error   :  0.000000 (Ne1=   7192.0000)
               Final occupancy bounds   : [  0.0000,  1.0000]
================================================================================

................................................................................
<<<<<<<<<<<<<< LNV (Original version) density kernel optimisation >>>>>>>>>>>>>>
~~~~~~~~~~~~~~~~~~~~~~~~~~~~~~~~~~~~~~~~~~~~~~~~~~~~~~~~~~~~~~~~~~~~~~~~~~~~~~~~
   iter  |      energy (Eh)       | rms gradient |  commutator  |   dE (Eh)
MG BCs: +ve charge blocks (gridpoints):     24505 (   16695028).
MG BCs: -ve charge blocks (gridpoints):      8311 (    1056113).
MG BCs:     Elided blocks (gridpoints):    172615 (  173025564).
MG BCs: Computational effort saved:  99.9828%.
MG BCs: Charge after coarse-graining:           -9.0006773.
MG DL_MG: Calling solver with defect correction order = 8
MG DL_MG: Solver finished
MG Hartree energy from (\int phi*rho dr):              1246.137778
MG Hartree energy from (\int eps (grad phi)^2 dr):     1245.479775
MG Discrepancy due to finite box and discretization:     -0.658003 (  -0.05280%)
MG Correction to account for finite box:                  0.469321
MG Remaining discrepancy, due to discretization:         -0.188682 (  -0.01514%)
      ideal mu1:      -0.699503257614
             Q0:  -11640.819131136173
             G0:      -9.886044115028
   RMS gradient:       0.000483352502
MG BCs: +ve charge blocks (gridpoints):     24568 (   16708034).
MG BCs: -ve charge blocks (gridpoints):      8293 (    1053189).
MG BCs:     Elided blocks (gridpoints):    172552 (  173015482).
MG BCs: Computational effort saved:  99.9828%.
MG BCs: Charge after coarse-graining:           -9.0006731.
MG DL_MG: Calling solver with defect correction order = 8
MG DL_MG: Solver finished
MG Hartree energy from (\int phi*rho dr):              1261.809888
MG Hartree energy from (\int eps (grad phi)^2 dr):     1261.145013
MG Discrepancy due to finite box and discretization:     -0.664875 (  -0.05269%)
MG Correction to account for finite box:                  0.469859
MG Remaining discrepancy, due to discretization:         -0.195016 (  -0.01546%)
     Trial step:       0.742273847131
             Q1:  -11639.954518327373
 Quadratic coef:       8.202764806972
 Linear coef   :      -7.338151998173
           Qmin:  -11642.460299571921
Quadratic minimum step length (  0.332017218749) accepted
    Initial Ne1:    7191.99948795
      Final Ne1:    7192.00000000

=================== Penalty functional idempotency correction ==================
 RMS occupancy error at iteration   1:  0.000360 (step -0.4986 Ne1=   7192.0000)
 RMS occupancy error at iteration   2:  0.000000 (step -0.5000 Ne1=   7192.0000)
            Final RMS occupancy error   :  0.000000 (Ne1=   7192.0000)
               Final occupancy bounds   : [  0.0000,  1.0000]
================================================================================

    1        -1.164081913114E+04     4.8335E-04     4.3718E-04
MG BCs: +ve charge blocks (gridpoints):     24538 (   16700811).
MG BCs: -ve charge blocks (gridpoints):      8304 (    1054852).
MG BCs:     Elided blocks (gridpoints):    172582 (  173021042).
MG BCs: Computational effort saved:  99.9828%.
MG BCs: Charge after coarse-graining:           -9.0006755.
MG DL_MG: Calling solver with defect correction order = 8
MG DL_MG: Solver finished
MG Hartree energy from (\int phi*rho dr):              1252.168604
MG Hartree energy from (\int eps (grad phi)^2 dr):     1251.507619
MG Discrepancy due to finite box and discretization:     -0.660985 (  -0.05279%)
MG Correction to account for finite box:                  0.469553
MG Remaining discrepancy, due to discretization:         -0.191432 (  -0.01529%)
      ideal mu1:      -0.705814685824
             Q0:  -11642.433486367343
             G0:      -1.006649759821
   RMS gradient:       0.000154957476
MG BCs: +ve charge blocks (gridpoints):     24539 (   16700301).
MG BCs: -ve charge blocks (gridpoints):      8304 (    1055742).
MG BCs:     Elided blocks (gridpoints):    172581 (  173020662).
MG BCs: Computational effort saved:  99.9828%.
MG BCs: Charge after coarse-graining:           -9.0006754.
MG DL_MG: Calling solver with defect correction order = 8
MG DL_MG: Solver finished
MG Hartree energy from (\int phi*rho dr):              1253.174304
MG Hartree energy from (\int eps (grad phi)^2 dr):     1252.512850
MG Discrepancy due to finite box and discretization:     -0.661453 (  -0.05278%)
MG Correction to account for finite box:                  0.469613
MG Remaining discrepancy, due to discretization:         -0.191840 (  -0.01531%)
     Trial step:       0.496434988971
             Q1:  -11642.645279584802
 Quadratic coef:       0.287942944955
 Linear coef   :      -0.499736162414
           Qmin:  -11642.650314246268
Quadratic minimum step length (  0.430791100499) accepted
    Initial Ne1:    7191.99993170
      Final Ne1:    7192.00000000

=================== Penalty functional idempotency correction ==================
 RMS occupancy error at iteration   1:  0.000164 (step -0.4982 Ne1=   7192.0000)
 RMS occupancy error at iteration   2:  0.000001 (step -0.5000 Ne1=   7192.0000)
            Final RMS occupancy error   :  0.000000 (Ne1=   7192.0000)
               Final occupancy bounds   : [  0.0000,  1.0000]
================================================================================

    2        -1.164243348637E+04     1.5496E-04     1.4016E-04    -1.6144E+00
MG BCs: +ve charge blocks (gridpoints):     24538 (   16700354).
MG BCs: -ve charge blocks (gridpoints):      8304 (    1055616).
MG BCs:     Elided blocks (gridpoints):    172582 (  173020735).
MG BCs: Computational effort saved:  99.9828%.
MG BCs: Charge after coarse-graining:           -9.0006754.
MG DL_MG: Calling solver with defect correction order = 8
MG DL_MG: Solver finished
MG Hartree energy from (\int phi*rho dr):              1253.041067
MG Hartree energy from (\int eps (grad phi)^2 dr):     1252.379677
MG Discrepancy due to finite box and discretization:     -0.661390 (  -0.05278%)
MG Correction to account for finite box:                  0.469605
MG Remaining discrepancy, due to discretization:         -0.191785 (  -0.01531%)
      ideal mu1:      -0.706693167685
             Q0:  -11642.650798604125
             G0:      -0.184537872229
   RMS gradient:       0.000065966836
MG BCs: +ve charge blocks (gridpoints):     24540 (   16699890).
MG BCs: -ve charge blocks (gridpoints):      8303 (    1055947).
MG BCs:     Elided blocks (gridpoints):    172580 (  173020868).
MG BCs: Computational effort saved:  99.9828%.
MG BCs: Charge after coarse-graining:           -9.0006754.
MG DL_MG: Calling solver with defect correction order = 8
MG DL_MG: Solver finished
MG Hartree energy from (\int phi*rho dr):              1252.575889
MG Hartree energy from (\int eps (grad phi)^2 dr):     1251.914502
MG Discrepancy due to finite box and discretization:     -0.661387 (  -0.05280%)
MG Correction to account for finite box:                  0.469619
MG Remaining discrepancy, due to discretization:         -0.191768 (  -0.01531%)
     Trial step:       0.462449754271
             Q1:  -11642.712361883139
 Quadratic coef:       0.023776214652
 Linear coef   :      -0.085339493666
           Qmin:  -11642.727375440323
Quadratic minimum step length (  0.829930845882) accepted
    Initial Ne1:    7191.99997609
      Final Ne1:    7192.00000000

=================== Penalty functional idempotency correction ==================
 RMS occupancy error at iteration   1:  0.000355 (step -0.4750 Ne1=   7192.0000)
 RMS occupancy error at iteration   2:  0.000005 (step -0.5000 Ne1=   7192.0000)
            Final RMS occupancy error   :  0.000000 (Ne1=   7192.0000)
               Final occupancy bounds   : [ -0.0000,  1.0000]
================================================================================

    3        -1.164265079860E+04     6.5967E-05     5.9665E-05    -2.1731E-01
MG BCs: +ve charge blocks (gridpoints):     24540 (   16699486).
MG BCs: -ve charge blocks (gridpoints):      8303 (    1056220).
MG BCs:     Elided blocks (gridpoints):    172580 (  173020999).
MG BCs: Computational effort saved:  99.9828%.
MG BCs: Charge after coarse-graining:           -9.0006754.
MG DL_MG: Calling solver with defect correction order = 8
MG DL_MG: Solver finished
MG Hartree energy from (\int phi*rho dr):              1252.206959
MG Hartree energy from (\int eps (grad phi)^2 dr):     1251.545576
MG Discrepancy due to finite box and discretization:     -0.661383 (  -0.05282%)
MG Correction to account for finite box:                  0.469628
MG Remaining discrepancy, due to discretization:         -0.191755 (  -0.01531%)
      ideal mu1:      -0.705926170449
             Q0:  -11642.726915364154
             G0:      -0.110385184710
   RMS gradient:       0.000051217539
MG BCs: +ve charge blocks (gridpoints):     24539 (   16699440).
MG BCs: -ve charge blocks (gridpoints):      8304 (    1056254).
MG BCs:     Elided blocks (gridpoints):    172581 (  173021011).
MG BCs: Computational effort saved:  99.9828%.
MG BCs: Charge after coarse-graining:           -9.0006754.
MG DL_MG: Calling solver with defect correction order = 8
MG DL_MG: Solver finished
MG Hartree energy from (\int phi*rho dr):              1252.187742
MG Hartree energy from (\int eps (grad phi)^2 dr):     1251.526636
MG Discrepancy due to finite box and discretization:     -0.661106 (  -0.05280%)
MG Correction to account for finite box:                  0.469513
MG Remaining discrepancy, due to discretization:         -0.191594 (  -0.01530%)
     Trial step:       0.619517001978
             Q1:  -11642.775216319598
 Quadratic coef:       0.020084543250
 Linear coef   :      -0.068385498695
           Qmin:  -11642.785126501612
Quadratic minimum step length (  1.054691127464) accepted
    Initial Ne1:    7191.99998595
      Final Ne1:    7192.00000000

=================== Penalty functional idempotency correction ==================
 RMS occupancy error at iteration   1:  0.001488 (step -0.4025 Ne1=   7192.0000)
 RMS occupancy error at iteration   2:  0.000036 (step -0.4985 Ne1=   7192.0000)
            Final RMS occupancy error   :  0.000000 (Ne1=   7192.0000)
               Final occupancy bounds   : [ -0.0000,  1.0000]
================================================================================

    4        -1.164272691536E+04     5.1218E-05     4.6325E-05    -7.6117E-02
MG BCs: +ve charge blocks (gridpoints):     24539 (   16699323).
MG BCs: -ve charge blocks (gridpoints):      8303 (    1056324).
MG BCs:     Elided blocks (gridpoints):    172581 (  173021058).
MG BCs: Computational effort saved:  99.9828%.
MG BCs: Charge after coarse-graining:           -9.0006754.
MG DL_MG: Calling solver with defect correction order = 8
MG DL_MG: Solver finished
MG Hartree energy from (\int phi*rho dr):              1252.182489
MG Hartree energy from (\int eps (grad phi)^2 dr):     1251.521574
MG Discrepancy due to finite box and discretization:     -0.660916 (  -0.05278%)
MG Correction to account for finite box:                  0.469434
MG Remaining discrepancy, due to discretization:         -0.191481 (  -0.01529%)
      ideal mu1:      -0.707229013345
             Q0:  -11642.781110887765
             G0:      -0.209044555740
   RMS gradient:       0.000071995531
MG BCs: +ve charge blocks (gridpoints):     24544 (   16702033).
MG BCs: -ve charge blocks (gridpoints):      8301 (    1055498).
MG BCs:     Elided blocks (gridpoints):    172576 (  173019174).
MG BCs: Computational effort saved:  99.9828%.
MG BCs: Charge after coarse-graining:           -9.0006748.
MG DL_MG: Calling solver with defect correction order = 8
MG DL_MG: Solver finished
MG Hartree energy from (\int phi*rho dr):              1253.798601
MG Hartree energy from (\int eps (grad phi)^2 dr):     1253.138275
MG Discrepancy due to finite box and discretization:     -0.660327 (  -0.05267%)
MG Correction to account for finite box:                  0.469028
MG Remaining discrepancy, due to discretization:         -0.191299 (  -0.01526%)
     Trial step:       0.808331049323
             Q1:  -11642.817344567156
 Quadratic coef:       0.132743525706
 Linear coef   :      -0.168977205097
           Qmin:  -11642.834886195620
Quadratic minimum step length (  0.514486566410) accepted
    Initial Ne1:    7192.00109976
      Final Ne1:    7192.00000000

=================== Penalty functional idempotency correction ==================
 RMS occupancy error at iteration   1:  0.003744 (step -0.3125 Ne1=   7192.0000)
 RMS occupancy error at iteration   2:  0.000131 (step -0.4925 Ne1=   7192.0000)
 RMS occupancy error at iteration   3:  0.000001 (step -0.5000 Ne1=   7192.0000)
            Final RMS occupancy error   :  0.000000 (Ne1=   7192.0000)
               Final occupancy bounds   : [  0.0000,  1.0000]
================================================================================

    5        -1.164278111089E+04     7.1996E-05     6.5118E-05    -5.4196E-02
MG BCs: +ve charge blocks (gridpoints):     24540 (   16701024).
MG BCs: -ve charge blocks (gridpoints):      8301 (    1055741).
MG BCs:     Elided blocks (gridpoints):    172580 (  173019940).
MG BCs: Computational effort saved:  99.9828%.
MG BCs: Charge after coarse-graining:           -9.0006751.
MG DL_MG: Calling solver with defect correction order = 8
MG DL_MG: Solver finished
MG Hartree energy from (\int phi*rho dr):              1253.175929
MG Hartree energy from (\int eps (grad phi)^2 dr):     1252.515419
MG Discrepancy due to finite box and discretization:     -0.660510 (  -0.05271%)
MG Correction to account for finite box:                  0.469156
MG Remaining discrepancy, due to discretization:         -0.191353 (  -0.01527%)
      ideal mu1:      -0.710146359483
             Q0:  -11642.847781024757
             G0:      -0.325102748538
   RMS gradient:       0.000074605334
========================= Kernel Line Step Protection ==========================
|  Iter |  Trial Step |   RMS Occupancy Error |   Occupancy Bounds | Accepted? |
    0        0.000000                0.000000    [ 1.0000:  0.0000]
    1        0.644884                0.009896    [ 1.3949: -0.4076]        No
    2        0.322442                0.003810    [ 1.1803: -0.1853]       Yes
================================================================================
MG BCs: +ve charge blocks (gridpoints):     24545 (   16702045).
MG BCs: -ve charge blocks (gridpoints):      8302 (    1055515).
MG BCs:     Elided blocks (gridpoints):    172575 (  173019145).
MG BCs: Computational effort saved:  99.9828%.
MG BCs: Charge after coarse-graining:           -9.0006749.
MG DL_MG: Calling solver with defect correction order = 8
MG DL_MG: Solver finished
MG Hartree energy from (\int phi*rho dr):              1253.749083
MG Hartree energy from (\int eps (grad phi)^2 dr):     1253.088746
MG Discrepancy due to finite box and discretization:     -0.660337 (  -0.05267%)
MG Correction to account for finite box:                  0.468943
MG Remaining discrepancy, due to discretization:         -0.191394 (  -0.01527%)
     Trial step:       0.322442035911
             Q1:  -11642.904526890488
 Quadratic coef:       0.048080926388
 Linear coef   :      -0.104826792119
           Qmin:  -11642.904917280084
Quadratic minimum step length (  0.351496599669) accepted
    Initial Ne1:    7192.00080674
      Final Ne1:    7192.00000000

=================== Penalty functional idempotency correction ==================
 RMS occupancy error at iteration   1:  0.004264 (step -0.2974 Ne1=   7192.0000)
 RMS occupancy error at iteration   2:  0.000150 (step -0.4907 Ne1=   7192.0000)
 RMS occupancy error at iteration   3:  0.000001 (step -0.5000 Ne1=   7192.0000)
            Final RMS occupancy error   :  0.000000 (Ne1=   7192.0000)
               Final occupancy bounds   : [  0.0000,  1.0000]
================================================================================

    6        -1.164284778102E+04     7.4605E-05     6.7479E-05    -6.6670E-02
MG BCs: +ve charge blocks (gridpoints):     24545 (   16702102).
MG BCs: -ve charge blocks (gridpoints):      8301 (    1055498).
MG BCs:     Elided blocks (gridpoints):    172575 (  173019105).
MG BCs: Computational effort saved:  99.9828%.
MG BCs: Charge after coarse-graining:           -9.0006749.
MG DL_MG: Calling solver with defect correction order = 8
MG DL_MG: Solver finished
MG Hartree energy from (\int phi*rho dr):              1253.789182
MG Hartree energy from (\int eps (grad phi)^2 dr):     1253.128859
MG Discrepancy due to finite box and discretization:     -0.660323 (  -0.05267%)
MG Correction to account for finite box:                  0.468931
MG Remaining discrepancy, due to discretization:         -0.191392 (  -0.01527%)
      ideal mu1:      -0.712549132637
             Q0:  -11642.918848361121
             G0:      -0.241824754085
   RMS gradient:       0.000075596742
MG BCs: +ve charge blocks (gridpoints):     24543 (   16700985).
MG BCs: -ve charge blocks (gridpoints):      8302 (    1055918).
MG BCs:     Elided blocks (gridpoints):    172577 (  173019802).
MG BCs: Computational effort saved:  99.9828%.
MG BCs: Charge after coarse-graining:           -9.0006751.
MG DL_MG: Calling solver with defect correction order = 8
MG DL_MG: Solver finished
MG Hartree energy from (\int phi*rho dr):              1252.964243
MG Hartree energy from (\int eps (grad phi)^2 dr):     1252.303934
MG Discrepancy due to finite box and discretization:     -0.660309 (  -0.05270%)
MG Correction to account for finite box:                  0.468839
MG Remaining discrepancy, due to discretization:         -0.191470 (  -0.01528%)
     Trial step:       0.336656025066
             Q1:  -11642.986533963354
 Quadratic coef:       0.013726158240
 Linear coef   :      -0.081411760473
           Qmin:  -11643.039564489904
Quadratic minimum step length (  0.998376938193) accepted
    Initial Ne1:    7191.99999963
      Final Ne1:    7192.00000000

=================== Penalty functional idempotency correction ==================
 RMS occupancy error at iteration   1:  0.001020 (step -0.4270 Ne1=   7192.0000)
 RMS occupancy error at iteration   2:  0.000006 (step -0.5000 Ne1=   7192.0000)
            Final RMS occupancy error   :  0.000000 (Ne1=   7192.0000)
               Final occupancy bounds   : [ -0.0000,  1.0000]
================================================================================

    7        -1.164291884836E+04     7.5597E-05     6.8376E-05    -7.1067E-02
MG BCs: +ve charge blocks (gridpoints):     24541 (   16698649).
MG BCs: -ve charge blocks (gridpoints):      8304 (    1056762).
MG BCs:     Elided blocks (gridpoints):    172579 (  173021294).
MG BCs: Computational effort saved:  99.9828%.
MG BCs: Charge after coarse-graining:           -9.0006756.
MG DL_MG: Calling solver with defect correction order = 8
MG DL_MG: Solver finished
MG Hartree energy from (\int phi*rho dr):              1251.379118
MG Hartree energy from (\int eps (grad phi)^2 dr):     1250.718731
MG Discrepancy due to finite box and discretization:     -0.660387 (  -0.05277%)
[...]
MG Correction to account for finite box:                  0.006495
MG Remaining discrepancy, due to discretization:         -0.190698 (  -0.01576%)
     Trial step:       0.270811381104
             Q1:  -11677.785165116074
 Quadratic coef:       0.000000000191
 Linear coef   :      -0.000000000191
           Qmin:  -11677.785165116122
Quadratic minimum step length (  0.135287640878) accepted
    Initial Ne1:    7192.00000000
      Final Ne1:    7192.00000000

=================== Penalty functional idempotency correction ==================
 RMS occupancy error at iteration   1:  0.000000 (step -0.5000 Ne1=   7192.0000)
            Final RMS occupancy error   :  0.000000 (Ne1=   7192.0000)
               Final occupancy bounds   : [ -0.0000,  1.0000]
================================================================================

    7        -1.167778516512E+04     4.0807E-09     3.6909E-09     0.0000E+00

Reusing previously generated solute cavity.
MG BCs: +ve charge blocks (gridpoints):     28950 (   18904523).
MG BCs: -ve charge blocks (gridpoints):      8301 (    1025714).
MG BCs:     Elided blocks (gridpoints):    168170 (  170846468).
MG BCs: Computational effort saved:  99.9805%.
MG BCs: Charge after coarse-graining:           -9.0009372.
MG DL_MG: Calling solver with defect correction order = 8
MG DL_MG: Solver finished
MG Hartree energy from (\int phi*rho dr):              1209.633619
MG Hartree energy from (\int eps (grad phi)^2 dr):     1209.436427
MG Discrepancy due to finite box and discretization:     -0.197192 (  -0.01630%)
MG Correction to account for finite box:                  0.006495
MG Remaining discrepancy, due to discretization:         -0.190698 (  -0.01576%)
      ideal mu1:      -0.480520109021
             Q0:  -11677.785165116074
             G0:      -0.000000000950
   RMS gradient:       0.000000003483

Reusing previously generated solute cavity.
MG BCs: +ve charge blocks (gridpoints):     28950 (   18904523).
MG BCs: -ve charge blocks (gridpoints):      8301 (    1025714).
MG BCs:     Elided blocks (gridpoints):    168170 (  170846468).
MG BCs: Computational effort saved:  99.9805%.
MG BCs: Charge after coarse-graining:           -9.0009372.
MG DL_MG: Calling solver with defect correction order = 8
MG DL_MG: Solver finished
MG Hartree energy from (\int phi*rho dr):              1209.633606
MG Hartree energy from (\int eps (grad phi)^2 dr):     1209.436414
MG Discrepancy due to finite box and discretization:     -0.197192 (  -0.01630%)
MG Correction to account for finite box:                  0.006495
MG Remaining discrepancy, due to discretization:         -0.190698 (  -0.01576%)
     Trial step:       0.191409072075
             Q1:  -11677.785165116074
 Quadratic coef:       0.000000000182
 Linear coef   :      -0.000000000182
           Qmin:  -11677.785165116120
Quadratic minimum step length (  0.095627867103) accepted
    Initial Ne1:    7192.00000000
      Final Ne1:    7192.00000000

=================== Penalty functional idempotency correction ==================
 RMS occupancy error at iteration   1:  0.000000 (step -0.5000 Ne1=   7192.0000)
            Final RMS occupancy error   :  0.000000 (Ne1=   7192.0000)
               Final occupancy bounds   : [ -0.0000,  1.0000]
================================================================================

    8        -1.167778516512E+04     3.4830E-09     3.1503E-09     0.0000E+00

Reusing previously generated solute cavity.
MG BCs: +ve charge blocks (gridpoints):     28950 (   18904523).
MG BCs: -ve charge blocks (gridpoints):      8301 (    1025714).
MG BCs:     Elided blocks (gridpoints):    168170 (  170846468).
MG BCs: Computational effort saved:  99.9805%.
MG BCs: Charge after coarse-graining:           -9.0009372.
MG DL_MG: Calling solver with defect correction order = 8
MG DL_MG: Solver finished
MG Hartree energy from (\int phi*rho dr):              1209.633612
MG Hartree energy from (\int eps (grad phi)^2 dr):     1209.436420
MG Discrepancy due to finite box and discretization:     -0.197192 (  -0.01630%)
MG Correction to account for finite box:                  0.006495
MG Remaining discrepancy, due to discretization:         -0.190698 (  -0.01576%)
      ideal mu1:      -0.480520102332
             Q0:  -11677.785165115958
             G0:      -0.000000000871
   RMS gradient:       0.000000002868

Reusing previously generated solute cavity.
MG BCs: +ve charge blocks (gridpoints):     28950 (   18904523).
MG BCs: -ve charge blocks (gridpoints):      8301 (    1025714).
MG BCs:     Elided blocks (gridpoints):    168170 (  170846468).
MG BCs: Computational effort saved:  99.9805%.
MG BCs: Charge after coarse-graining:           -9.0009372.
MG DL_MG: Calling solver with defect correction order = 8
MG DL_MG: Solver finished
MG Hartree energy from (\int phi*rho dr):              1209.633602
MG Hartree energy from (\int eps (grad phi)^2 dr):     1209.436410
MG Discrepancy due to finite box and discretization:     -0.197192 (  -0.01630%)
MG Correction to account for finite box:                  0.006495
MG Remaining discrepancy, due to discretization:         -0.190698 (  -0.01576%)
     Trial step:       0.135292428859
             Q1:  -11677.785165115958
 Quadratic coef:       0.000000000118
 Linear coef   :      -0.000000000118
           Qmin:  -11677.785165115987
Quadratic minimum step length (  0.067453703785) accepted
    Initial Ne1:    7192.00000000
      Final Ne1:    7192.00000000

=================== Penalty functional idempotency correction ==================
 RMS occupancy error at iteration   1:  0.000000 (step -0.5000 Ne1=   7192.0000)
            Final RMS occupancy error   :  0.000000 (Ne1=   7192.0000)
               Final occupancy bounds   : [  0.0000,  1.0000]
================================================================================

    9        -1.167778516512E+04     2.8678E-09     2.5938E-09     1.1642E-10

Reusing previously generated solute cavity.
MG BCs: +ve charge blocks (gridpoints):     28950 (   18904523).
MG BCs: -ve charge blocks (gridpoints):      8301 (    1025714).
MG BCs:     Elided blocks (gridpoints):    168170 (  170846468).
MG BCs: Computational effort saved:  99.9805%.
MG BCs: Charge after coarse-graining:           -9.0009372.
MG DL_MG: Calling solver with defect correction order = 8
MG DL_MG: Solver finished
MG Hartree energy from (\int phi*rho dr):              1209.633607
MG Hartree energy from (\int eps (grad phi)^2 dr):     1209.436415
MG Discrepancy due to finite box and discretization:     -0.197192 (  -0.01630%)
MG Correction to account for finite box:                  0.006495
MG Remaining discrepancy, due to discretization:         -0.190698 (  -0.01576%)
      ideal mu1:      -0.480520097075
   10        -1.167778516512E+04     2.4175E-09     2.1866E-09     0.0000E+00
Finished density kernel iterations (  10)

Writing density kernel to file "host_13401.dkn" ... done


>>> Density kernel optimised for the current NGWF basis:
     ~~~~~~~~~~~~~~~~~~~~~~~~~~~~~~~~~~~~~~~~~~~~~~~~~~~~~~~~~~~
     Total energy                =  -1.16777851651160E+04  Eh
     Estimated bandgap           =   9.6892E-02  Eh
     RMS occupancy error         =   2.5288E-16
     [H,K] commutator            =   2.1866E-09
     Occupancy bounds            = [  0.000:  1.000]
     ~~~~~~~~~~~~~~~~~~~~~~~~~~~~~~~~~~~~~~~~~~~~~~~~~~~~~~~~~~~




################################################################################
########################### NGWF CG iteration  005 #############################
################################################################################
****** Reciprocal space K.E. preconditioning with k_zero =  3.5000 a0^-1 *******

>>> Checking for convergence of NGWFs: 
           ........................................................
           |         *** NGWF optimisation converged ***          |
           | RMS NGWF gradient =    0.00000090329237              |
           | Criteria satisfied:                                  |
           | -> RMS NGWF gradient lower than set threshold.       |
           ========================================================

Reusing previously generated solute cavity.
MG BCs: +ve charge blocks (gridpoints):     28950 (   18904523).
MG BCs: -ve charge blocks (gridpoints):      8301 (    1025714).
MG BCs:     Elided blocks (gridpoints):    168170 (  170846468).
MG BCs: Computational effort saved:  99.9805%.
MG BCs: Charge after coarse-graining:           -9.0009372.
MG DL_MG: Calling solver with defect correction order = 8
MG DL_MG: Solver finished
MG Hartree energy from (\int phi*rho dr):              1209.633607
MG Hartree energy from (\int eps (grad phi)^2 dr):     1209.436415
MG Discrepancy due to finite box and discretization:     -0.197192 (  -0.01630%)
MG Correction to account for finite box:                  0.006495
MG Remaining discrepancy, due to discretization:         -0.190698 (  -0.01576%)

================================================================================
           ---------------- ENERGY COMPONENTS (Eh) ----------------
           | Kinetic                    :     8525.29049582416337 |
           | Pseudo. (local,OBC,corr'd) :    -5047.43061725885764 |
           | Pseudopotential (non-local):     1403.63929982247532 |
           | Hartree (molecular)        :     1209.63360729529654 |
           | Exchange-correlation       :    -3357.21219995709998 |
           | Ion-ion (open BC)          :   826090.72212477191351 |
           | Dispersion Correction      :       -3.25537302125156 |
           | Smeared ion non-self corr. :  -826042.65517904236913 |
           | Smeared ion self corr.     :   -14457.16956389741972 |
           | Solvent cavitation energy  :        2.32052066953157 |
           | Solute-solvent dis-rep en. :       -1.66828032234298 |
           | Total                      :   -11677.78516511589987 |
           --------------------------------------------------------
           ------ LOCAL ENERGY COMPONENTS FROM MATRIX TRACES ------
           | Pseudopotential (local)    :    -5047.43061725885855 |
           | Hartree                    :    -1988.31782555654650 |
           --------------------------------------------------------
           Integrated density           :     7191.99999999895408
           Integrated density tr(KS)    :     7192.00000000000000
================================================================================


                        <<<<< CALCULATION SUMMARY >>>>>                         
|ITER|    RMS GRADIENT   |     TOTAL ENERGY    |   step   |     Epredicted              
   0     0.00004136140684 -11677.72045644326136   0.616251 -11677.77656327005570        
   1     0.00000983333939 -11677.78466426208615   0.081064 -11677.78508141764178        
   2     0.00000441523338 -11677.78514609509148   0.015374 -11677.78516204536936        
   3     0.00000200132584 -11677.78516431152821   0.003207 -11677.78516499507532        
   4     0.00000090329237 -11677.78516511595808  <-- CG                                 

=================== Finished the calculation in solvent ========================
= Adjusting the following parameters: 
= read_denskern: F
= read_tightbox_ngwfs: F
= maxit_pen: 0 (restored to user-specified value)
= restart read filename prefix: ""
= restart write filename prefix: ""
================================================================================

================================================================================
IS: Calculation in solvent completed (NGWFs converged).      

Individual components of total energy in solvent:     hartree           kcal/mol
- Usual non-electrostatic DFT terms:    -12888.07101275844252    -8087386.487447
- Electrostatic fixed charge energy:      1209.63360729529654      759056.532255
- Apolar cavitation energy:                  2.32052066953157        1456.148673
- Apolar dispersion-repulsion energy:       -1.66828032234298       -1046.861685
 -------------------------------------------------------------------------------
- Total energy in solvent:              -11677.78516511595808    -7327920.668204

Components of total energy in solvent:                hartree           kcal/mol
- Usual non-electrostatic DFT terms:    -12888.07101275844252    -8087386.487447
- Electrostatic energy:                   1209.63360729529654      759056.532255
- Apolar energy terms:                       0.65224034718858         409.286988
 -------------------------------------------------------------------------------
- Total energy in solvent:              -11677.78516511595808    -7327920.668204

Calculation of free energy of solvation:              hartree           kcal/mol
- Total energy in solvent:         (+)  -11677.78516511595808    -7327920.668204
- Total energy in vacuum:          (-)  -11673.77561556093860    -7325404.637926
 -------------------------------------------------------------------------------
- Total free energy of solvation:           -4.00954955501948       -2516.030278

Components of polar term in f.e. of solvation:        hartree           kcal/mol
- Electrostatic:                            -4.79768927419605       -3010.595408
- Change in nonelectrostatic DFT terms:      0.13589937198776          85.278142
 -------------------------------------------------------------------------------
- Polar term in f.e. of solvation:          -4.66178990220828       -2925.317266

Components of free energy of solvation:               hartree           kcal/mol
- Polar term in f.e. of solvation: (+)      -4.66178990220828       -2925.317266
- Apolar (cavitation, dis., rep.): (+)       0.65224034718858         409.286988
 -------------------------------------------------------------------------------
- Total free energy of solvation:           -4.00954955501970       -2516.030278
================================================================================


------------------------------ TIMING INFORMATION ------------------------------
AVERAGE TIME:   30870.372s on     60 node(s)                                    
TOTAL TIME:     30870.372s on     60 node(s)                                    
================= AVERAGE TIMINGS FROM ALL NODES (CUMULATIVE) ==================
|| TAG                                    #calls    cpu time   %total  Gflops ||
|| work_imbalance                       :     1        0.00s   0.000%  ------ ||
|| sparse_set_to_garbage                :   176        0.03s   0.000%  ------ ||
|| parallel_prepare_fd_halos_request    :  1947        0.03s   0.000%  ------ ||
|| ngwfs_initialise_from_radial         :     1        0.09s   0.000%  ------ ||
|| basis_extract_function_from_box      :  3577        0.16s   0.001%  ------ ||
|| parallel_prepare_fd_halos_satisfy    :  1947        0.69s   0.002%  ------ ||
|| parallel_prepare_fd_halos_alloc      :  1947        1.76s   0.006%  ------ ||
|| pseudopotentials_nonlocal_mat        :    30        2.35s   0.008%  ------ ||
|| openbc_locps_radial                  :     1        3.08s   0.010%  ------ ||
|| density_init_guess_real              :     1        3.51s   0.011%  ------ ||
|| restart_kernel_read                  :     1        4.24s   0.014%  ------ ||
|| restart_ngwfs_tightbox_input         :     1        6.93s   0.022%  ------ ||
|| parallel_prepare_fd_halos_comms_imbal:  1947        8.76s   0.028%  ------ ||
|| parallel_prepare_fd_halos_clear      :  1947       19.94s   0.065%  ------ ||
|| sparse_init                          :     2       21.97s   0.071%  ------ ||
|| projectors_func_ovlp_box             :    30       25.87s   0.084%  ------ ||
|| parallel_prepare_fd_halos_comms_wait :  1947       27.17s   0.088%  ------ ||
|| function_ops_brappd_ketppd           :    30       28.30s   0.092%  ------ ||
|| projectors_init_fftbox_recip         :   142       32.36s   0.105%  ------ ||
|| palser_mano_kernel_optimise          :     1       42.05s   0.136%  ------ ||
|| basis_copy_function_to_box           : 58111       42.57s   0.138%  ------ ||
|| pseudo_make_structure_factor         :     2       51.28s   0.166%  ------ ||
|| ngwf_gradient_coeffs                 :    16       52.49s   0.170%  ------ ||
|| fourier_apply_box_pair               :  5101       53.06s   0.172% 556.647 ||
|| parallel_prepare_fd_halos            :  1947       58.36s   0.189%  ------ ||
|| sparse_embed_hotelling_invert_embed  :    30       82.36s   0.267%  ------ ||
|| restart_kernel_write                 :    17      107.41s   0.348%  ------ ||
|| finite_difference_derivative         :  1947      126.14s   0.409%  ------ ||
|| integrals_kinetic                    :    30      147.00s   0.476%  ------ ||
|| projectors_gradient_batch            :   112      170.12s   0.551%  ------ ||
|| fourier_apply_cell_backward          :  1299      188.49s   0.611%  93.809 ||
|| basis_dot_function_with_box          : 8.814M     195.30s   0.633%  ------ ||
|| sparse_trace                         :  5467      213.05s   0.690%  ------ ||
|| fourier_apply_cell_forward           :  1297      244.92s   0.793%  72.084 ||
|| openbc_locps_on_grid                 :     2      259.66s   0.841%  ------ ||
|| kernel_purify                        :   495      316.36s   1.025%  ------ ||
|| basis_add_function_to_box            : 18.37M     419.80s   1.360%  ------ ||
|| lnv_gradient_norm                    :   160      471.74s   1.528%  ------ ||
|| hamiltonian_energy_components        :     4      478.62s   1.550%  ------ ||
|| xc_energy_potential                  :   324      501.59s   1.625%  ------ ||
|| kernel_fix                           :   160      576.26s   1.867%  ------ ||
|| integrals_locpot_mat_els_batch       :  1183      732.37s   2.372%  ------ ||
|| ngwf_gradient_build_batch            :   112      742.99s   2.407%  ------ ||
|| ngwf_gradient_batch                  :   112     1017.23s   3.295%  ------ ||
|| density_batch_row_sums               :  2261     1070.04s   3.466%  ------ ||
|| restart_ngwfs_tightbox_output        :    14     1115.92s   3.615%  ------ ||
|| ngwf_gradient_lnv                    :    16     1153.20s   3.736%  ------ ||
|| cell_grid_deposit_box_real           : 37197     1281.82s   4.152%  ------ ||
|| cell_grid_extract_box_real           : 41070     1601.13s   5.187%  ------ ||
|| density_fftbox_deposit_to_cell       : 35207     1836.52s   5.949%  ------ ||
|| sparse_product                       :  6754     1981.02s   6.417%  ------ ||
|| potential_apply_to_ngwf_batch        :  1183     3524.97s  11.419%  ------ ||
|| density_fftbox_interpolate_multiply  : 35207     3756.76s  12.169%  ------ ||
|| integrals_locpot_dbl_grid            :   169     4277.21s  13.855%  ------ ||
|| multigrid_prepare_bound_cond         :   324     4598.96s  14.898%  ------ ||
|| fourier_apply_box                    : 121.3k    4635.39s  15.016% 734.451 ||
|| density_batch_interp_deposit         :  2261     6418.20s  20.791%  ------ ||
|| dl_mg_solver_calls                   :   324     7496.60s  24.284%  ------ ||
|| density_on_dbl_grid                  :   323     7775.07s  25.186%  ------ ||
|| multigrid_calculate_hartree          :   324    12274.89s  39.763%  ------ ||
|| hamiltonian_lhxc_calculate           :   319    20532.31s  66.511%  ------ ||
|| lnv_denskernel_optimise_cg           :    16    25892.29s  83.874%  ------ ||
|| ngwf_cg_optimise                     :     2    29956.44s  97.039%  ------ ||
|| total_time                           :     1    30870.37s 100.000%  ------ ||
================================================================================
Overhead of generating timer report: 
- 0 ms averaging over threads,
- 15 ms ensuring consistency across MPI ranks,
- 0 ms printing in order.

Job completed: 23-01-2020 09:51 (-0000)

Application 38663743 resources: utime ~6466119s, stime ~214684s, Rss ~3650692, inblocks ~330051046, outblocks ~65593992
