      -----------------------------------------------------------      
     |                   =====================                   |     
     |                           x T B                           |     
     |                   =====================                   |     
     |                         S. Grimme                         |     
     |          Mulliken Center for Theoretical Chemistry        |     
     |                    University of Bonn                     |     
      -----------------------------------------------------------      

   * xtb version 6.2.3 (d7bf61a) compiled by 'conda@06d140edd85e' on 2020-05-12

   xtb is free software: you can redistribute it and/or modify it under
   the terms of the GNU Lesser General Public License as published by
   the Free Software Foundation, either version 3 of the License, or
   (at your option) any later version.
   
   xtb is distributed in the hope that it will be useful,
   but WITHOUT ANY WARRANTY; without even the implied warranty of
   MERCHANTABILITY or FITNESS FOR A PARTICULAR PURPOSE.  See the
   GNU Lesser General Public License for more details.
   
   Cite this work as:
   * S. Grimme, C. Bannwarth, P. Shushkov, J. Chem. Theory Comput., 2017,
     13, 1989-2009. DOI: 10.1021/acs.jctc.7b00118
   * C. Bannwarth, S. Ehlert and S. Grimme., J. Chem. Theory Comput., 2019,
     15, 1652-1671. DOI: 10.1021/acs.jctc.8b01176
   * P. Pracht, E. Caldeweyher, S. Ehlert, S. Grimme, ChemRxiv, 2019, preprint.
     DOI: 10.26434/chemrxiv.8326202.v1
   
   for DFT-D4:
   * E. Caldeweyher, C. Bannwarth and S. Grimme, J. Chem. Phys., 2017,
     147, 034112. DOI: 10.1063/1.4993215
   * E. Caldeweyher, S. Ehlert, A. Hansen, H. Neugebauer, S. Spicher,
     C. Bannwarth and S. Grimme, J. Chem. Phys., 2019, 150, 154122.
     DOI: 10.1063/1.5090222
   
   for sTDA-xTB:
   * S. Grimme and C. Bannwarth, J. Chem. Phys., 2016, 145, 054103.
     DOI: 10.1063/1.4959605
   
   in the mass-spec context:
   * V. Asgeirsson, C. Bauer and S. Grimme, Chem. Sci., 2017, 8, 4879.
     DOI: 10.1039/c7sc00601b
   
   for metadynamics refer to:
   * S. Grimme, J. Chem. Theory Comput., 2019, 155, 2847-2862
     DOI: 10.1021/acs.jctc.9b00143
   
   with help from (in alphabetical order)
   C. Bannwarth, F. Bohle, G. Brandenburg, E. Caldeweyher, M. Checinski,
   S. Dohm, S. Ehlert, S. Ehrlich, F. März, H. Neugebauer, J. Pisarek,
   P. Pracht, P. Shushkov, and S. Spicher.
   
 * started run on 2020/06/06 at 15:18:17.304     

           -------------------------------------------------
          |                Calculation Setup                |
           -------------------------------------------------

          program call               : xtb complex_25941.xyz --chrg +9 --uhf 0 --gbsa water
          hostname                   : gold56.cluster.local
          coordinate file            : complex_25941.xyz
          omp threads                :                    64
          number of atoms            :                  2615
          number of electrons        :                  7228
          charge                     :                     9
          spin                       :                   0.0
          first test random number   :      0.44521030033789


molecular fragmentation (1/2 indicates fragments):
111111111111111111111111111111111111111111111111111111111111111111111111
111111111111111111111111111111111111111111111111111111111111111111111111
111111111111111111111111111111111111111111111111111111111111111111111111
111111111111111111111111111111111111111111111111111111111111111111111111
111111111111111111111111111111111111111111111111111111111111111111111111
111111111111111111111111111111111111111111111111111111111111111111111111
111111111111111111111111111111111111111111111111111111111111111111111111
111111111111111111111111111111111111111111111111111111111111111111111111
111111111111111111111111111111111111111111111111111111111111111111111111
111111111111111111111111111111111111111111111111111111111111111111111111
111111111111111111111111111111111111111111111111111111111111111111111111
111111111111111111111111111111111111111111111111111111111111111111111111
111111111111111111111111111111111111111111111111111111111111111111111111
111111111111111111111111111111111111111111111111111111111111111111111111
111111111111111111111111111111111111111111111111111111111111111111111111
111111111111111111111111111111111111111111111111111111111111111111111111
111111111111111111111111111111111111111111111111111111111111111111111111
111111111111111111111111111111111111111111111111111111111111111111111111
111111111111111111111111111111111111111111111111111111111111111111111111
111111111111111111111111111111111111111111111111111111111111111111111111
111111111111111111111111111111111111111111111111111111111111111111111111
111111111111111111111111111111111111111111111111111111111111111111111111
111111111111111111111111111111111111111111111111111111111111111111111111
111111111111111111111111111111111111111111111111111111111111111111111111
111111111111111111111111111111111111111111111111111111111111111111111111
111111111111111111111111111111111111111111111111111111111111111111111111
111111111111111111111111111111111111111111111111111111111111111111111111
111111111111111111111111111111111111111111111111111111111111111111111111
111111111111111111111111111111111111111111111111111111111111111111111111
111111111111111111111111111111111111111111111111111111111111111111111111
111111111111111111111111111111111111111111111111111111111111111111111111
111111111111111111111111111111111111111111111111111111111111111111111111
111111111111111111111111111111111111111111111111111111111111111111111111
111111111111111111111111111111111111111111111111111111111111111111111111
111111111111111111111111111111111111111111111111111111111111111111111111
111111111111111111111111111111111111111111111111111111111111111111111111
11111111112222222222222
# atoms in fragment 1/2:  2602    13
 fragment masses (1/2) :    18371.93       94.11
CMA distance (Bohr)    :  20.860
constraining FC (au)   :  0.0500
########################################################################
[WARNING] Please study the warnings concerning your input carefully
-2- prog_main: XTBPATH is not set, using XTBHOME instead
-1- prog_main: XTBHOME is not set, using HOME instead
########################################################################
           ------------------------------------------------- 
          |                 G F N 2 - x T B                 |
          | Geometry, Frequencies, Noncovalent interactions |
          |            JCTC 2019 parametrisation            |
           ------------------------------------------------- 
             k(s)              :                1.8500
             k(p)              :                2.2300
             k(d)              :                2.2300
             k(f)              :                2.0000
             kEN (H0ij)        :               -2.0000
             D4 a1             :                0.5200
             D4 a2             :                5.0000
             D4 s6             :                1.0000
             D4 s8             :                2.7000
             D4 s9             :                5.0000
             alphaj            :                2.0000

  Z AO/shell   Hii/eV     exponent
  1     Wed Apr 25 08:07:45 CEST 2018   EN: 2.200 GM2: 0.406  GM3: 0.0800  RAES: 1.40
     1s    -10.707211    1.230000
  6     Wed Apr 25 08:07:45 CEST 2018   EN: 2.550 GM2: 0.538  GM3: 0.1500  RAES: 3.00
     2s    -13.970922    2.096432
     2p    -10.063292    1.800000
  7     Wed Apr 25 08:07:45 CEST 2018   EN: 3.040 GM2: 0.461  GM3:-0.0640  RAES: 1.90
     2s    -16.686243    2.339881
     2p    -12.523956    2.014332
  8     Wed Apr 25 08:07:45 CEST 2018   EN: 3.440 GM2: 0.452  GM3:-0.0517  RAES: 1.80
     2s    -20.229985    2.439742
     2p    -15.503117    2.137023
 16     Tue Apr 24 11:44:34 CEST 2018   EN: 2.580 GM2: 0.340  GM3:-0.0502  RAES: 3.10
     3s    -20.029654    1.981333
     3p    -11.377694    2.025643
     3d     -0.420282    1.702555

 Solvent             : water
 Using internal parameter file: .param_gbsa2_water
 Gsolv ref. state (COSMO-RS): gsolv [1 M gas/solution]
 temperature (mdtemp)       :    298.14999999999998     
 dielectric constant        :    80.200000000000003     
 rho                        :    1.0000000000000000     
 mass                       :    18.000000000000000     
 surface tension            :    15.568945408385856     
 probe radius               :   0.97531378999999996     
 Gshift (Eh)                :    1.8574431267947933E-003
 c1                         :    1.5524381700000001     
 soset                      :   0.13032636000000000     
 HB correction              :  T
           ------------------------------------------------- 
          |        Self-Consistent Charge Iterations        |
           ------------------------------------------------- 

          ...................................................
          :                      SETUP                      :
          :.................................................:
          :  # basis functions                6545          :
          :  # atomic orbitals                6539          :
          :  # shells                         3919          :
          :  # electrons                      7228          :
          :  max. iterations                   250          :
          :  Hamiltonian                  GFN2-xTB          :
          :  restarted?                      false          :
          :  GBSA solvation                   true          :
          :  PC potential                    false          :
          :  electronic temp.          300.0000000     K    :
          :  accuracy                    1.0000000          :
          :  -> integral cutoff          0.2500000E+02      :
          :  -> integral neglect         0.1000000E-07      :
          :  -> SCF convergence          0.1000000E-05 Eh   :
          :  -> wf. convergence          0.1000000E-03 e    :
          :  Broyden damping             0.4000000          :
          ...................................................

 iter      E             dE          RMSdq      gap      omega  full diag
   1  -4140.7105413 -0.414071E+04  0.428E+00    2.15       0.0  T
   2  -4152.9823315 -0.122718E+02  0.227E+00    2.18       1.0  T
   3  -4153.4699347 -0.487603E+00  0.120E+00    2.31       1.0  T
   4  -4153.5377457 -0.678110E-01  0.296E-01    1.97       1.0  T
   5  -4153.6482264 -0.110481E+00  0.147E-01    1.89       1.0  T
   6  -4153.6647281 -0.165017E-01  0.775E-02    1.95       1.0  T
   7  -4153.6679688 -0.324074E-02  0.407E-02    1.96       1.0  T
   8  -4153.6692266 -0.125773E-02  0.182E-02    1.90       1.0  T
   9  -4153.6694540 -0.227403E-03  0.112E-02    1.89       1.0  T
  10  -4153.6695628 -0.108804E-03  0.599E-03    1.87       1.0  T
  11  -4153.6695940 -0.311848E-04  0.310E-03    1.87       1.0  T
  12  -4153.6696037 -0.974017E-05  0.170E-03    1.86       1.2  T
  13  -4153.6696064 -0.271905E-05  0.939E-04    1.86       2.1  T
  14  -4153.6696072 -0.823973E-06  0.491E-04    1.86       4.0  T
  15  -4153.6696075 -0.236487E-06  0.246E-04    1.86       8.0  T

   *** convergence criteria satisfied after 15 iterations ***

         #    Occupation            Energy/Eh            Energy/eV
      -------------------------------------------------------------
         1        2.0000           -0.7680917             -20.9008
       ...           ...                  ...                  ...
      3608        2.0000           -0.3617782              -9.8445
      3609        2.0000           -0.3615171              -9.8374
      3610        2.0000           -0.3592903              -9.7768
      3611        2.0000           -0.3564449              -9.6994
      3612        2.0000           -0.3545908              -9.6489
      3613        2.0000           -0.3533940              -9.6163
      3614        2.0000           -0.3531737              -9.6103 (HOMO)
      3615                         -0.2849922              -7.7550 (LUMO)
      3616                         -0.2735887              -7.4447
      3617                         -0.2725785              -7.4172
      3618                         -0.2715586              -7.3895
      3619                         -0.2709372              -7.3726
       ...                                ...                  ...
      6539                          0.7996345              21.7592
      -------------------------------------------------------------
                  HL-Gap            0.0681814 Eh            1.8553 eV
             Fermi-level           -0.3190830 Eh           -8.6827 eV

 SCC (total)                   0 d,  0 h,  6 min, 45.935 sec
 SCC setup                      ...        0 min,  3.178 sec (  0.783%)
 Dispersion                     ...        0 min,  1.961 sec (  0.483%)
 integral evaluation            ...        0 min, 12.494 sec (  3.078%)
 zeroth order Hamiltonian       ...        0 min,  0.348 sec (  0.086%)
 iterations                     ...        6 min,  9.805 sec ( 91.100%)
 molecular gradient             ...        0 min, 17.589 sec (  4.333%)
 printout                       ...        0 min,  0.559 sec (  0.138%)

         :::::::::::::::::::::::::::::::::::::::::::::::::::::
         ::                     SUMMARY                     ::
         :::::::::::::::::::::::::::::::::::::::::::::::::::::
         :: total energy           -4105.184227306357 Eh    ::
         :: total w/o Gsasa/hb     -4104.802454954516 Eh    ::
         :: gradient norm              1.342534194593 Eh/a0 ::
         :: HOMO-LUMO gap              1.855311443876 eV    ::
         ::.................................................::
         :: SCC energy             -4153.733696833603 Eh    ::
         :: -> isotropic ES           13.973870957145 Eh    ::
         :: -> anisotropic ES         -0.762621669336 Eh    ::
         :: -> anisotropic XC          1.166045065637 Eh    ::
         :: -> dispersion             -3.951780236066 Eh    ::
         :: -> Gsolv                  -3.883884715520 Eh    ::
         ::    -> Gborn               -3.502112363679 Eh    ::
         ::    -> Gsasa               -0.065946802545 Eh    ::
         ::    -> Ghb                 -0.317682992422 Eh    ::
         ::    -> Gshift               0.001857443127 Eh    ::
         :: repulsion energy          47.992241980687 Eh    ::
         :: add. restraining           0.000000000000 Eh    ::
         :::::::::::::::::::::::::::::::::::::::::::::::::::::

           -------------------------------------------------
          |                Property Printout                |
           -------------------------------------------------

    * Orbital Energies and Occupations

         #    Occupation            Energy/Eh            Energy/eV
      -------------------------------------------------------------
         1        2.0000           -0.7680917             -20.9008
       ...           ...                  ...                  ...
      3602        2.0000           -0.3648214              -9.9273
      3603        2.0000           -0.3647569              -9.9255
      3604        2.0000           -0.3633255              -9.8866
      3605        2.0000           -0.3632795              -9.8853
      3606        2.0000           -0.3630135              -9.8781
      3607        2.0000           -0.3619826              -9.8500
      3608        2.0000           -0.3617782              -9.8445
      3609        2.0000           -0.3615171              -9.8374
      3610        2.0000           -0.3592903              -9.7768
      3611        2.0000           -0.3564449              -9.6994
      3612        2.0000           -0.3545908              -9.6489
      3613        2.0000           -0.3533940              -9.6163
      3614        2.0000           -0.3531737              -9.6103 (HOMO)
      3615                         -0.2849922              -7.7550 (LUMO)
      3616                         -0.2735887              -7.4447
      3617                         -0.2725785              -7.4172
      3618                         -0.2715586              -7.3895
      3619                         -0.2709372              -7.3726
      3620                         -0.2700395              -7.3481
      3621                         -0.2700321              -7.3479
      3622                         -0.2672467              -7.2722
      3623                         -0.2651434              -7.2149
      3624                         -0.2648273              -7.2063
      3625                         -0.2647896              -7.2053
       ...                                ...                  ...
      6539                          0.7996345              21.7592
      -------------------------------------------------------------
                  HL-Gap            0.0681814 Eh            1.8553 eV
             Fermi-level           -0.3190830 Eh           -8.6827 eV

     #   Z        covCN         q      C6AA      α(0)
     1   7 N      3.489    -0.157    24.384     7.334
     2   1 H      0.860     0.303     0.703     1.314
     3   1 H      0.860     0.307     0.692     1.303
     4   1 H      0.860     0.305     0.700     1.310
     5   6 C      3.791    -0.033    21.180     6.554
     6   1 H      0.925     0.123     1.593     1.974
     7   6 C      3.829    -0.084    22.086     6.687
     8   1 H      0.924     0.090     1.875     2.142
     9   1 H      0.924     0.078     1.996     2.209
    10   6 C      3.795    -0.019    20.924     6.514
    11   1 H      0.925     0.058     2.221     2.330
    12   1 H      0.925     0.070     2.086     2.258
    13  16 S      1.963    -0.179   148.633    20.519
    14   6 C      3.737    -0.068    21.882     6.675
    15   1 H      0.924     0.054     2.271     2.357
    16   1 H      0.925     0.051     2.306     2.375
    17   1 H      0.925     0.045     2.390     2.417
    18   6 C      2.752     0.278    22.294     7.732
    19   8 O      0.863    -0.431    22.309     6.333
    20   7 N      2.698    -0.157    24.398     7.336
    21   1 H      0.860     0.208     1.064     1.616
    22   6 C      3.784     0.015    20.335     6.423
    23   1 H      0.925     0.112     1.678     2.026
    24   6 C      3.816    -0.128    22.938     6.816
    25   1 H      0.925     0.106     1.728     2.056
    26   1 H      0.924     0.101     1.774     2.083
    27   6 C      2.743     0.297    21.966     7.674
    28   8 O      0.909    -0.556    25.035     6.710
    29   7 N      2.698    -0.248    26.464     7.640
    30   1 H      0.861     0.235     0.944     1.522
    31   1 H      0.860     0.239     0.927     1.508
    32   6 C      2.743     0.273    22.379     7.746
    33   8 O      0.858    -0.458    22.866     6.411
    34   7 N      2.677    -0.210    25.565     7.509
    35   1 H      0.860     0.217     1.022     1.583
    36   6 C      3.782     0.021    20.248     6.410
    37   1 H      0.924     0.082     1.962     2.190
    38   6 C      3.843    -0.035    21.176     6.546
    39   1 H      0.924     0.082     1.961     2.190
    40   6 C      3.742    -0.133    23.133     6.862
    41   1 H      0.925     0.070     2.082     2.256
    42   1 H      0.924     0.036     2.502     2.474
    43   1 H      0.925     0.053     2.286     2.364
    44   6 C      3.791    -0.075    21.947     6.672
    45   1 H      0.924     0.036     2.500     2.473
    46   1 H      0.925     0.064     2.156     2.296
    47   6 C      3.741    -0.124    22.958     6.836
    48   1 H      0.925     0.060     2.198     2.318
    49   1 H      0.925     0.025     2.654     2.547
    50   1 H      0.924     0.053     2.278     2.360
    51   6 C      2.744     0.273    22.379     7.746
    52   8 O      0.862    -0.498    23.745     6.533
    53   7 N      2.687    -0.174    24.764     7.391
    54   1 H      0.860     0.211     1.052     1.607
    55   6 C      3.779     0.018    20.288     6.417
    56   1 H      0.925     0.095     1.834     2.118
    57   6 C      3.806    -0.078    21.976     6.674
    58   1 H      0.924     0.059     2.210     2.325
    59   1 H      0.925     0.064     2.148     2.292
    60   6 C      2.958     0.007    27.857     8.657
    61   6 C      2.917    -0.046    29.148     8.853
    62   1 H      0.926     0.038     2.481     2.463
    63   6 C      2.925    -0.035    28.870     8.811
    64   1 H      0.926     0.022     2.708     2.573
    65   6 C      2.907    -0.034    28.858     8.809
    66   1 H      0.926     0.047     2.364     2.404
    67   6 C      2.922    -0.035    28.865     8.810
    68   1 H      0.926     0.065     2.139     2.287
    69   6 C      2.906    -0.042    29.055     8.838
    70   1 H      0.926     0.053     2.287     2.365
    71   6 C      2.743     0.268    22.480     7.763
    72   8 O      0.864    -0.485    23.450     6.493
    73   7 N      2.689    -0.169    24.656     7.375
    74   1 H      0.860     0.208     1.068     1.619
    75   6 C      3.770     0.017    20.316     6.423
    76   1 H      0.925     0.092     1.859     2.132
    77   6 C      3.790    -0.061    21.685     6.632
    78   1 H      0.925     0.057     2.229     2.335
    79   1 H      0.925     0.064     2.151     2.294
    80   6 C      3.797    -0.091    22.233     6.714
    81   1 H      0.925     0.037     2.491     2.468
    82   1 H      0.924     0.023     2.693     2.566
    83   6 C      2.688     0.366    20.791     7.462
    84   8 O      0.858    -0.638    27.082     6.977
    85   8 O      0.857    -0.662    27.694     7.056
    86   6 C      2.739     0.263    22.562     7.777
    87   8 O      0.864    -0.478    23.298     6.472
    88   7 N      2.684    -0.190    25.126     7.445
    89   1 H      0.860     0.221     1.006     1.571
    90   6 C      3.775     0.013    20.387     6.433
    91   1 H      0.925     0.090     1.875     2.141
    92   6 C      3.825    -0.075    21.916     6.662
    93   1 H      0.925     0.062     2.175     2.307
    94   1 H      0.924     0.082     1.957     2.188
    95   6 C      3.792    -0.014    20.833     6.500
    96   1 H      0.925     0.060     2.204     2.322
    97   1 H      0.925     0.042     2.427     2.436
    98  16 S      1.975    -0.197   149.442    20.575
    99   6 C      3.746    -0.064    21.801     6.660
   100   1 H      0.925     0.070     2.081     2.256
   101   1 H      0.925     0.046     2.375     2.410
   102   1 H      0.925     0.074     2.037     2.232
   103   6 C      2.752     0.263    22.573     7.780
   104   8 O      0.860    -0.526    24.370     6.619
   105   7 N      2.695    -0.157    24.397     7.336
   106   1 H      0.860     0.227     0.978     1.549
   107   6 C      3.795     0.024    20.183     6.397
   108   1 H      0.925     0.074     2.045     2.237
   109   6 C      3.803    -0.084    22.092     6.692
   110   1 H      0.925     0.053     2.285     2.364
   111   1 H      0.925     0.076     2.017     2.221
   112   6 C      3.847    -0.015    20.806     6.488
   113   1 H      0.925     0.047     2.354     2.399
   114   6 C      3.754    -0.125    22.951     6.831
   115   1 H      0.925     0.049     2.335     2.389
   116   1 H      0.925     0.038     2.473     2.459
   117   1 H      0.925     0.069     2.098     2.265
   118   6 C      3.753    -0.110    22.663     6.789
   119   1 H      0.924     0.040     2.454     2.450
   120   1 H      0.925     0.029     2.608     2.525
   121   1 H      0.924     0.019     2.747     2.592
   122   6 C      2.755     0.275    22.347     7.741
   123   8 O      0.861    -0.489    23.542     6.505
   124   7 N      2.694    -0.182    24.943     7.418
   125   1 H      0.860     0.209     1.059     1.612
   126   6 C      3.802     0.027    20.116     6.385
   127   1 H      0.925     0.083     1.950     2.184
   128   6 C      3.814    -0.090    22.201     6.706
   129   1 H      0.924     0.061     2.185     2.312
   130   1 H      0.924     0.092     1.859     2.132
   131   6 C      3.803    -0.078    21.991     6.676
   132   1 H      0.925     0.066     2.133     2.284
   133   1 H      0.924     0.074     2.043     2.235
   134   6 C      3.740    -0.028    21.157     6.563
   135   1 H      0.924     0.087     1.904     2.158
   136   1 H      0.925     0.083     1.944     2.180
   137   7 N      2.730    -0.179    24.865     7.406
   138   1 H      0.860     0.230     0.967     1.540
   139   6 C      2.734     0.254    22.733     7.806
   140   7 N      2.692    -0.268    26.939     7.709
   141   1 H      0.860     0.251     0.878     1.468
   142   1 H      0.860     0.223     0.994     1.562
   143   7 N      2.732    -0.282    27.271     7.756
   144   1 H      0.861     0.264     0.832     1.429
   145   1 H      0.860     0.217     1.024     1.585
   146   6 C      2.752     0.260    22.613     7.787
   147   8 O      0.857    -0.506    23.907     6.556
   148   7 N      2.690    -0.180    24.893     7.410
   149   1 H      0.860     0.215     1.031     1.590
   150   6 C      3.789     0.010    20.427     6.437
   151   1 H      0.925     0.099     1.796     2.095
   152   6 C      3.853    -0.029    21.046     6.525
   153   1 H      0.925     0.051     2.305     2.374
   154   6 C      3.747    -0.118    22.826     6.815
   155   1 H      0.925     0.045     2.383     2.414
   156   1 H      0.925     0.059     2.205     2.322
   157   1 H      0.924     0.034     2.535     2.490
   158   6 C      3.812    -0.062    21.679     6.627
   159   1 H      0.925     0.044     2.393     2.419
   160   1 H      0.925     0.047     2.361     2.403
   161   6 C      3.755    -0.115    22.754     6.802
   162   1 H      0.924     0.042     2.419     2.432
   163   1 H      0.925     0.044     2.393     2.419
   164   1 H      0.925     0.044     2.395     2.420
   165   6 C      2.742     0.277    22.314     7.734
   166   8 O      0.858    -0.449    22.681     6.385
   167   7 N      2.679    -0.204    25.429     7.489
   168   1 H      0.860     0.179     1.221     1.731
   169   6 C      3.776     0.025    20.184     6.401
   170   1 H      0.925     0.089     1.889     2.150
   171   6 C      3.798    -0.084    22.114     6.696
   172   1 H      0.924     0.036     2.505     2.475
   173   1 H      0.925     0.022     2.704     2.572
   174   6 C      2.684     0.373    20.686     7.443
   175   8 O      0.857    -0.568    25.340     6.749
   176   8 O      0.856    -0.594    25.963     6.832
   177   6 C      2.743     0.273    22.382     7.746
   178   8 O      0.860    -0.488    23.522     6.502
   179   7 N      2.678    -0.218    25.745     7.536
   180   1 H      0.860     0.211     1.049     1.605
   181   6 C      3.784     0.029    20.107     6.387
   182   1 H      0.924     0.088     1.899     2.155
   183   6 C      3.810    -0.051    21.478     6.597
   184   1 H      0.924     0.060     2.199     2.319
   185   1 H      0.925     0.040     2.445     2.445
   186   6 C      3.795    -0.093    22.288     6.723
   187   1 H      0.925     0.020     2.731     2.584
   188   1 H      0.925     0.037     2.491     2.468
   189   6 C      2.679     0.356    20.956     7.491
   190   8 O      0.856    -0.641    27.141     6.985
   191   8 O      0.857    -0.593    25.956     6.831
   192   6 C      2.754     0.267    22.490     7.766
   193   8 O      0.866    -0.519    24.205     6.596
   194   7 N      2.689    -0.138    23.989     7.274
   195   1 H      0.860     0.201     1.101     1.644
   196   6 C      3.741    -0.034    21.260     6.578
   197   1 H      0.925     0.084     1.942     2.179
   198   1 H      0.924     0.103     1.756     2.072
   199   6 C      2.753     0.272    22.410     7.752
   200   8 O      0.858    -0.511    24.039     6.574
   201   7 N      2.691    -0.137    23.974     7.272
   202   1 H      0.860     0.216     1.028     1.589
   203   6 C      3.785     0.023    20.202     6.402
   204   1 H      0.924     0.056     2.241     2.341
   205   6 C      3.801    -0.081    22.055     6.686
   206   1 H      0.925     0.060     2.204     2.321
   207   1 H      0.925     0.067     2.114     2.274
   208   6 C      3.850    -0.016    20.829     6.491
   209   1 H      0.925     0.040     2.446     2.446
   210   6 C      3.757    -0.126    22.971     6.833
   211   1 H      0.925     0.044     2.397     2.421
   212   1 H      0.924     0.021     2.720     2.579
   213   1 H      0.925     0.061     2.185     2.312
   214   6 C      3.757    -0.130    23.048     6.845
   215   1 H      0.925     0.061     2.184     2.311
   216   1 H      0.924     0.046     2.367     2.406
   217   1 H      0.924     0.054     2.272     2.357
   218   6 C      2.737     0.235    23.075     7.865
   219   8 O      0.855    -0.485    23.467     6.495
   220   7 N      2.683    -0.167    24.608     7.368
   221   1 H      0.860     0.215     1.032     1.592
   222   6 C      3.799     0.002    20.555     6.455
   223   1 H      0.925     0.098     1.806     2.102
   224   6 C      3.809    -0.090    22.201     6.707
   225   1 H      0.925     0.094     1.842     2.123
   226   1 H      0.924     0.067     2.115     2.274
   227   6 C      3.803    -0.092    22.250     6.715
   228   1 H      0.924     0.064     2.153     2.295
   229   1 H      0.924     0.095     1.833     2.117
   230   6 C      3.732    -0.035    21.292     6.586
   231   1 H      0.924     0.105     1.742     2.064
   232   1 H      0.924     0.094     1.836     2.119
   233   7 N      2.716    -0.158    24.412     7.338
   234   1 H      0.860     0.210     1.054     1.609
   235   6 C      2.733     0.237    23.035     7.858
   236   7 N      2.669    -0.243    26.351     7.624
   237   1 H      0.860     0.254     0.870     1.461
   238   1 H      0.860     0.270     0.811     1.411
   239   7 N      2.695    -0.257    26.669     7.670
   240   1 H      0.860     0.246     0.900     1.486
   241   1 H      0.860     0.216     1.027     1.588
   242   6 C      2.746     0.267    22.489     7.765
   243   8 O      0.862    -0.448    22.663     6.383
   244   7 N      2.699    -0.175    24.778     7.393
   245   1 H      0.860     0.210     1.055     1.609
   246   6 C      3.782     0.012    20.402     6.434
   247   1 H      0.924     0.086     1.921     2.168
   248   6 C      3.803    -0.085    22.113     6.695
   249   1 H      0.925     0.091     1.867     2.137
   250   1 H      0.925     0.058     2.228     2.334
   251   6 C      3.851    -0.012    20.761     6.481
   252   1 H      0.925     0.043     2.408     2.427
   253   6 C      3.759    -0.124    22.925     6.826
   254   1 H      0.925     0.045     2.388     2.417
   255   1 H      0.925     0.046     2.366     2.406
   256   1 H      0.924     0.045     2.380     2.412
   257   6 C      3.758    -0.118    22.821     6.811
   258   1 H      0.925     0.037     2.490     2.468
   259   1 H      0.924     0.046     2.365     2.405
   260   1 H      0.925     0.030     2.586     2.515
   261   6 C      2.740     0.256    22.697     7.800
   262   8 O      0.856    -0.456    22.836     6.407
   263   7 N      2.686    -0.170    24.681     7.378
   264   1 H      0.860     0.189     1.161     1.688
   265   6 C      3.786     0.015    20.331     6.422
   266   1 H      0.925     0.081     1.964     2.192
   267   6 C      3.808    -0.086    22.141     6.698
   268   1 H      0.924     0.062     2.179     2.308
   269   1 H      0.924     0.071     2.079     2.255
   270   6 C      3.799    -0.080    22.027     6.682
   271   1 H      0.924     0.060     2.200     2.319
   272   1 H      0.924     0.071     2.072     2.251
   273   6 C      3.800    -0.097    22.347     6.731
   274   1 H      0.924     0.081     1.969     2.194
   275   1 H      0.924     0.080     1.980     2.201
   276   6 C      3.722    -0.057    21.718     6.655
   277   1 H      0.924     0.125     1.575     1.963
   278   1 H      0.925     0.135     1.499     1.915
   279   7 N      3.483    -0.153    24.305     7.322
   280   1 H      0.860     0.299     0.715     1.325
   281   1 H      0.860     0.293     0.736     1.344
   282   1 H      0.860     0.292     0.738     1.346
   283   6 C      2.747     0.259    22.643     7.792
   284   8 O      0.860    -0.519    24.213     6.597
   285   7 N      2.685    -0.159    24.443     7.343
   286   1 H      0.860     0.232     0.956     1.532
   287   6 C      3.776     0.005    20.517     6.454
   288   1 H      0.924     0.057     2.240     2.340
   289   6 C      3.835    -0.030    21.091     6.534
   290   1 H      0.924     0.055     2.259     2.350
   291   6 C      3.747    -0.138    23.229     6.875
   292   1 H      0.925     0.067     2.115     2.275
   293   1 H      0.925     0.059     2.208     2.324
   294   1 H      0.925     0.070     2.085     2.258
   295   6 C      3.799    -0.066    21.770     6.643
   296   1 H      0.925     0.025     2.653     2.547
   297   1 H      0.924     0.047     2.364     2.404
   298   6 C      3.751    -0.124    22.936     6.830
   299   1 H      0.924     0.031     2.575     2.509
   300   1 H      0.925     0.073     2.052     2.240
   301   1 H      0.925     0.041     2.433     2.439
   302   6 C      2.742     0.279    22.271     7.727
   303   8 O      0.863    -0.481    23.363     6.481
   304   7 N      2.686    -0.157    24.407     7.337
   305   1 H      0.860     0.215     1.035     1.594
   306   6 C      3.770     0.011    20.433     6.442
   307   1 H      0.924     0.107     1.726     2.055
   308   6 C      3.803    -0.095    22.301     6.723
   309   1 H      0.924     0.094     1.839     2.121
   310   1 H      0.925     0.081     1.968     2.194
   311   6 C      2.956    -0.001    28.049     8.687
   312   6 C      2.920    -0.055    29.366     8.887
   313   1 H      0.926     0.052     2.296     2.370
   314   6 C      2.909    -0.083    30.081     8.993
   315   1 H      0.926     0.023     2.686     2.563
   316   6 C      2.852     0.135    25.040     8.202
   317   8 O      1.662    -0.438    21.603     6.275
   318   1 H      0.806     0.311     0.690     1.305
   319   6 C      2.913    -0.065    29.626     8.925
   320   1 H      0.926     0.047     2.359     2.402
   321   6 C      2.929    -0.045    29.127     8.851
   322   1 H      0.926     0.080     1.974     2.197
   323   6 C      2.739     0.267    22.489     7.765
   324   8 O      0.861    -0.484    23.433     6.490
   325   7 N      2.685    -0.157    24.392     7.335
   326   1 H      0.860     0.221     1.003     1.569
   327   6 C      3.789     0.012    20.387     6.431
   328   1 H      0.924     0.075     2.035     2.231
   329   6 C      3.808    -0.076    21.952     6.669
   330   1 H      0.924     0.045     2.384     2.415
   331   1 H      0.924     0.077     2.008     2.216
   332   6 C      3.801    -0.075    21.928     6.667
   333   1 H      0.924     0.071     2.079     2.255
   334   1 H      0.924     0.047     2.359     2.402
   335   6 C      3.804    -0.099    22.394     6.737
   336   1 H      0.925     0.064     2.152     2.294
   337   1 H      0.925     0.090     1.881     2.145
   338   6 C      3.728    -0.072    21.985     6.694
   339   1 H      0.925     0.134     1.507     1.920
   340   1 H      0.925     0.133     1.514     1.924
   341   7 N      3.487    -0.151    24.256     7.315
   342   1 H      0.860     0.306     0.696     1.307
   343   1 H      0.860     0.291     0.741     1.348
   344   1 H      0.860     0.302     0.707     1.317
   345   6 C      2.759     0.275    22.347     7.741
   346   8 O      0.861    -0.493    23.620     6.516
   347   7 N      2.694    -0.179    24.884     7.409
   348   1 H      0.860     0.203     1.093     1.637
   349   6 C      3.786     0.036    19.976     6.366
   350   1 H      0.925     0.080     1.978     2.199
   351   6 C      3.797    -0.104    22.492     6.753
   352   1 H      0.925     0.028     2.610     2.526
   353   1 H      0.924     0.045     2.380     2.413
   354   6 C      2.678     0.371    20.714     7.448
   355   8 O      0.857    -0.612    26.417     6.891
   356   8 O      0.857    -0.632    26.920     6.956
   357   6 C      2.745     0.263    22.570     7.779
   358   8 O      0.857    -0.488    23.526     6.503
   359   7 N      2.683    -0.204    25.435     7.490
   360   1 H      0.860     0.212     1.047     1.603
   361   6 C      3.784     0.010    20.424     6.437
   362   1 H      0.925     0.090     1.877     2.143
   363   6 C      3.731     0.114    18.800     6.189
   364   1 H      0.924     0.046     2.365     2.405
   365   6 C      3.753    -0.147    23.397     6.898
   366   1 H      0.925     0.073     2.049     2.239
   367   1 H      0.924     0.064     2.154     2.295
   368   1 H      0.925     0.071     2.074     2.252
   369   8 O      1.656    -0.476    22.386     6.387
   370   1 H      0.807     0.323     0.655     1.271
   371   6 C      2.750     0.275    22.342     7.740
   372   8 O      0.860    -0.503    23.843     6.547
   373   7 N      2.686    -0.173    24.755     7.389
   374   1 H      0.860     0.192     1.147     1.677
   375   6 C      3.792     0.030    20.075     6.381
   376   1 H      0.924     0.081     1.970     2.195
   377   6 C      3.808    -0.051    21.477     6.597
   378   1 H      0.925     0.071     2.074     2.252
   379   1 H      0.925     0.031     2.567     2.505
   380   6 C      3.813    -0.093    22.268     6.717
   381   1 H      0.924     0.020     2.735     2.586
   382   1 H      0.925     0.009     2.914     2.669
   383   6 C      2.690     0.379    20.581     7.425
   384   8 O      0.859    -0.615    26.487     6.900
   385   8 O      0.858    -0.626    26.768     6.937
   386   6 C      2.742     0.269    22.452     7.758
   387   8 O      0.861    -0.462    22.948     6.423
   388   7 N      2.680    -0.199    25.316     7.473
   389   1 H      0.860     0.199     1.111     1.651
   390   6 C      3.731    -0.036    21.321     6.591
   391   1 H      0.925     0.111     1.691     2.034
   392   1 H      0.925     0.105     1.736     2.060
   393   6 C      2.743     0.267    22.488     7.765
   394   8 O      0.857    -0.438    22.449     6.352
   395   7 N      2.692    -0.147    24.185     7.304
   396   1 H      0.860     0.179     1.221     1.731
   397   6 C      3.793     0.025    20.164     6.395
   398   1 H      0.925     0.078     1.998     2.211
   399   6 C      3.813    -0.071    21.851     6.653
   400   1 H      0.924     0.075     2.031     2.229
   401   1 H      0.924     0.038     2.475     2.460
   402   6 C      2.946     0.000    28.023     8.682
   403   6 C      2.947    -0.043    29.079     8.844
   404   1 H      0.926     0.024     2.674     2.557
   405   6 C      2.912    -0.064    29.591     8.920
   406   1 H      0.926     0.055     2.264     2.353
   407   6 C      2.852     0.157    24.605     8.130
   408   8 O      1.661    -0.439    21.613     6.276
   409   1 H      0.805     0.359     0.568     1.183
   410   6 C      2.909    -0.080    29.995     8.981
   411   1 H      0.926     0.064     2.153     2.295
   412   6 C      2.924    -0.042    29.042     8.838
   413   1 H      0.926     0.047     2.354     2.399
   414   6 C      2.760     0.271    22.418     7.754
   415   8 O      0.858    -0.505    23.906     6.555
   416   7 N      2.691    -0.160    24.461     7.345
   417   1 H      0.860     0.220     1.009     1.573
   418   6 C      3.797     0.023    20.195     6.399
   419   1 H      0.925     0.081     1.974     2.197
   420   6 C      3.820    -0.075    21.910     6.661
   421   1 H      0.925     0.069     2.093     2.262
   422   1 H      0.925     0.048     2.345     2.395
   423   6 C      2.973    -0.021    28.518     8.760
   424   6 C      2.927    -0.047    29.159     8.856
   425   1 H      0.926     0.030     2.579     2.512
   426   6 C      2.905    -0.074    29.837     8.957
   427   1 H      0.926     0.037     2.485     2.465
   428   6 C      2.858     0.134    25.070     8.207
   429   8 O      1.661    -0.423    21.304     6.231
   430   1 H      0.808     0.355     0.576     1.192
   431   6 C      2.917    -0.069    29.726     8.941
   432   1 H      0.926     0.087     1.904     2.158
   433   6 C      2.916    -0.041    29.025     8.835
   434   1 H      0.926     0.067     2.114     2.274
   435   6 C      2.749     0.264    22.543     7.775
   436   8 O      0.861    -0.516    24.142     6.588
   437   7 N      2.693    -0.158    24.421     7.339
   438   1 H      0.860     0.242     0.917     1.500
   439   6 C      3.792     0.001    20.575     6.460
   440   1 H      0.925     0.085     1.928     2.171
   441   6 C      3.729     0.123    18.670     6.168
   442   1 H      0.925     0.013     2.838     2.634
   443   6 C      3.746    -0.111    22.685     6.794
   444   1 H      0.925     0.052     2.298     2.371
   445   1 H      0.924     0.039     2.462     2.454
   446   1 H      0.925     0.040     2.445     2.445
   447   8 O      1.657    -0.485    22.575     6.414
   448   1 H      0.805     0.314     0.681     1.296
   449   6 C      2.764     0.258    22.651     7.794
   450   8 O      0.859    -0.447    22.636     6.379
   451   7 N      2.690    -0.163    24.522     7.355
   452   1 H      0.860     0.215     1.031     1.591
   453   6 C      3.801     0.001    20.560     6.456
   454   1 H      0.924     0.100     1.787     2.090
   455   6 C      3.838    -0.037    21.203     6.551
   456   1 H      0.924     0.074     2.037     2.232
   457   6 C      3.743    -0.125    22.984     6.839
   458   1 H      0.925     0.043     2.406     2.426
   459   1 H      0.924     0.059     2.206     2.322
   460   1 H      0.925     0.032     2.563     2.503
   461   6 C      3.792    -0.090    22.219     6.713
   462   1 H      0.925     0.058     2.228     2.334
   463   1 H      0.924     0.063     2.161     2.299
   464   6 C      3.743    -0.127    23.020     6.845
   465   1 H      0.925     0.056     2.246     2.344
   466   1 H      0.925     0.055     2.259     2.351
   467   1 H      0.925     0.047     2.353     2.399
   468   6 C      2.760     0.268    22.477     7.764
   469   8 O      0.859    -0.502    23.835     6.546
   470   7 N      2.688    -0.177    24.839     7.402
   471   1 H      0.860     0.253     0.871     1.462
   472   6 C      3.752    -0.032    21.210     6.568
   473   1 H      0.925     0.066     2.132     2.283
   474   1 H      0.925     0.105     1.737     2.061
   475   6 C      2.748     0.274    22.367     7.744
   476   8 O      0.859    -0.457    22.847     6.408
   477   7 N      2.690    -0.186    25.020     7.429
   478   1 H      0.860     0.198     1.119     1.657
   479   6 C      3.793     0.019    20.264     6.410
   480   1 H      0.925     0.085     1.928     2.171
   481   6 C      3.853    -0.010    20.723     6.475
   482   1 H      0.925     0.039     2.467     2.456
   483   6 C      3.753    -0.100    22.469     6.759
   484   1 H      0.925     0.050     2.317     2.381
   485   1 H      0.925     0.037     2.496     2.470
   486   1 H      0.925     0.017     2.784     2.609
   487   6 C      3.804    -0.067    21.774     6.643
   488   1 H      0.925     0.045     2.385     2.415
   489   1 H      0.924     0.058     2.224     2.332
   490   6 C      3.748    -0.117    22.813     6.812
   491   1 H      0.925     0.031     2.576     2.510
   492   1 H      0.925     0.059     2.205     2.322
   493   1 H      0.924     0.049     2.327     2.385
   494   6 C      2.754     0.277    22.315     7.735
   495   8 O      0.864    -0.462    22.964     6.425
   496   7 N      2.687    -0.187    25.054     7.434
   497   1 H      0.860     0.212     1.047     1.603
   498   6 C      3.736    -0.016    20.952     6.532
   499   1 H      0.925     0.079     1.984     2.203
   500   1 H      0.925     0.093     1.850     2.127
   501   6 C      2.744     0.275    22.342     7.739
   502   8 O      0.862    -0.505    23.891     6.553
   503   7 N      2.683    -0.183    24.975     7.422
   504   1 H      0.860     0.234     0.948     1.525
   505   6 C      3.786     0.031    20.073     6.381
   506   1 H      0.924     0.056     2.250     2.346
   507   6 C      3.803    -0.083    22.085     6.691
   508   1 H      0.924     0.124     1.585     1.969
   509   1 H      0.924     0.089     1.892     2.151
   510   6 C      3.043     0.065    26.506     8.444
   511   7 N      2.870    -0.019    21.614     6.905
   512   1 H      0.860     0.243     0.913     1.496
   513   6 C      3.016     0.077    26.260     8.406
   514   1 H      0.926     0.138     1.475     1.899
   515   7 N      2.793    -0.020    21.635     6.908
   516   1 H      0.860     0.275     0.793     1.395
   517   6 C      3.090    -0.020    28.386     8.733
   518   1 H      0.926     0.126     1.564     1.955
   519   6 C      2.757     0.262    22.574     7.780
   520   8 O      0.865    -0.472    23.173     6.454
   521   7 N      2.698    -0.139    24.009     7.277
   522   1 H      0.860     0.196     1.126     1.662
   523   6 C      3.792     0.021    20.226     6.405
   524   1 H      0.925     0.084     1.943     2.180
   525   6 C      3.814    -0.081    22.027     6.680
   526   1 H      0.925     0.054     2.274     2.358
   527   1 H      0.925     0.051     2.303     2.373
   528   6 C      3.852    -0.012    20.755     6.480
   529   1 H      0.925     0.024     2.680     2.560
   530   6 C      3.755    -0.125    22.957     6.832
   531   1 H      0.925     0.068     2.111     2.272
   532   1 H      0.925     0.053     2.283     2.363
   533   1 H      0.925     0.037     2.496     2.471
   534   6 C      3.763    -0.128    23.004     6.837
   535   1 H      0.924     0.066     2.133     2.284
   536   1 H      0.924     0.041     2.431     2.438
   537   1 H      0.925     0.048     2.344     2.394
   538   6 C      2.744     0.262    22.584     7.781
   539   8 O      0.857    -0.491    23.595     6.513
   540   7 N      2.686    -0.184    24.980     7.423
   541   1 H      0.860     0.225     0.985     1.555
   542   6 C      3.788     0.021    20.230     6.406
   543   1 H      0.924     0.081     1.972     2.196
   544   6 C      3.803    -0.080    22.026     6.681
   545   1 H      0.925     0.049     2.330     2.387
   546   1 H      0.924     0.061     2.189     2.314
   547   6 C      3.844    -0.014    20.790     6.486
   548   1 H      0.925     0.041     2.439     2.442
   549   6 C      3.756    -0.128    23.015     6.840
   550   1 H      0.924     0.047     2.355     2.400
   551   1 H      0.924     0.070     2.091     2.261
   552   1 H      0.925     0.056     2.249     2.345
   553   6 C      3.758    -0.114    22.740     6.799
   554   1 H      0.924     0.058     2.228     2.334
   555   1 H      0.925     0.011     2.872     2.650
   556   1 H      0.925     0.043     2.404     2.424
   557   6 C      2.753     0.276    22.335     7.739
   558   8 O      0.860    -0.496    23.701     6.527
   559   7 N      2.690    -0.194    25.201     7.456
   560   1 H      0.860     0.216     1.026     1.587
   561   6 C      3.790     0.023    20.204     6.402
   562   1 H      0.924     0.062     2.179     2.308
   563   6 C      3.725     0.115    18.799     6.191
   564   1 H      0.924     0.022     2.696     2.568
   565   6 C      3.745    -0.128    23.024     6.845
   566   1 H      0.925     0.050     2.316     2.380
   567   1 H      0.925     0.065     2.138     2.286
   568   1 H      0.925     0.080     1.981     2.201
   569   8 O      1.653    -0.478    22.427     6.393
   570   1 H      0.805     0.325     0.650     1.266
   571   6 C      2.748     0.259    22.644     7.792
   572   8 O      0.856    -0.484    23.431     6.490
   573   7 N      2.674    -0.165    24.578     7.363
   574   1 H      0.860     0.218     1.019     1.581
   575   6 C      3.800     0.002    20.551     6.455
   576   1 H      0.924     0.113     1.674     2.024
   577   6 C      3.809    -0.084    22.103     6.692
   578   1 H      0.925     0.092     1.857     2.131
   579   1 H      0.924     0.071     2.070     2.250
   580   6 C      3.832    -0.085    22.101     6.689
   581   1 H      0.925     0.041     2.431     2.438
   582   1 H      0.924     0.053     2.282     2.363
   583   6 C      3.805    -0.113    22.653     6.776
   584   1 H      0.924     0.097     1.816     2.107
   585   1 H      0.925     0.090     1.881     2.144
   586   6 C      3.734    -0.056    21.671     6.644
   587   1 H      0.925     0.112     1.678     2.025
   588   1 H      0.925     0.110     1.698     2.038
   589   7 N      3.497    -0.130    23.803     7.246
   590   1 H      0.860     0.300     0.712     1.322
   591   1 H      0.860     0.305     0.699     1.309
   592   1 H      0.860     0.285     0.760     1.366
   593   6 C      2.746     0.268    22.469     7.762
   594   8 O      0.862    -0.488    23.509     6.501
   595   7 N      2.692    -0.164    24.558     7.360
   596   1 H      0.860     0.211     1.050     1.605
   597   6 C      3.784     0.023    20.210     6.403
   598   1 H      0.924     0.090     1.879     2.144
   599   6 C      3.674     0.064    19.738     6.367
   600   1 H      0.924     0.053     2.284     2.363
   601   1 H      0.925     0.065     2.142     2.289
   602   8 O      1.652    -0.494    22.765     6.441
   603   1 H      0.805     0.345     0.600     1.216
   604   6 C      2.754     0.253    22.749     7.810
   605   8 O      0.858    -0.469    23.116     6.446
   606   7 N      2.753    -0.106    23.326     7.173
   607   6 C      3.773    -0.018    20.918     6.517
   608   1 H      0.925     0.066     2.130     2.282
   609   1 H      0.925     0.070     2.086     2.259
   610   6 C      3.856    -0.076    21.906     6.656
   611   1 H      0.924     0.069     2.096     2.264
   612   1 H      0.925     0.058     2.223     2.331
   613   6 C      3.826    -0.076    21.925     6.663
   614   1 H      0.924     0.074     2.042     2.235
   615   1 H      0.925     0.082     1.961     2.190
   616   6 C      3.827     0.014    20.320     6.414
   617   1 H      0.925     0.087     1.906     2.159
   618   6 C      2.734     0.270    22.432     7.754
   619   8 O      0.869    -0.457    22.848     6.409
   620   7 N      2.697    -0.146    24.170     7.302
   621   1 H      0.860     0.192     1.149     1.679
   622   6 C      3.785     0.002    20.565     6.459
   623   1 H      0.924     0.082     1.955     2.187
   624   6 C      3.679     0.058    19.807     6.375
   625   1 H      0.925     0.055     2.255     2.348
   626   1 H      0.924     0.058     2.220     2.330
   627   8 O      1.654    -0.475    22.354     6.382
   628   1 H      0.805     0.338     0.616     1.233
   629   6 C      2.744     0.280    22.262     7.726
   630   8 O      0.862    -0.459    22.902     6.416
   631   7 N      2.691    -0.159    24.449     7.344
   632   1 H      0.860     0.223     0.998     1.565
   633   6 C      3.783     0.007    20.480     6.446
   634   1 H      0.924     0.112     1.681     2.028
   635   6 C      3.810    -0.092    22.246     6.714
   636   1 H      0.925     0.045     2.383     2.414
   637   1 H      0.924     0.087     1.913     2.163
   638   6 C      3.849    -0.019    20.876     6.499
   639   1 H      0.925     0.048     2.340     2.392
   640   6 C      3.766    -0.142    23.273     6.876
   641   1 H      0.925     0.056     2.243     2.342
   642   1 H      0.925     0.046     2.366     2.405
   643   1 H      0.925     0.067     2.124     2.279
   644   6 C      3.762    -0.131    23.056     6.845
   645   1 H      0.925     0.068     2.113     2.273
   646   1 H      0.924     0.041     2.440     2.443
   647   1 H      0.924     0.045     2.383     2.414
   648   6 C      2.748     0.249    22.826     7.823
   649   8 O      0.861    -0.478    23.293     6.471
   650   7 N      2.691    -0.171    24.697     7.381
   651   1 H      0.860     0.217     1.025     1.586
   652   6 C      3.797     0.021    20.231     6.405
   653   1 H      0.924     0.117     1.640     2.003
   654   6 C      3.810    -0.122    22.825     6.801
   655   1 H      0.925     0.091     1.871     2.139
   656   1 H      0.925     0.113     1.673     2.023
   657   6 C      2.744     0.290    22.076     7.693
   658   8 O      0.873    -0.495    23.656     6.521
   659   7 N      2.650    -0.285    27.365     7.769
   660   1 H      0.860     0.226     0.981     1.552
   661   1 H      0.860     0.213     1.040     1.598
   662   6 C      2.750     0.270    22.447     7.758
   663   8 O      0.859    -0.490    23.558     6.507
   664   7 N      2.688    -0.190    25.118     7.444
   665   1 H      0.860     0.233     0.950     1.527
   666   6 C      3.786     0.013    20.376     6.429
   667   1 H      0.924     0.075     2.029     2.227
   668   6 C      3.759    -0.142    23.297     6.881
   669   1 H      0.924     0.081     1.965     2.192
   670   1 H      0.925     0.079     1.990     2.206
   671   1 H      0.925     0.060     2.203     2.321
   672   6 C      2.747     0.268    22.482     7.764
   673   8 O      0.859    -0.520    24.226     6.599
   674   7 N      2.697    -0.166    24.581     7.363
   675   1 H      0.860     0.239     0.928     1.509
   676   6 C      3.784     0.012    20.385     6.431
   677   1 H      0.925     0.065     2.139     2.287
   678   6 C      3.763    -0.148    23.408     6.897
   679   1 H      0.924     0.073     2.057     2.243
   680   1 H      0.925     0.087     1.910     2.161
   681   1 H      0.925     0.087     1.905     2.158
   682   6 C      2.740     0.273    22.380     7.746
   683   8 O      0.861    -0.485    23.463     6.494
   684   7 N      2.687    -0.171    24.702     7.382
   685   1 H      0.860     0.226     0.981     1.552
   686   6 C      3.794     0.007    20.461     6.441
   687   1 H      0.925     0.103     1.756     2.072
   688   6 C      3.810    -0.081    22.036     6.682
   689   1 H      0.925     0.050     2.316     2.380
   690   1 H      0.924     0.059     2.213     2.327
   691   6 C      3.797    -0.081    22.056     6.687
   692   1 H      0.925     0.093     1.849     2.126
   693   1 H      0.924     0.062     2.176     2.307
   694   6 C      3.801    -0.095    22.316     6.726
   695   1 H      0.924     0.061     2.186     2.312
   696   1 H      0.924     0.080     1.975     2.197
   697   6 C      3.729    -0.056    21.682     6.647
   698   1 H      0.925     0.134     1.506     1.919
   699   1 H      0.925     0.117     1.635     2.000
   700   7 N      3.486    -0.141    24.049     7.284
   701   1 H      0.860     0.297     0.721     1.331
   702   1 H      0.860     0.311     0.681     1.292
   703   1 H      0.860     0.293     0.735     1.343
   704   6 C      2.760     0.260    22.615     7.788
   705   8 O      0.857    -0.532    24.494     6.636
   706   7 N      2.703    -0.169    24.649     7.374
   707   1 H      0.860     0.249     0.887     1.475
   708   6 C      3.794     0.019    20.259     6.410
   709   1 H      0.924     0.059     2.207     2.323
   710   6 C      3.672     0.062    19.761     6.371
   711   1 H      0.924     0.057     2.239     2.340
   712   1 H      0.925     0.057     2.238     2.339
   713   8 O      1.655    -0.474    22.349     6.382
   714   1 H      0.805     0.338     0.616     1.233
   715   6 C      2.764     0.270    22.435     7.757
   716   8 O      0.861    -0.511    24.037     6.573
   717   7 N      2.688    -0.192    25.163     7.450
   718   1 H      0.860     0.238     0.932     1.513
   719   6 C      3.800     0.038    19.930     6.356
   720   1 H      0.924     0.056     2.248     2.345
   721   6 C      3.810    -0.049    21.436     6.590
   722   1 H      0.924     0.038     2.470     2.458
   723   1 H      0.925     0.061     2.189     2.314
   724   6 C      3.799    -0.087    22.167     6.704
   725   1 H      0.925     0.026     2.645     2.543
   726   1 H      0.925     0.023     2.687     2.563
   727   6 C      2.688     0.368    20.755     7.456
   728   8 O      0.857    -0.634    26.957     6.961
   729   8 O      0.858    -0.671    27.927     7.085
   730   6 C      2.748     0.284    22.196     7.714
   731   8 O      0.861    -0.505    23.898     6.554
   732   7 N      2.693    -0.188    25.072     7.437
   733   1 H      0.860     0.216     1.028     1.588
   734   6 C      3.792     0.029    20.098     6.384
   735   1 H      0.924     0.083     1.944     2.181
   736   6 C      3.825    -0.087    22.143     6.696
   737   1 H      0.925     0.061     2.182     2.310
   738   1 H      0.925     0.087     1.910     2.161
   739   6 C      3.855    -0.014    20.782     6.484
   740   1 H      0.924     0.034     2.535     2.490
   741   6 C      3.760    -0.119    22.820     6.810
   742   1 H      0.924     0.018     2.757     2.597
   743   1 H      0.925     0.058     2.227     2.334
   744   1 H      0.924     0.052     2.296     2.370
   745   6 C      3.757    -0.130    23.051     6.845
   746   1 H      0.925     0.042     2.419     2.432
   747   1 H      0.925     0.064     2.151     2.294
   748   1 H      0.925     0.059     2.207     2.323
   749   6 C      2.750     0.281    22.241     7.722
   750   8 O      0.860    -0.478    23.293     6.471
   751   7 N      2.688    -0.212    25.626     7.518
   752   1 H      0.860     0.213     1.044     1.601
   753   6 C      3.786     0.048    19.786     6.336
   754   1 H      0.925     0.054     2.270     2.356
   755   6 C      3.805    -0.081    22.051     6.685
   756   1 H      0.924     0.030     2.593     2.518
   757   1 H      0.925     0.060     2.196     2.317
   758   6 C      2.695     0.367    20.771     7.459
   759   8 O      0.857    -0.675    28.036     7.099
   760   8 O      0.857    -0.639    27.107     6.980
   761   6 C      2.739     0.287    22.132     7.703
   762   8 O      0.857    -0.500    23.777     6.538
   763   7 N      2.684    -0.191    25.145     7.447
   764   1 H      0.860     0.203     1.089     1.635
   765   6 C      3.774     0.013    20.387     6.434
   766   1 H      0.925     0.073     2.053     2.240
   767   6 C      3.801    -0.074    21.909     6.664
   768   1 H      0.925     0.053     2.283     2.363
   769   1 H      0.924     0.059     2.210     2.325
   770   6 C      3.820    -0.072    21.855     6.653
   771   1 H      0.925     0.056     2.248     2.345
   772   1 H      0.924     0.048     2.351     2.398
   773   6 C      3.804    -0.091    22.233     6.713
   774   1 H      0.925     0.085     1.929     2.172
   775   1 H      0.925     0.086     1.918     2.166
   776   6 C      3.736    -0.054    21.630     6.637
   777   1 H      0.924     0.125     1.573     1.962
   778   1 H      0.924     0.115     1.656     2.013
   779   7 N      3.486    -0.150    24.243     7.313
   780   1 H      0.860     0.297     0.723     1.332
   781   1 H      0.860     0.297     0.722     1.331
   782   1 H      0.860     0.311     0.681     1.293
   783   6 C      2.730     0.268    22.471     7.761
   784   8 O      0.861    -0.478    23.310     6.473
   785   7 N      2.692    -0.186    25.031     7.431
   786   1 H      0.860     0.213     1.042     1.599
   787   6 C      3.788     0.025    20.163     6.395
   788   1 H      0.925     0.077     2.007     2.216
   789   6 C      3.758    -0.132    23.097     6.852
   790   1 H      0.924     0.077     2.012     2.218
   791   1 H      0.925     0.074     2.043     2.235
   792   1 H      0.925     0.060     2.194     2.316
   793   6 C      2.754     0.281    22.249     7.724
   794   8 O      0.860    -0.508    23.960     6.563
   795   7 N      2.685    -0.164    24.547     7.358
   796   1 H      0.860     0.221     1.004     1.570
   797   6 C      3.777     0.006    20.509     6.452
   798   1 H      0.925     0.088     1.899     2.155
   799   6 C      3.841    -0.022    20.937     6.509
   800   1 H      0.925     0.063     2.166     2.302
   801   6 C      3.751    -0.113    22.718     6.797
   802   1 H      0.925     0.041     2.435     2.440
   803   1 H      0.925     0.066     2.132     2.283
   804   1 H      0.925     0.043     2.404     2.425
   805   6 C      3.802    -0.052    21.499     6.601
   806   1 H      0.925     0.000     3.050     2.731
   807   1 H      0.924     0.044     2.391     2.418
   808   6 C      3.755    -0.118    22.812     6.810
   809   1 H      0.925     0.064     2.149     2.292
   810   1 H      0.924     0.058     2.225     2.333
   811   1 H      0.925     0.030     2.583     2.513
   812   6 C      2.737     0.269    22.457     7.759
   813   8 O      0.857    -0.493    23.630     6.517
   814   7 N      2.678    -0.163    24.521     7.355
   815   1 H      0.860     0.190     1.159     1.687
   816   6 C      3.730    -0.027    21.143     6.564
   817   1 H      0.924     0.096     1.821     2.110
   818   1 H      0.924     0.088     1.902     2.157
   819   6 C      2.741     0.283    22.200     7.715
   820   8 O      0.858    -0.493    23.627     6.517
   821   7 N      2.679    -0.170    24.670     7.377
   822   1 H      0.860     0.191     1.153     1.682
   823   6 C      3.797     0.015    20.324     6.419
   824   1 H      0.925     0.081     1.972     2.196
   825   6 C      3.828    -0.079    21.980     6.671
   826   1 H      0.925     0.083     1.948     2.183
   827   1 H      0.924     0.075     2.030     2.228
   828   6 C      3.811    -0.073    21.887     6.659
   829   1 H      0.925     0.054     2.267     2.354
   830   1 H      0.924     0.061     2.184     2.311
   831   6 C      3.746    -0.022    21.039     6.543
   832   1 H      0.924     0.082     1.963     2.191
   833   1 H      0.924     0.081     1.973     2.197
   834   7 N      2.693    -0.173    24.736     7.387
   835   1 H      0.860     0.233     0.954     1.530
   836   6 C      2.733     0.228    23.211     7.888
   837   7 N      2.647    -0.246    26.417     7.634
   838   1 H      0.860     0.254     0.868     1.459
   839   1 H      0.860     0.238     0.932     1.512
   840   7 N      2.654    -0.256    26.648     7.667
   841   1 H      0.860     0.237     0.935     1.515
   842   1 H      0.860     0.249     0.886     1.474
   843   6 C      2.749     0.270    22.446     7.758
   844   8 O      0.856    -0.483    23.412     6.487
   845   7 N      2.691    -0.181    24.928     7.415
   846   1 H      0.860     0.234     0.949     1.526
   847   6 C      3.792     0.034    20.008     6.370
   848   1 H      0.925     0.075     2.036     2.231
   849   6 C      3.803    -0.107    22.543     6.760
   850   1 H      0.925     0.087     1.905     2.158
   851   1 H      0.925     0.078     2.000     2.212
   852   6 C      2.740     0.281    22.240     7.722
   853   8 O      0.857    -0.494    23.650     6.520
   854   7 N      2.636    -0.287    27.397     7.774
   855   1 H      0.860     0.254     0.869     1.460
   856   1 H      0.860     0.235     0.943     1.521
   857   6 C      2.745     0.275    22.350     7.741
   858   8 O      0.857    -0.459    22.907     6.417
   859   7 N      2.687    -0.169    24.657     7.375
   860   1 H      0.860     0.194     1.136     1.669
   861   6 C      3.781     0.007    20.489     6.448
   862   1 H      0.925     0.117     1.636     2.000
   863   6 C      3.795    -0.024    21.011     6.527
   864   1 H      0.925     0.066     2.133     2.284
   865   1 H      0.925     0.113     1.673     2.022
   866  16 S      1.898    -0.322   155.071    20.959
   867   1 H      0.923     0.178     1.218     1.726
   868   6 C      2.743     0.254    22.730     7.806
   869   8 O      0.858    -0.468    23.078     6.441
   870   7 N      2.688    -0.143    24.100     7.291
   871   1 H      0.860     0.200     1.108     1.649
   872   6 C      3.788     0.016    20.325     6.421
   873   1 H      0.924     0.101     1.775     2.083
   874   6 C      3.812    -0.100    22.403     6.737
   875   1 H      0.925     0.073     2.051     2.240
   876   1 H      0.924     0.073     2.056     2.242
   877   6 C      2.744     0.293    22.029     7.685
   878   8 O      0.865    -0.497    23.706     6.528
   879   7 N      2.644    -0.284    27.324     7.763
   880   1 H      0.860     0.258     0.854     1.448
   881   1 H      0.860     0.229     0.972     1.544
   882   6 C      2.743     0.265    22.535     7.773
   883   8 O      0.863    -0.465    23.024     6.433
   884   7 N      2.687    -0.139    24.002     7.276
   885   1 H      0.860     0.183     1.200     1.716
   886   6 C      3.729    -0.064    21.827     6.669
   887   1 H      0.924     0.128     1.553     1.949
   888   1 H      0.924     0.083     1.949     2.183
   889   6 C      2.741     0.282    22.219     7.718
   890   8 O      0.862    -0.443    22.558     6.368
   891   7 N      2.685    -0.170    24.688     7.380
   892   1 H      0.860     0.218     1.019     1.581
   893   6 C      3.793     0.009    20.432     6.437
   894   1 H      0.924     0.084     1.937     2.177
   895   6 C      3.855    -0.012    20.749     6.479
   896   1 H      0.925     0.040     2.445     2.445
   897   6 C      3.770    -0.121    22.855     6.813
   898   1 H      0.925     0.066     2.136     2.285
   899   1 H      0.924     0.026     2.648     2.545
   900   1 H      0.925     0.047     2.351     2.398
   901   6 C      3.767    -0.128    23.003     6.836
   902   1 H      0.924     0.048     2.345     2.395
   903   1 H      0.925     0.055     2.263     2.352
   904   1 H      0.924     0.062     2.179     2.308
   905   6 C      2.746     0.256    22.695     7.800
   906   8 O      0.857    -0.503    23.853     6.548
   907   7 N      2.688    -0.155    24.355     7.330
   908   1 H      0.860     0.232     0.955     1.530
   909   6 C      3.798     0.002    20.553     6.455
   910   1 H      0.925     0.082     1.956     2.187
   911   6 C      3.840    -0.023    20.959     6.513
   912   1 H      0.924     0.045     2.385     2.415
   913   6 C      3.753    -0.118    22.827     6.813
   914   1 H      0.925     0.057     2.238     2.339
   915   1 H      0.925     0.050     2.317     2.380
   916   1 H      0.924     0.039     2.465     2.455
   917   6 C      3.790    -0.067    21.789     6.648
   918   1 H      0.924     0.041     2.440     2.443
   919   1 H      0.924     0.063     2.163     2.300
   920   6 C      3.748    -0.120    22.864     6.820
   921   1 H      0.925     0.041     2.439     2.442
   922   1 H      0.924     0.055     2.259     2.351
   923   1 H      0.924     0.026     2.639     2.541
   924   6 C      2.748     0.261    22.593     7.783
   925   8 O      0.859    -0.477    23.291     6.470
   926   7 N      2.696    -0.183    24.960     7.420
   927   1 H      0.860     0.214     1.037     1.595
   928   6 C      3.790     0.004    20.525     6.452
   929   1 H      0.924     0.092     1.861     2.133
   930   6 C      3.733     0.120    18.713     6.174
   931   1 H      0.924     0.041     2.439     2.442
   932   6 C      3.749    -0.148    23.425     6.903
   933   1 H      0.924     0.071     2.080     2.255
   934   1 H      0.925     0.063     2.167     2.302
   935   1 H      0.924     0.057     2.236     2.339
   936   8 O      1.659    -0.487    22.622     6.421
   937   1 H      0.805     0.333     0.630     1.247
   938   6 C      2.752     0.259    22.640     7.791
   939   8 O      0.858    -0.485    23.459     6.494
   940   7 N      2.690    -0.194    25.201     7.456
   941   1 H      0.860     0.226     0.981     1.552
   942   6 C      3.794     0.019    20.256     6.409
   943   1 H      0.925     0.102     1.769     2.080
   944   6 C      3.801    -0.089    22.199     6.708
   945   1 H      0.925     0.086     1.917     2.165
   946   1 H      0.924     0.096     1.826     2.113
   947   6 C      3.800    -0.080    22.036     6.684
   948   1 H      0.924     0.045     2.387     2.416
   949   1 H      0.924     0.076     2.019     2.222
   950   6 C      3.798    -0.097    22.358     6.733
   951   1 H      0.924     0.097     1.811     2.104
   952   1 H      0.924     0.087     1.904     2.158
   953   6 C      3.735    -0.058    21.715     6.651
   954   1 H      0.924     0.103     1.761     2.075
   955   1 H      0.924     0.111     1.692     2.034
   956   7 N      3.489    -0.150    24.233     7.311
   957   1 H      0.860     0.294     0.730     1.338
   958   1 H      0.860     0.295     0.727     1.336
   959   1 H      0.860     0.300     0.714     1.324
   960   6 C      2.757     0.271    22.416     7.753
   961   8 O      0.858    -0.474    23.212     6.459
   962   7 N      2.698    -0.193    25.186     7.454
   963   1 H      0.860     0.201     1.102     1.644
   964   6 C      3.799     0.033    20.028     6.372
   965   1 H      0.925     0.076     2.025     2.225
   966   6 C      3.823    -0.097    22.326     6.724
   967   1 H      0.925     0.042     2.418     2.432
   968   1 H      0.924     0.064     2.155     2.296
   969   6 C      2.693     0.351    21.045     7.508
   970   8 O      0.857    -0.636    27.014     6.968
   971   8 O      0.857    -0.633    26.951     6.960
   972   6 C      2.744     0.271    22.424     7.754
   973   8 O      0.859    -0.474    23.218     6.460
   974   7 N      2.681    -0.195    25.225     7.459
   975   1 H      0.860     0.211     1.050     1.605
   976   6 C      3.781     0.019    20.280     6.415
   977   1 H      0.924     0.079     1.992     2.207
   978   6 C      3.800    -0.058    21.626     6.621
   979   1 H      0.925     0.052     2.290     2.366
   980   1 H      0.924     0.072     2.064     2.247
   981   6 C      3.804    -0.107    22.548     6.760
   982   1 H      0.925     0.060     2.194     2.317
   983   1 H      0.925     0.040     2.447     2.446
   984   6 C      2.686     0.373    20.686     7.443
   985   8 O      0.857    -0.583    25.695     6.796
   986   8 O      0.856    -0.617    26.548     6.908
   987   6 C      2.746     0.261    22.592     7.783
   988   8 O      0.862    -0.492    23.598     6.513
   989   7 N      2.688    -0.186    25.039     7.432
   990   1 H      0.860     0.221     1.005     1.570
   991   6 C      3.774     0.024    20.204     6.405
   992   1 H      0.925     0.082     1.957     2.188
   993   6 C      3.754    -0.136    23.168     6.863
   994   1 H      0.925     0.060     2.194     2.316
   995   1 H      0.925     0.089     1.890     2.150
   996   1 H      0.925     0.072     2.063     2.246
   997   6 C      2.730     0.263    22.566     7.777
   998   8 O      0.858    -0.520    24.221     6.598
   999   7 N      2.675    -0.174    24.766     7.391
  1000   1 H      0.860     0.220     1.009     1.573
  1001   6 C      3.768     0.024    20.199     6.405
  1002   1 H      0.924     0.077     2.015     2.220
  1003   6 C      3.794    -0.062    21.695     6.633
  1004   1 H      0.925     0.046     2.372     2.408
  1005   1 H      0.925     0.081     1.973     2.197
  1006   6 C      3.786    -0.102    22.467     6.751
  1007   1 H      0.924     0.028     2.617     2.530
  1008   1 H      0.924     0.044     2.391     2.418
  1009   6 C      2.678     0.358    20.928     7.486
  1010   8 O      0.856    -0.583    25.701     6.797
  1011   8 O      0.856    -0.609    26.345     6.882
  1012   6 C      2.740     0.265    22.522     7.770
  1013   8 O      0.862    -0.510    24.003     6.569
  1014   7 N      2.697    -0.168    24.640     7.372
  1015   1 H      0.860     0.220     1.010     1.574
  1016   6 C      3.788     0.016    20.326     6.421
  1017   1 H      0.924     0.098     1.807     2.102
  1018   6 C      3.800    -0.079    22.012     6.680
  1019   1 H      0.925     0.075     2.032     2.229
  1020   1 H      0.925     0.075     2.027     2.227
  1021   6 C      3.802    -0.082    22.061     6.687
  1022   1 H      0.925     0.064     2.150     2.293
  1023   1 H      0.924     0.078     2.003     2.213
  1024   6 C      3.789    -0.085    22.140     6.701
  1025   1 H      0.925     0.065     2.141     2.288
  1026   1 H      0.925     0.062     2.177     2.308
  1027   6 C      3.721    -0.052    21.633     6.643
  1028   1 H      0.924     0.120     1.614     1.987
  1029   1 H      0.925     0.114     1.660     2.015
  1030   7 N      3.487    -0.136    23.946     7.268
  1031   1 H      0.860     0.301     0.710     1.320
  1032   1 H      0.860     0.274     0.796     1.397
  1033   1 H      0.860     0.282     0.771     1.375
  1034   6 C      2.755     0.259    22.646     7.793
  1035   8 O      0.856    -0.496    23.693     6.526
  1036   7 N      2.676    -0.197    25.284     7.468
  1037   1 H      0.860     0.230     0.966     1.540
  1038   6 C      3.787     0.020    20.251     6.410
  1039   1 H      0.924     0.080     1.978     2.200
  1040   6 C      3.803    -0.079    22.004     6.678
  1041   1 H      0.925     0.055     2.259     2.350
  1042   1 H      0.924     0.066     2.135     2.285
  1043   6 C      3.844    -0.025    20.985     6.516
  1044   1 H      0.925     0.063     2.169     2.303
  1045   6 C      3.759    -0.128    23.008     6.838
  1046   1 H      0.924     0.047     2.359     2.402
  1047   1 H      0.924     0.055     2.260     2.351
  1048   1 H      0.925     0.061     2.187     2.313
  1049   6 C      3.750    -0.124    22.950     6.832
  1050   1 H      0.924     0.035     2.517     2.481
  1051   1 H      0.925     0.049     2.335     2.390
  1052   1 H      0.924     0.025     2.660     2.550
  1053   6 C      2.751     0.280    22.253     7.724
  1054   8 O      0.864    -0.509    23.981     6.566
  1055   7 N      2.691    -0.197    25.286     7.468
  1056   1 H      0.860     0.221     1.005     1.571
  1057   6 C      3.787     0.034    20.013     6.372
  1058   1 H      0.924     0.069     2.100     2.266
  1059   6 C      3.816    -0.070    21.833     6.650
  1060   1 H      0.924     0.054     2.272     2.357
  1061   1 H      0.924     0.071     2.073     2.252
  1062   6 C      2.947     0.006    27.884     8.661
  1063   6 C      2.920    -0.034    28.844     8.807
  1064   1 H      0.926     0.017     2.786     2.610
  1065   6 C      2.901    -0.036    28.892     8.813
  1066   1 H      0.926     0.029     2.605     2.524
  1067   6 C      2.901    -0.037    28.922     8.818
  1068   1 H      0.926     0.046     2.368     2.407
  1069   6 C      2.903    -0.043    29.057     8.838
  1070   1 H      0.926     0.071     2.070     2.250
  1071   6 C      2.910    -0.046    29.138     8.851
  1072   1 H      0.926     0.054     2.275     2.359
  1073   6 C      2.751     0.283    22.214     7.718
  1074   8 O      0.866    -0.502    23.816     6.543
  1075   7 N      2.690    -0.180    24.894     7.410
  1076   1 H      0.860     0.213     1.044     1.601
  1077   6 C      3.778     0.036    19.986     6.369
  1078   1 H      0.924     0.090     1.883     2.146
  1079   6 C      3.814    -0.111    22.608     6.767
  1080   1 H      0.925     0.089     1.890     2.150
  1081   1 H      0.925     0.100     1.789     2.092
  1082   6 C      2.744     0.296    21.981     7.677
  1083   8 O      0.858    -0.499    23.767     6.536
  1084   7 N      2.644    -0.287    27.396     7.774
  1085   1 H      0.860     0.247     0.894     1.481
  1086   1 H      0.860     0.235     0.942     1.521
  1087   6 C      2.740     0.265    22.533     7.772
  1088   8 O      0.860    -0.507    23.938     6.560
  1089   7 N      2.688    -0.194    25.217     7.458
  1090   1 H      0.860     0.229     0.972     1.544
  1091   6 C      3.806     0.035    19.981     6.363
  1092   1 H      0.925     0.075     2.029     2.228
  1093   6 C      3.816    -0.059    21.623     6.618
  1094   1 H      0.925     0.067     2.114     2.274
  1095   1 H      0.925     0.058     2.228     2.334
  1096   6 C      3.801    -0.102    22.444     6.745
  1097   1 H      0.925     0.063     2.163     2.300
  1098   1 H      0.924     0.072     2.063     2.246
  1099   6 C      2.740     0.286    22.160     7.708
  1100   8 O      0.859    -0.512    24.053     6.576
  1101   7 N      2.635    -0.263    26.831     7.693
  1102   1 H      0.860     0.246     0.898     1.484
  1103   1 H      0.860     0.227     0.979     1.550
  1104   6 C      2.756     0.275    22.341     7.740
  1105   8 O      0.858    -0.519    24.211     6.597
  1106   7 N      2.700    -0.170    24.676     7.378
  1107   1 H      0.860     0.205     1.081     1.629
  1108   6 C      3.792     0.041    19.895     6.352
  1109   1 H      0.924     0.079     1.992     2.207
  1110   6 C      3.811    -0.076    21.944     6.668
  1111   1 H      0.925     0.051     2.302     2.373
  1112   1 H      0.924     0.044     2.394     2.420
  1113   6 C      2.687     0.348    21.085     7.515
  1114   8 O      0.857    -0.662    27.694     7.056
  1115   8 O      0.858    -0.609    26.338     6.881
  1116   6 C      2.757     0.263    22.564     7.779
  1117   8 O      0.858    -0.498    23.745     6.533
  1118   7 N      2.680    -0.195    25.240     7.462
  1119   1 H      0.860     0.220     1.007     1.572
  1120   6 C      3.792     0.011    20.393     6.431
  1121   1 H      0.924     0.076     2.023     2.224
  1122   6 C      3.849    -0.017    20.845     6.494
  1123   1 H      0.925     0.037     2.483     2.464
  1124   6 C      3.760    -0.126    22.967     6.832
  1125   1 H      0.925     0.041     2.438     2.442
  1126   1 H      0.924     0.070     2.088     2.260
  1127   1 H      0.924     0.065     2.140     2.288
  1128   6 C      3.765    -0.121    22.859     6.815
  1129   1 H      0.925     0.034     2.529     2.487
  1130   1 H      0.924     0.066     2.129     2.282
  1131   1 H      0.925     0.068     2.104     2.268
  1132   6 C      2.752     0.284    22.196     7.715
  1133   8 O      0.858    -0.440    22.489     6.358
  1134   7 N      2.689    -0.214    25.661     7.524
  1135   1 H      0.860     0.203     1.090     1.635
  1136   6 C      3.802     0.045    19.819     6.338
  1137   1 H      0.925     0.072     2.060     2.245
  1138   6 C      3.807    -0.084    22.099     6.692
  1139   1 H      0.925     0.028     2.614     2.528
  1140   1 H      0.924     0.047     2.358     2.402
  1141   6 C      2.691     0.358    20.928     7.487
  1142   8 O      0.856    -0.604    26.222     6.866
  1143   8 O      0.857    -0.623    26.689     6.926
  1144   6 C      2.756     0.269    22.451     7.759
  1145   8 O      0.857    -0.490    23.569     6.509
  1146   7 N      2.687    -0.167    24.612     7.368
  1147   1 H      0.860     0.190     1.160     1.687
  1148   6 C      3.789     0.027    20.124     6.389
  1149   1 H      0.925     0.092     1.858     2.131
  1150   6 C      3.755    -0.131    23.071     6.849
  1151   1 H      0.925     0.080     1.976     2.198
  1152   1 H      0.924     0.052     2.300     2.372
  1153   1 H      0.925     0.074     2.040     2.234
  1154   6 C      2.744     0.260    22.615     7.786
  1155   8 O      0.857    -0.460    22.918     6.418
  1156   7 N      2.681    -0.200    25.341     7.476
  1157   1 H      0.860     0.212     1.045     1.601
  1158   6 C      3.763     0.022    20.241     6.413
  1159   1 H      0.925     0.068     2.113     2.273
  1160   6 C      3.754    -0.126    22.984     6.836
  1161   1 H      0.925     0.082     1.962     2.190
  1162   1 H      0.924     0.063     2.160     2.298
[...]
  2291  N   3.413        C 2289 1.251    C 2293 0.949    H 2292 0.937    O 2290 0.195
  2292  H   0.964        N 2291 0.937
  2293  C   3.958        C 2295 0.990    H 2294 0.956    N 2291 0.949    C 2313 0.937
  2294  H   0.992        C 2293 0.956
  2295  C   3.986        C 2298 1.000    C 2293 0.990    H 2297 0.969    H 2296 0.954
  2296  H   0.994        C 2295 0.954
  2297  H   0.994        C 2295 0.969
  2298  C   3.987        C 2301 1.004    C 2295 1.000    H 2299 0.970    H 2300 0.960
  2299  H   0.994        C 2298 0.970
  2300  H   0.997        C 2298 0.960
  2301  C   3.950        C 2298 1.004    N 2304 0.972    H 2303 0.967    H 2302 0.961
  2302  H   0.996        C 2301 0.961
  2303  H   0.990        C 2301 0.967
  2304  N   3.386        C 2306 1.250    C 2301 0.972    H 2305 0.909
  2305  H   0.951        N 2304 0.909
  2306  C   3.976        N 2307 1.371    N 2310 1.328    N 2304 1.250
  2307  N   3.416        C 2306 1.371    H 2309 0.901    H 2308 0.852    N 2310 0.114
  2308  H   0.934        N 2307 0.852
  2309  H   0.942        N 2307 0.901
  2310  N   3.385        C 2306 1.328    H 2311 0.894    H 2312 0.874    N 2307 0.114
  2311  H   0.947        N 2310 0.894
  2312  H   0.936        N 2310 0.874
  2313  C   3.957        O 2314 1.544    N 2315 1.393    C 2293 0.937
  2314  O   1.901        C 2313 1.544    N 2315 0.203
  2315  N   3.526        C 2313 1.393    C 2317 0.959    H 2316 0.882    O 2314 0.203
  2316  H   0.943        N 2315 0.882
  2317  C   3.953        C 2319 1.011    N 2315 0.959    H 2318 0.947    C 2323 0.924
  2318  H   0.993        C 2317 0.947
  2319  C   3.980        C 2317 1.011    H 2320 0.973    H 2322 0.973    H 2321 0.971
  2320  H   0.994        C 2319 0.973
  2321  H   0.994        C 2319 0.971
  2322  H   0.995        C 2319 0.973
  2323  C   3.952        O 2324 1.619    N 2325 1.316    C 2317 0.924
  2324  O   1.979        C 2323 1.619    N 2325 0.196
  2325  N   3.476        C 2323 1.316    C 2327 0.984    H 2326 0.882    O 2324 0.196
  2326  H   0.945        N 2325 0.882
  2327  C   3.956        C 2329 0.986    N 2325 0.984    H 2328 0.941    C 2345 0.915
  2328  H   0.992        C 2327 0.941
  2329  C   3.981        C 2332 0.995    C 2327 0.986    H 2330 0.974    H 2331 0.970
  2330  H   0.996        C 2329 0.974
  2331  H   0.993        C 2329 0.970
  2332  C   3.985        C 2335 0.999    C 2329 0.995    H 2334 0.977    H 2333 0.976
  2333  H   0.994        C 2332 0.976
  2334  H   0.997        C 2332 0.977
  2335  C   3.986        C 2338 1.015    C 2332 0.999    H 2337 0.972    H 2336 0.969
  2336  H   0.994        C 2335 0.969
  2337  H   0.993        C 2335 0.972
  2338  C   3.906        C 2335 1.015    H 2339 0.962    H 2340 0.960    N 2341 0.951
  2339  H   0.984        C 2338 0.962
  2340  H   0.986        C 2338 0.960
  2341  N   3.649        C 2338 0.951    H 2343 0.893    H 2342 0.891    H 2344 0.891
  2342  H   0.910        N 2341 0.891
  2343  H   0.915        N 2341 0.893
  2344  H   0.907        N 2341 0.891
  2345  C   3.942        O 2346 1.601    N 2347 1.334    C 2327 0.915
  2346  O   1.974        C 2345 1.601    N 2347 0.195
  2347  N   3.488        C 2345 1.334    C 2349 0.962    H 2348 0.906    O 2346 0.195
  2348  H   0.950        N 2347 0.906
  2349  C   3.963        C 2351 0.984    N 2347 0.962    C 2369 0.952    H 2350 0.942
  2350  H   0.991        C 2349 0.942
  2351  C   3.983        C 2354 1.003    C 2349 0.984    H 2352 0.968    H 2353 0.966
  2352  H   0.995        C 2351 0.968
  2353  H   0.995        C 2351 0.966
  2354  C   3.983        C 2351 1.003    C 2357 1.000    H 2356 0.970    H 2355 0.964
  2355  H   0.991        C 2354 0.964
  2356  H   0.994        C 2354 0.970
  2357  C   3.931        C 2354 1.000    H 2359 0.972    H 2358 0.969    N 2360 0.936
  2358  H   0.992        C 2357 0.969
  2359  H   0.991        C 2357 0.972
  2360  N   3.374        C 2362 1.276    C 2357 0.936    H 2361 0.905
  2361  H   0.950        N 2360 0.905
  2362  C   3.975        N 2366 1.355    N 2363 1.313    N 2360 1.276
  2363  N   3.391        C 2362 1.313    H 2364 0.926    H 2365 0.896    N 2366 0.112
  2364  H   0.952        N 2363 0.926
  2365  H   0.929        N 2363 0.896
  2366  N   3.424        C 2362 1.355    H 2367 0.914    H 2368 0.887    N 2363 0.112
  2367  H   0.946        N 2366 0.914
  2368  H   0.941        N 2366 0.887
  2369  C   3.949        O 2370 1.553    N 2371 1.352    C 2349 0.952
  2370  O   1.931        C 2369 1.553    N 2371 0.192
  2371  N   3.500        C 2369 1.352    C 2373 0.966    H 2372 0.895    O 2370 0.192
  2372  H   0.947        N 2371 0.895
  2373  C   3.955        C 2375 0.975    N 2371 0.966    H 2374 0.948    C 2385 0.932
  2374  H   0.992        C 2373 0.948
  2375  C   3.988        C 2381 1.008    C 2377 0.999    C 2373 0.975    H 2376 0.962
  2376  H   0.997        C 2375 0.962
  2377  C   3.989        C 2375 0.999    H 2378 0.983    H 2379 0.981    H 2380 0.979
  2378  H   0.997        C 2377 0.983
  2379  H   0.998        C 2377 0.981
  2380  H   0.997        C 2377 0.979
  2381  C   3.993        C 2375 1.008    H 2384 0.984    H 2382 0.982    H 2383 0.977
  2382  H   0.998        C 2381 0.982
  2383  H   0.996        C 2381 0.977
  2384  H   0.998        C 2381 0.984
  2385  C   3.950        O 2386 1.645    N 2387 1.293    C 2373 0.932
  2386  O   1.981        C 2385 1.645    N 2387 0.200
  2387  N   3.445        C 2385 1.293    C 2389 0.961    H 2388 0.886    O 2386 0.200
  2388  H   0.950        N 2387 0.886
  2389  C   3.954        C 2391 0.971    N 2387 0.961    H 2390 0.949    C 2404 0.939
  2390  H   0.992        C 2389 0.949
  2391  C   3.986        C 2393 1.007    C 2397 0.995    C 2389 0.971    H 2392 0.955
  2392  H   0.996        C 2391 0.955
  2393  C   3.988        C 2391 1.007    H 2395 0.982    H 2394 0.982    H 2396 0.978
  2394  H   0.998        C 2393 0.982
  2395  H   0.998        C 2393 0.982
  2396  H   0.994        C 2393 0.978
  2397  C   3.989        C 2400 1.011    C 2391 0.995    H 2398 0.975    H 2399 0.963
  2398  H   0.998        C 2397 0.975
  2399  H   0.998        C 2397 0.963
  2400  C   3.990        C 2397 1.011    H 2401 0.987    H 2403 0.986    H 2402 0.984
  2401  H   0.997        C 2400 0.987
  2402  H   0.997        C 2400 0.984
  2403  H   0.999        C 2400 0.986
  2404  C   3.946        O 2405 1.592    N 2406 1.322    C 2389 0.939
  2405  O   1.913        C 2404 1.592    N 2406 0.182
  2406  N   3.484        C 2404 1.322    C 2408 0.999    H 2407 0.893    O 2405 0.182
  2407  H   0.951        N 2406 0.893
  2408  C   3.963        N 2406 0.999    C 2410 0.967    H 2409 0.945    C 2418 0.915
  2409  H   0.990        C 2408 0.945
  2410  C   3.963        C 2412 1.003    O 2416 0.977    C 2408 0.967    H 2411 0.966
  2411  H   0.999        C 2410 0.966
  2412  C   3.987        C 2410 1.003    H 2413 0.984    H 2415 0.983    H 2414 0.979
  2413  H   0.998        C 2412 0.984
  2414  H   0.994        C 2412 0.979
  2415  H   0.994        C 2412 0.983
  2416  O   1.915        C 2410 0.977    H 2417 0.846
  2417  H   0.890        O 2416 0.846
  2418  C   3.949        O 2419 1.591    N 2420 1.344    C 2408 0.915
  2419  O   1.942        C 2418 1.591    N 2420 0.191
  2420  N   3.479        C 2418 1.344    C 2422 0.963    H 2421 0.892    O 2419 0.191
  2421  H   0.952        N 2420 0.892
  2422  C   3.950        N 2420 0.963    H 2423 0.954    C 2424 0.940    C 2432 0.920
  2423  H   0.992        C 2422 0.954
  2424  C   3.959        O 2430 1.018    C 2426 1.000    H 2425 0.959    C 2422 0.940
  2425  H   1.000        C 2424 0.959
  2426  C   3.983        C 2424 1.000    H 2429 0.981    H 2428 0.980    H 2427 0.971
  2427  H   0.995        C 2426 0.971
  2428  H   0.994        C 2426 0.980
  2429  H   0.998        C 2426 0.981
  2430  O   1.959        C 2424 1.018    H 2431 0.803
  2431  H   0.886        O 2430 0.803
  2432  C   3.952        O 2433 1.658    N 2434 1.303    C 2422 0.920
  2433  O   1.996        C 2432 1.658    N 2434 0.200
  2434  N   3.455        C 2432 1.303    C 2436 0.954    H 2435 0.911    O 2433 0.200
  2435  H   0.954        N 2434 0.911
  2436  C   3.952        C 2438 0.971    N 2434 0.954    C 2452 0.953    H 2437 0.937
  2437  H   0.991        C 2436 0.937
  2438  C   3.977        C 2441 0.998    C 2436 0.971    H 2440 0.964    H 2439 0.953
  2439  H   0.993        C 2438 0.953
  2440  H   0.994        C 2438 0.964
  2441  C   3.984        C 2450 1.423    C 2442 1.392    C 2438 0.998    C 2446 0.122
  2442  C   3.991        C 2444 1.478    C 2441 1.392    H 2443 0.959    C 2448 0.106
  2443  H   0.998        C 2442 0.959
  2444  C   3.992        C 2442 1.478    C 2446 1.415    H 2445 0.963    C 2450 0.104
  2445  H   0.998        C 2444 0.963
  2446  C   3.989        C 2448 1.438    C 2444 1.415    H 2447 0.967    C 2441 0.122
  2447  H   0.998        C 2446 0.967
  2448  C   3.988        C 2450 1.440    C 2446 1.438    H 2449 0.966    C 2442 0.106
  2449  H   0.997        C 2448 0.966
  2450  C   3.985        C 2448 1.440    C 2441 1.423    H 2451 0.965    C 2444 0.104
  2451  H   0.997        C 2450 0.965
  2452  C   3.945        O 2453 1.587    N 2454 1.311    C 2436 0.953
  2453  O   1.955        C 2452 1.587    N 2454 0.188
  2454  N   3.472        C 2452 1.311    C 2456 0.976    H 2455 0.892    O 2453 0.188
  2455  H   0.948        N 2454 0.892
  2456  C   3.963        N 2454 0.976    C 2458 0.969    C 2476 0.964    H 2457 0.938
  2457  H   0.992        C 2456 0.938
  2458  C   3.979        C 2461 0.996    H 2459 0.976    C 2456 0.969    H 2460 0.967
  2459  H   0.995        C 2458 0.976
  2460  H   0.992        C 2458 0.967
  2461  C   3.988        C 2458 0.996    C 2464 0.994    H 2463 0.980    H 2462 0.976
  2462  H   0.997        C 2461 0.976
  2463  H   0.996        C 2461 0.980
  2464  C   3.957        N 2467 1.000    C 2461 0.994    H 2465 0.961    H 2466 0.957
  2465  H   0.992        C 2464 0.961
  2466  H   0.992        C 2464 0.957
  2467  N   3.443        C 2469 1.279    C 2464 1.000    H 2468 0.891    N 2470 0.102
  2468  H   0.950        N 2467 0.891
  2469  C   3.977        N 2470 1.352    N 2473 1.310    N 2467 1.279
  2470  N   3.410        C 2469 1.352    H 2471 0.905    H 2472 0.904    N 2473 0.108    N 2467 0.102
  2471  H   0.927        N 2470 0.905
  2472  H   0.930        N 2470 0.904
  2473  N   3.385        C 2469 1.310    H 2474 0.917    H 2475 0.894    N 2470 0.108
  2474  H   0.938        N 2473 0.917
  2475  H   0.949        N 2473 0.894
  2476  C   3.947        O 2477 1.589    N 2478 1.317    C 2456 0.964
  2477  O   1.910        C 2476 1.589    N 2478 0.202
  2478  N   3.468        C 2476 1.317    C 2480 0.961    H 2479 0.896    O 2477 0.202
  2479  H   0.944        N 2478 0.896
  2480  C   3.961        N 2478 0.961    H 2481 0.958    C 2482 0.953    C 2490 0.948
  2481  H   0.991        C 2480 0.958
  2482  C   3.954        C 2484 1.016    O 2488 0.968    H 2483 0.958    C 2480 0.953
  2483  H   0.997        C 2482 0.958
  2484  C   3.985        C 2482 1.016    H 2486 0.980    H 2485 0.977    H 2487 0.976
  2485  H   0.996        C 2484 0.977
  2486  H   0.997        C 2484 0.980
  2487  H   0.993        C 2484 0.976
  2488  O   1.936        C 2482 0.968    H 2489 0.873
  2489  H   0.894        O 2488 0.873
  2490  C   3.958        O 2491 1.637    N 2492 1.308    C 2480 0.948
  2491  O   1.959        C 2490 1.637    N 2492 0.202
  2492  N   3.469        C 2490 1.308    C 2494 0.988    H 2493 0.897    O 2491 0.202
  2493  H   0.945        N 2492 0.897
  2494  C   3.958        N 2492 0.988    H 2495 0.953    C 2497 0.952    H 2496 0.941
  2495  H   0.988        C 2494 0.953
  2496  H   0.989        C 2494 0.941
  2497  C   3.949        O 2498 1.642    N 2499 1.290    C 2494 0.952
  2498  O   1.958        C 2497 1.642    N 2499 0.194
  2499  N   3.458        C 2497 1.290    C 2501 0.983    H 2500 0.913    O 2498 0.194
  2500  H   0.954        N 2499 0.913
  2501  C   3.967        N 2499 0.983    C 2503 0.956    H 2502 0.952    C 2511 0.909
  2502  H   0.993        C 2501 0.952
  2503  C   3.956        C 2505 1.001    O 2509 0.990    H 2504 0.958    C 2501 0.956
  2504  H   0.998        C 2503 0.958
  2505  C   3.990        C 2503 1.001    H 2507 0.985    H 2508 0.981    H 2506 0.981
  2506  H   0.997        C 2505 0.981
  2507  H   0.997        C 2505 0.985
  2508  H   0.996        C 2505 0.981
  2509  O   1.949        C 2503 0.990    H 2510 0.874
  2510  H   0.894        O 2509 0.874
  2511  C   3.955        O 2512 1.674    N 2513 1.303    C 2501 0.909
  2512  O   2.000        C 2511 1.674    N 2513 0.198
  2513  N   3.449        C 2511 1.303    C 2515 0.950    H 2514 0.922    O 2512 0.198
  2514  H   0.959        N 2513 0.922
  2515  C   3.948        C 2517 0.975    N 2513 0.950    C 2535 0.940    H 2516 0.934
  2516  H   0.990        C 2515 0.934
  2517  C   3.979        C 2520 0.991    C 2515 0.975    H 2519 0.975    H 2518 0.963
  2518  H   0.993        C 2517 0.963
  2519  H   0.996        C 2517 0.975
  2520  C   3.964        C 2521 1.625    C 2534 1.167    C 2517 0.991
  2521  C   3.952        C 2520 1.625    N 2523 1.179    H 2522 0.967
  2522  H   0.996        C 2521 0.967
  2523  N   3.524        C 2521 1.179    C 2525 1.177    H 2524 0.936
  2524  H   0.963        N 2523 0.936
  2525  C   3.962        C 2526 1.358    C 2534 1.229    N 2523 1.177
  2526  C   3.986        C 2528 1.474    C 2525 1.358    H 2527 0.963    C 2532 0.105
  2527  H   0.997        C 2526 0.963
  2528  C   3.991        C 2526 1.474    C 2530 1.390    H 2529 0.968
  2529  H   0.998        C 2528 0.968
  2530  C   3.990        C 2532 1.468    C 2528 1.390    H 2531 0.963
  2531  H   0.999        C 2530 0.963
  2532  C   3.993        C 2530 1.468    C 2534 1.383    H 2533 0.965    C 2526 0.105
  2533  H   0.999        C 2532 0.965
  2534  C   3.982        C 2532 1.383    C 2525 1.229    C 2520 1.167
  2535  C   3.945        O 2536 1.650    N 2537 1.278    C 2515 0.940
  2536  O   1.979        C 2535 1.650    N 2537 0.193
  2537  N   3.434        C 2535 1.278    C 2539 0.943    H 2538 0.924    O 2536 0.193
  2538  H   0.961        N 2537 0.924
  2539  C   3.953        C 2541 0.990    H 2540 0.949    N 2537 0.943    C 2547 0.935
  2540  H   0.994        C 2539 0.949
  2541  C   3.979        C 2539 0.990    H 2542 0.975    H 2543 0.964    C 2544 0.903
  2542  H   0.998        C 2541 0.975
  2543  H   0.997        C 2541 0.964
  2544  C   3.938        O 2545 1.527    O 2546 1.476    C 2541 0.903
  2545  O   1.822        C 2544 1.527    O 2546 0.215
  2546  O   1.832        C 2544 1.476    O 2545 0.215
  2547  C   3.952        O 2548 1.632    N 2549 1.306    C 2539 0.935
  2548  O   1.945        C 2547 1.632    N 2549 0.192
  2549  N   3.471        C 2547 1.306    C 2551 0.972    H 2550 0.921    O 2548 0.192
  2550  H   0.959        N 2549 0.921
  2551  C   3.942        C 2553 0.980    N 2549 0.972    H 2552 0.934    C 2557 0.930
  2552  H   0.988        C 2551 0.934
  2553  C   3.973        H 2556 0.982    C 2551 0.980    H 2554 0.977    H 2555 0.971
  2554  H   0.993        C 2553 0.977
  2555  H   0.991        C 2553 0.971
  2556  H   0.995        C 2553 0.982
  2557  C   3.946        O 2558 1.658    N 2559 1.279    C 2551 0.930
  2558  O   1.994        C 2557 1.658    N 2559 0.193
  2559  N   3.447        C 2557 1.279    C 2561 0.959    H 2560 0.920    O 2558 0.193
  2560  H   0.966        N 2559 0.920
  2561  C   3.956        N 2559 0.959    C 2578 0.956    C 2563 0.956    H 2562 0.941
  2562  H   0.990        C 2561 0.941
  2563  C   3.979        C 2566 1.013    H 2564 0.962    H 2565 0.959    C 2561 0.956
  2564  H   0.996        C 2563 0.962
  2565  H   0.996        C 2563 0.959
  2566  C   3.988        C 2567 1.439    C 2576 1.386    C 2563 1.013
  2567  C   3.985        C 2566 1.439    C 2569 1.416    H 2568 0.965    C 2574 0.107
  2568  H   0.997        C 2567 0.965
  2569  C   3.983        C 2567 1.416    C 2571 1.384    H 2570 0.963    C 2576 0.116
  2570  H   0.995        C 2569 0.963
  2571  C   3.938        C 2569 1.384    C 2574 1.362    O 2572 1.066
  2572  O   2.075        C 2571 1.066    H 2573 0.813
  2573  H   0.893        O 2572 0.813
  2574  C   3.988        C 2576 1.455    C 2571 1.362    H 2575 0.965    C 2567 0.107
  2575  H   0.998        C 2574 0.965
  2576  C   3.988        C 2574 1.455    C 2566 1.386    H 2577 0.967    C 2569 0.116
  2577  H   0.999        C 2576 0.967
  2578  C   3.948        O 2579 1.599    N 2580 1.314    C 2561 0.956
  2579  O   1.921        C 2578 1.599    N 2580 0.198
  2580  N   3.480        C 2578 1.314    C 2582 0.978    H 2581 0.914    O 2579 0.198
  2581  H   0.957        N 2580 0.914
  2582  C   3.952        C 2584 0.979    N 2580 0.978    H 2583 0.960    C 2600 0.901
  2583  H   0.999        C 2582 0.960
  2584  C   3.991        C 2587 1.002    H 2586 0.980    C 2582 0.979    H 2585 0.970
  2585  H   0.997        C 2584 0.970
  2586  H   0.998        C 2584 0.980
  2587  C   3.993        C 2590 1.013    C 2584 1.002    H 2588 0.978    H 2589 0.974
  2588  H   0.999        C 2587 0.978
  2589  H   0.997        C 2587 0.974
  2590  C   3.987        C 2587 1.013    C 2593 0.994    H 2592 0.972    H 2591 0.970
  2591  H   0.995        C 2590 0.970
  2592  H   0.994        C 2590 0.972
  2593  C   3.923        C 2590 0.994    N 2596 0.970    H 2594 0.969    H 2595 0.968
  2594  H   0.988        C 2593 0.969
  2595  H   0.989        C 2593 0.968
  2596  N   3.659        C 2593 0.970    H 2597 0.899    H 2599 0.895    H 2598 0.844
  2597  H   0.921        N 2596 0.899
  2598  H   0.913        N 2596 0.844
  2599  H   0.911        N 2596 0.895
  2600  C   3.936        O 2602 1.531    O 2601 1.465    C 2582 0.901
  2601  O   1.760        C 2600 1.465    O 2602 0.222
  2602  O   1.829        C 2600 1.531    O 2601 0.222
  2603  C   3.985        C 2605 1.444    C 2613 1.360    H 2604 0.961    C 2609 0.105
  2604  H   0.999        C 2603 0.961
  2605  C   3.989        C 2607 1.446    C 2603 1.444    H 2606 0.965
  2606  H   0.999        C 2605 0.965
  2607  C   3.975        C 2605 1.446    C 2609 1.380    H 2608 0.966    C 2613 0.103
  2608  H   0.998        C 2607 0.966
  2609  C   3.988        C 2611 1.494    C 2607 1.380    H 2610 0.965    C 2603 0.105
  2610  H   0.998        C 2609 0.965
  2611  C   3.985        C 2609 1.494    C 2613 1.341    H 2612 0.957
  2612  H   0.996        C 2611 0.957
  2613  C   3.939        C 2603 1.360    C 2611 1.341    O 2614 1.103    C 2607 0.103
  2614  O   2.143        C 2613 1.103    H 2615 0.858
  2615  H   0.888        O 2614 0.858

molecular dipole:
                 x           y           z       tot (Debye)
 q only:      571.947     667.253     641.972
   full:      571.206     667.403     651.256    2779.511
molecular quadrupole (traceless):
                xx          xy          yy          xz          yz          zz
 q only:   -10977.603   67157.266    8073.851   65571.931   76362.817    2903.752
  q+dip:   -11947.565   66666.917    7349.587   66308.202   77319.108    4597.978
   full:   -11938.103   66665.163    7337.958   66310.836   77312.889    4600.146


           -------------------------------------------------
          | TOTAL ENERGY            -4105.184227306357 Eh   |
          | GRADIENT NORM               1.342534194593 Eh/α |
          | HOMO-LUMO GAP               1.855311443876 eV   |
           -------------------------------------------------

------------------------------------------------------------------------
 * finished run on 2020/06/06 at 15:25:34.377     
------------------------------------------------------------------------
 total:
 * wall-time:     0 d,  0 h,  7 min, 17.072 sec
 *  cpu-time:     0 d,  5 h, 24 min, 11.820 sec
 * ratio c/w:    44.505 speedup
 SCF:
 * wall-time:     0 d,  0 h,  6 min, 45.997 sec
 *  cpu-time:     0 d,  5 h, 12 min, 31.861 sec
 * ratio c/w:    46.187 speedup

