      -----------------------------------------------------------      
     |                   =====================                   |     
     |                           x T B                           |     
     |                   =====================                   |     
     |                         S. Grimme                         |     
     |          Mulliken Center for Theoretical Chemistry        |     
     |                    University of Bonn                     |     
      -----------------------------------------------------------      

   * xtb version 6.2.3 (d7bf61a) compiled by 'conda@06d140edd85e' on 2020-05-12

   xtb is free software: you can redistribute it and/or modify it under
   the terms of the GNU Lesser General Public License as published by
   the Free Software Foundation, either version 3 of the License, or
   (at your option) any later version.
   
   xtb is distributed in the hope that it will be useful,
   but WITHOUT ANY WARRANTY; without even the implied warranty of
   MERCHANTABILITY or FITNESS FOR A PARTICULAR PURPOSE.  See the
   GNU Lesser General Public License for more details.
   
   Cite this work as:
   * S. Grimme, C. Bannwarth, P. Shushkov, J. Chem. Theory Comput., 2017,
     13, 1989-2009. DOI: 10.1021/acs.jctc.7b00118
   * C. Bannwarth, S. Ehlert and S. Grimme., J. Chem. Theory Comput., 2019,
     15, 1652-1671. DOI: 10.1021/acs.jctc.8b01176
   * P. Pracht, E. Caldeweyher, S. Ehlert, S. Grimme, ChemRxiv, 2019, preprint.
     DOI: 10.26434/chemrxiv.8326202.v1
   
   for DFT-D4:
   * E. Caldeweyher, C. Bannwarth and S. Grimme, J. Chem. Phys., 2017,
     147, 034112. DOI: 10.1063/1.4993215
   * E. Caldeweyher, S. Ehlert, A. Hansen, H. Neugebauer, S. Spicher,
     C. Bannwarth and S. Grimme, J. Chem. Phys., 2019, 150, 154122.
     DOI: 10.1063/1.5090222
   
   for sTDA-xTB:
   * S. Grimme and C. Bannwarth, J. Chem. Phys., 2016, 145, 054103.
     DOI: 10.1063/1.4959605
   
   in the mass-spec context:
   * V. Asgeirsson, C. Bauer and S. Grimme, Chem. Sci., 2017, 8, 4879.
     DOI: 10.1039/c7sc00601b
   
   for metadynamics refer to:
   * S. Grimme, J. Chem. Theory Comput., 2019, 155, 2847-2862
     DOI: 10.1021/acs.jctc.9b00143
   
   with help from (in alphabetical order)
   C. Bannwarth, F. Bohle, G. Brandenburg, E. Caldeweyher, M. Checinski,
   S. Dohm, S. Ehlert, S. Ehrlich, F. März, H. Neugebauer, J. Pisarek,
   P. Pracht, P. Shushkov, and S. Spicher.
   
 * started run on 2020/09/07 at 19:41:23.927     

           -------------------------------------------------
          |                Calculation Setup                |
           -------------------------------------------------

          program call               : xtb complex_30121.xyz --chrg +9 --uhf 0 --gbsa water
          hostname                   : gold56.cluster.local
          coordinate file            : complex_30121.xyz
          omp threads                :                    64
          number of atoms            :                  2615
          number of electrons        :                  7228
          charge                     :                     9
          spin                       :                   0.0
          first test random number   :      0.74307187734593


molecular fragmentation (1/2 indicates fragments):
111111111111111111111111111111111111111111111111111111111111111111111111
111111111111111111111111111111111111111111111111111111111111111111111111
111111111111111111111111111111111111111111111111111111111111111111111111
111111111111111111111111111111111111111111111111111111111111111111111111
111111111111111111111111111111111111111111111111111111111111111111111111
111111111111111111111111111111111111111111111111111111111111111111111111
111111111111111111111111111111111111111111111111111111111111111111111111
111111111111111111111111111111111111111111111111111111111111111111111111
111111111111111111111111111111111111111111111111111111111111111111111111
111111111111111111111111111111111111111111111111111111111111111111111111
111111111111111111111111111111111111111111111111111111111111111111111111
111111111111111111111111111111111111111111111111111111111111111111111111
111111111111111111111111111111111111111111111111111111111111111111111111
111111111111111111111111111111111111111111111111111111111111111111111111
111111111111111111111111111111111111111111111111111111111111111111111111
111111111111111111111111111111111111111111111111111111111111111111111111
111111111111111111111111111111111111111111111111111111111111111111111111
111111111111111111111111111111111111111111111111111111111111111111111111
111111111111111111111111111111111111111111111111111111111111111111111111
111111111111111111111111111111111111111111111111111111111111111111111111
111111111111111111111111111111111111111111111111111111111111111111111111
111111111111111111111111111111111111111111111111111111111111111111111111
111111111111111111111111111111111111111111111111111111111111111111111111
111111111111111111111111111111111111111111111111111111111111111111111111
111111111111111111111111111111111111111111111111111111111111111111111111
111111111111111111111111111111111111111111111111111111111111111111111111
111111111111111111111111111111111111111111111111111111111111111111111111
111111111111111111111111111111111111111111111111111111111111111111111111
111111111111111111111111111111111111111111111111111111111111111111111111
111111111111111111111111111111111111111111111111111111111111111111111111
111111111111111111111111111111111111111111111111111111111111111111111111
111111111111111111111111111111111111111111111111111111111111111111111111
111111111111111111111111111111111111111111111111111111111111111111111111
111111111111111111111111111111111111111111111111111111111111111111111111
111111111111111111111111111111111111111111111111111111111111111111111111
111111111111111111111111111111111111111111111111111111111111111111111111
11111111112222222222222
# atoms in fragment 1/2:  2602    13
 fragment masses (1/2) :    18371.93       94.11
CMA distance (Bohr)    :  20.781
constraining FC (au)   :  0.0500
########################################################################
[WARNING] Please study the warnings concerning your input carefully
-2- prog_main: XTBPATH is not set, using XTBHOME instead
-1- prog_main: XTBHOME is not set, using HOME instead
########################################################################
           ------------------------------------------------- 
          |                 G F N 2 - x T B                 |
          | Geometry, Frequencies, Noncovalent interactions |
          |            JCTC 2019 parametrisation            |
           ------------------------------------------------- 
             k(s)              :                1.8500
             k(p)              :                2.2300
             k(d)              :                2.2300
             k(f)              :                2.0000
             kEN (H0ij)        :               -2.0000
             D4 a1             :                0.5200
             D4 a2             :                5.0000
             D4 s6             :                1.0000
             D4 s8             :                2.7000
             D4 s9             :                5.0000
             alphaj            :                2.0000

  Z AO/shell   Hii/eV     exponent
  1     Wed Apr 25 08:07:45 CEST 2018   EN: 2.200 GM2: 0.406  GM3: 0.0800  RAES: 1.40
     1s    -10.707211    1.230000
  6     Wed Apr 25 08:07:45 CEST 2018   EN: 2.550 GM2: 0.538  GM3: 0.1500  RAES: 3.00
     2s    -13.970922    2.096432
     2p    -10.063292    1.800000
  7     Wed Apr 25 08:07:45 CEST 2018   EN: 3.040 GM2: 0.461  GM3:-0.0640  RAES: 1.90
     2s    -16.686243    2.339881
     2p    -12.523956    2.014332
  8     Wed Apr 25 08:07:45 CEST 2018   EN: 3.440 GM2: 0.452  GM3:-0.0517  RAES: 1.80
     2s    -20.229985    2.439742
     2p    -15.503117    2.137023
 16     Tue Apr 24 11:44:34 CEST 2018   EN: 2.580 GM2: 0.340  GM3:-0.0502  RAES: 3.10
     3s    -20.029654    1.981333
     3p    -11.377694    2.025643
     3d     -0.420282    1.702555

 Solvent             : water
 Using internal parameter file: .param_gbsa2_water
 Gsolv ref. state (COSMO-RS): gsolv [1 M gas/solution]
 temperature (mdtemp)       :    298.14999999999998     
 dielectric constant        :    80.200000000000003     
 rho                        :    1.0000000000000000     
 mass                       :    18.000000000000000     
 surface tension            :    15.568945408385856     
 probe radius               :   0.97531378999999996     
 Gshift (Eh)                :    1.8574431267947933E-003
 c1                         :    1.5524381700000001     
 soset                      :   0.13032636000000000     
 HB correction              :  T
           ------------------------------------------------- 
          |        Self-Consistent Charge Iterations        |
           ------------------------------------------------- 

          ...................................................
          :                      SETUP                      :
          :.................................................:
          :  # basis functions                6545          :
          :  # atomic orbitals                6539          :
          :  # shells                         3919          :
          :  # electrons                      7228          :
          :  max. iterations                   250          :
          :  Hamiltonian                  GFN2-xTB          :
          :  restarted?                      false          :
          :  GBSA solvation                   true          :
          :  PC potential                    false          :
          :  electronic temp.          300.0000000     K    :
          :  accuracy                    1.0000000          :
          :  -> integral cutoff          0.2500000E+02      :
          :  -> integral neglect         0.1000000E-07      :
          :  -> SCF convergence          0.1000000E-05 Eh   :
          :  -> wf. convergence          0.1000000E-03 e    :
          :  Broyden damping             0.4000000          :
          ...................................................

 iter      E             dE          RMSdq      gap      omega  full diag
   1  -4140.6796035 -0.414068E+04  0.427E+00    1.82       0.0  T
   2  -4153.0220714 -0.123425E+02  0.226E+00    2.38       1.0  T
   3  -4153.5145056 -0.492434E+00  0.120E+00    2.25       1.0  T
   4  -4153.5804806 -0.659750E-01  0.299E-01    1.73       1.0  T
   5  -4153.6961529 -0.115672E+00  0.146E-01    1.76       1.0  T
   6  -4153.7117780 -0.156251E-01  0.756E-02    1.83       1.0  T
   7  -4153.7145053 -0.272735E-02  0.397E-02    1.81       1.0  T
   8  -4153.7156943 -0.118902E-02  0.176E-02    1.78       1.0  T
   9  -4153.7158947 -0.200347E-03  0.109E-02    1.76       1.0  T
  10  -4153.7159980 -0.103290E-03  0.588E-03    1.73       1.0  T
  11  -4153.7160278 -0.298562E-04  0.313E-03    1.72       1.0  T
  12  -4153.7160375 -0.969451E-05  0.173E-03    1.71       1.1  T
  13  -4153.7160403 -0.277095E-05  0.958E-04    1.71       2.0  T
  14  -4153.7160411 -0.864380E-06  0.480E-04    1.71       4.1  T
  15  -4153.7160414 -0.215593E-06  0.243E-04    1.71       8.1  T

   *** convergence criteria satisfied after 15 iterations ***

         #    Occupation            Energy/Eh            Energy/eV
      -------------------------------------------------------------
         1        2.0000           -0.7604673             -20.6934
       ...           ...                  ...                  ...
      3608        2.0000           -0.3578796              -9.7384
      3609        2.0000           -0.3544945              -9.6463
      3610        2.0000           -0.3532953              -9.6137
      3611        2.0000           -0.3523494              -9.5879
      3612        2.0000           -0.3520815              -9.5806
      3613        2.0000           -0.3520329              -9.5793
      3614        2.0000           -0.3494494              -9.5090 (HOMO)
      3615                         -0.2867469              -7.8028 (LUMO)
      3616                         -0.2758890              -7.5073
      3617                         -0.2731267              -7.4322
      3618                         -0.2674723              -7.2783
      3619                         -0.2657645              -7.2318
       ...                                ...                  ...
      6539                          0.7282404              19.8164
      -------------------------------------------------------------
                  HL-Gap            0.0627025 Eh            1.7062 eV
             Fermi-level           -0.3180981 Eh           -8.6559 eV

 SCC (total)                   0 d,  0 h,  6 min, 59.158 sec
 SCC setup                      ...        0 min,  3.174 sec (  0.757%)
 Dispersion                     ...        0 min,  1.963 sec (  0.468%)
 integral evaluation            ...        0 min, 12.822 sec (  3.059%)
 zeroth order Hamiltonian       ...        0 min,  0.349 sec (  0.083%)
 iterations                     ...        6 min, 22.772 sec ( 91.319%)
 molecular gradient             ...        0 min, 17.378 sec (  4.146%)
 printout                       ...        0 min,  0.701 sec (  0.167%)

         :::::::::::::::::::::::::::::::::::::::::::::::::::::
         ::                     SUMMARY                     ::
         :::::::::::::::::::::::::::::::::::::::::::::::::::::
         :: total energy           -4105.247504625168 Eh    ::
         :: total w/o Gsasa/hb     -4104.861729274586 Eh    ::
         :: gradient norm              1.311518771879 Eh/a0 ::
         :: HOMO-LUMO gap              1.706220656332 eV    ::
         ::.................................................::
         :: SCC energy             -4153.777367783804 Eh    ::
         :: -> isotropic ES           14.143057109717 Eh    ::
         :: -> anisotropic ES         -0.730980172532 Eh    ::
         :: -> anisotropic XC          1.171088678568 Eh    ::
         :: -> dispersion             -3.955989212369 Eh    ::
         :: -> Gsolv                  -4.048092918593 Eh    ::
         ::    -> Gborn               -3.662317568010 Eh    ::
         ::    -> Gsasa               -0.063183866546 Eh    ::
         ::    -> Ghb                 -0.324448927164 Eh    ::
         ::    -> Gshift               0.001857443127 Eh    ::
         :: repulsion energy          47.968901387105 Eh    ::
         :: add. restraining           0.000000000000 Eh    ::
         :::::::::::::::::::::::::::::::::::::::::::::::::::::

           -------------------------------------------------
          |                Property Printout                |
           -------------------------------------------------

    * Orbital Energies and Occupations

         #    Occupation            Energy/Eh            Energy/eV
      -------------------------------------------------------------
         1        2.0000           -0.7604673             -20.6934
       ...           ...                  ...                  ...
      3602        2.0000           -0.3672812              -9.9942
      3603        2.0000           -0.3646969              -9.9239
      3604        2.0000           -0.3640845              -9.9072
      3605        2.0000           -0.3630790              -9.8799
      3606        2.0000           -0.3588428              -9.7646
      3607        2.0000           -0.3587305              -9.7616
      3608        2.0000           -0.3578796              -9.7384
      3609        2.0000           -0.3544945              -9.6463
      3610        2.0000           -0.3532953              -9.6137
      3611        2.0000           -0.3523494              -9.5879
      3612        2.0000           -0.3520815              -9.5806
      3613        2.0000           -0.3520329              -9.5793
      3614        2.0000           -0.3494494              -9.5090 (HOMO)
      3615                         -0.2867469              -7.8028 (LUMO)
      3616                         -0.2758890              -7.5073
      3617                         -0.2731267              -7.4322
      3618                         -0.2674723              -7.2783
      3619                         -0.2657645              -7.2318
      3620                         -0.2642784              -7.1914
      3621                         -0.2628392              -7.1522
      3622                         -0.2613505              -7.1117
      3623                         -0.2595202              -7.0619
      3624                         -0.2595051              -7.0615
      3625                         -0.2590139              -7.0481
       ...                                ...                  ...
      6539                          0.7282404              19.8164
      -------------------------------------------------------------
                  HL-Gap            0.0627025 Eh            1.7062 eV
             Fermi-level           -0.3180981 Eh           -8.6559 eV

     #   Z        covCN         q      C6AA      α(0)
     1   7 N      3.496    -0.130    23.805     7.247
     2   1 H      0.860     0.299     0.715     1.325
     3   1 H      0.860     0.309     0.687     1.298
     4   1 H      0.860     0.306     0.697     1.307
     5   6 C      3.787    -0.034    21.201     6.558
     6   1 H      0.925     0.129     1.544     1.943
     7   6 C      3.885    -0.103    22.417     6.731
     8   1 H      0.925     0.100     1.787     2.091
     9   1 H      0.925     0.102     1.768     2.080
    10   6 C      3.802    -0.016    20.862     6.503
    11   1 H      0.926     0.057     2.233     2.337
    12   1 H      0.925     0.072     2.059     2.244
    13  16 S      2.025    -0.196   149.385    20.571
    14   6 C      3.740    -0.067    21.870     6.672
    15   1 H      0.924     0.044     2.390     2.418
    16   1 H      0.925     0.056     2.240     2.341
    17   1 H      0.925     0.050     2.325     2.384
    18   6 C      2.751     0.260    22.617     7.787
    19   8 O      0.859    -0.459    22.896     6.415
    20   7 N      2.686    -0.146    24.160     7.300
    21   1 H      0.860     0.205     1.080     1.628
    22   6 C      3.784     0.007    20.482     6.446
    23   1 H      0.925     0.116     1.650     2.009
    24   6 C      3.806    -0.117    22.733     6.788
    25   1 H      0.924     0.100     1.783     2.088
    26   1 H      0.924     0.090     1.877     2.143
    27   6 C      2.742     0.284    22.197     7.714
    28   8 O      0.861    -0.497    23.725     6.531
    29   7 N      2.639    -0.290    27.478     7.785
    30   1 H      0.860     0.201     1.100     1.643
    31   1 H      0.860     0.242     0.916     1.499
    32   6 C      2.746     0.252    22.759     7.811
    33   8 O      0.857    -0.480    23.353     6.479
    34   7 N      2.683    -0.171    24.703     7.382
    35   1 H      0.860     0.227     0.977     1.548
    36   6 C      3.792     0.003    20.532     6.453
    37   1 H      0.924     0.092     1.856     2.130
    38   6 C      3.847    -0.034    21.152     6.542
    39   1 H      0.925     0.074     2.046     2.237
    40   6 C      3.751    -0.134    23.130     6.859
    41   1 H      0.925     0.035     2.518     2.481
    42   1 H      0.925     0.058     2.217     2.329
    43   1 H      0.924     0.063     2.167     2.302
    44   6 C      3.799    -0.076    21.958     6.672
    45   1 H      0.925     0.048     2.346     2.395
    46   1 H      0.925     0.069     2.096     2.264
    47   6 C      3.743    -0.127    23.020     6.845
    48   1 H      0.925     0.060     2.198     2.319
    49   1 H      0.925     0.039     2.456     2.451
    50   1 H      0.924     0.043     2.409     2.427
    51   6 C      2.755     0.268    22.475     7.763
    52   8 O      0.858    -0.489    23.534     6.504
    53   7 N      2.683    -0.182    24.933     7.416
    54   1 H      0.860     0.216     1.029     1.589
    55   6 C      3.790     0.012    20.392     6.431
    56   1 H      0.924     0.102     1.766     2.078
    57   6 C      3.800    -0.077    21.963     6.672
    58   1 H      0.925     0.068     2.105     2.269
    59   1 H      0.925     0.068     2.111     2.272
    60   6 C      2.956     0.010    27.788     8.646
    61   6 C      2.929    -0.042    29.048     8.839
    62   1 H      0.926     0.044     2.399     2.422
    63   6 C      2.912    -0.034    28.858     8.809
    64   1 H      0.926     0.016     2.794     2.614
    65   6 C      2.923    -0.032    28.805     8.801
    66   1 H      0.926     0.008     2.923     2.674
    67   6 C      2.918    -0.030    28.741     8.791
    68   1 H      0.926     0.043     2.407     2.426
    69   6 C      2.925    -0.039    28.961     8.825
    70   1 H      0.926     0.069     2.096     2.264
    71   6 C      2.748     0.267    22.488     7.765
    72   8 O      0.859    -0.458    22.882     6.413
    73   7 N      2.690    -0.191    25.150     7.448
    74   1 H      0.860     0.197     1.119     1.657
    75   6 C      3.786     0.018    20.279     6.414
    76   1 H      0.924     0.078     2.002     2.213
    77   6 C      3.810    -0.061    21.663     6.625
    78   1 H      0.924     0.066     2.132     2.283
    79   1 H      0.925     0.049     2.328     2.386
    80   6 C      3.795    -0.100    22.418     6.742
    81   1 H      0.925     0.032     2.560     2.502
    82   1 H      0.924     0.036     2.509     2.477
    83   6 C      2.685     0.351    21.038     7.506
    84   8 O      0.856    -0.617    26.534     6.906
    85   8 O      0.856    -0.613    26.440     6.894
    86   6 C      2.744     0.257    22.677     7.797
    87   8 O      0.858    -0.485    23.451     6.493
    88   7 N      2.685    -0.173    24.755     7.389
    89   1 H      0.860     0.216     1.026     1.587
    90   6 C      3.793     0.010    20.415     6.434
    91   1 H      0.924     0.074     2.041     2.234
    92   6 C      3.818    -0.084    22.079     6.687
    93   1 H      0.925     0.071     2.078     2.254
    94   1 H      0.925     0.083     1.944     2.180
    95   6 C      3.791    -0.026    21.045     6.533
    96   1 H      0.925     0.051     2.312     2.378
    97   1 H      0.925     0.031     2.567     2.506
    98  16 S      1.954    -0.191   149.154    20.555
    99   6 C      3.745    -0.067    21.853     6.668
   100   1 H      0.926     0.079     1.993     2.208
   101   1 H      0.925     0.058     2.223     2.332
   102   1 H      0.925     0.057     2.231     2.336
   103   6 C      2.761     0.274    22.371     7.746
   104   8 O      0.861    -0.478    23.309     6.473
   105   7 N      2.700    -0.183    24.968     7.421
   106   1 H      0.860     0.225     0.989     1.558
   107   6 C      3.804     0.027    20.119     6.386
   108   1 H      0.925     0.081     1.972     2.196
   109   6 C      3.819    -0.080    22.015     6.677
   110   1 H      0.925     0.058     2.218     2.329
   111   1 H      0.925     0.077     2.014     2.219
   112   6 C      3.840    -0.025    20.995     6.518
   113   1 H      0.924     0.057     2.234     2.337
   114   6 C      3.763    -0.121    22.856     6.815
   115   1 H      0.925     0.049     2.332     2.388
   116   1 H      0.925     0.058     2.221     2.330
   117   1 H      0.924     0.038     2.477     2.461
   118   6 C      3.743    -0.130    23.075     6.853
   119   1 H      0.924     0.032     2.558     2.501
   120   1 H      0.924     0.048     2.349     2.397
   121   1 H      0.925     0.030     2.585     2.514
   122   6 C      2.754     0.253    22.755     7.811
   123   8 O      0.859    -0.509    23.974     6.565
   124   7 N      2.690    -0.185    25.007     7.427
   125   1 H      0.860     0.212     1.045     1.602
   126   6 C      3.804     0.033    20.011     6.368
   127   1 H      0.925     0.087     1.908     2.160
   128   6 C      3.816    -0.082    22.052     6.684
   129   1 H      0.925     0.061     2.188     2.313
   130   1 H      0.925     0.079     1.991     2.207
   131   6 C      3.807    -0.085    22.124     6.696
   132   1 H      0.925     0.070     2.088     2.259
   133   1 H      0.925     0.070     2.084     2.258
   134   6 C      3.738    -0.029    21.176     6.567
   135   1 H      0.924     0.088     1.896     2.153
   136   1 H      0.925     0.087     1.908     2.160
   137   7 N      2.717    -0.168    24.643     7.373
   138   1 H      0.860     0.217     1.024     1.585
   139   6 C      2.735     0.249    22.824     7.822
   140   7 N      2.694    -0.237    26.189     7.600
   141   1 H      0.860     0.243     0.911     1.495
   142   1 H      0.860     0.244     0.907     1.492
   143   7 N      2.726    -0.255    26.620     7.663
   144   1 H      0.860     0.258     0.853     1.447
   145   1 H      0.860     0.233     0.952     1.528
   146   6 C      2.755     0.272    22.409     7.752
   147   8 O      0.858    -0.489    23.549     6.506
   148   7 N      2.681    -0.199    25.319     7.473
   149   1 H      0.860     0.211     1.049     1.605
   150   6 C      3.790     0.014    20.348     6.424
   151   1 H      0.925     0.089     1.891     2.151
   152   6 C      3.853    -0.024    20.958     6.511
   153   1 H      0.925     0.063     2.166     2.301
   154   6 C      3.761    -0.118    22.812     6.809
   155   1 H      0.924     0.048     2.342     2.393
   156   1 H      0.925     0.034     2.525     2.485
   157   1 H      0.925     0.053     2.281     2.362
   158   6 C      3.798    -0.074    21.920     6.666
   159   1 H      0.925     0.041     2.434     2.440
   160   1 H      0.925     0.047     2.362     2.404
   161   6 C      3.742    -0.122    22.926     6.831
   162   1 H      0.925     0.047     2.358     2.402
   163   1 H      0.925     0.056     2.252     2.347
   164   1 H      0.924     0.046     2.374     2.410
   165   6 C      2.751     0.279    22.281     7.729
   166   8 O      0.859    -0.497    23.727     6.531
   167   7 N      2.681    -0.191    25.152     7.448
   168   1 H      0.860     0.208     1.067     1.618
   169   6 C      3.786     0.027    20.130     6.390
   170   1 H      0.925     0.102     1.764     2.077
   171   6 C      3.808    -0.083    22.081     6.689
   172   1 H      0.924     0.035     2.519     2.482
   173   1 H      0.925     0.055     2.262     2.352
   174   6 C      2.687     0.349    21.078     7.513
   175   8 O      0.855    -0.604    26.230     6.867
   176   8 O      0.856    -0.598    26.065     6.845
   177   6 C      2.745     0.268    22.479     7.763
   178   8 O      0.858    -0.488    23.530     6.504
   179   7 N      2.681    -0.182    24.938     7.417
   180   1 H      0.860     0.203     1.089     1.635
   181   6 C      3.779     0.017    20.320     6.422
   182   1 H      0.924     0.096     1.822     2.111
   183   6 C      3.798    -0.049    21.462     6.596
   184   1 H      0.924     0.040     2.451     2.448
   185   1 H      0.925     0.040     2.449     2.447
   186   6 C      3.797    -0.091    22.232     6.714
   187   1 H      0.924     0.019     2.743     2.590
   188   1 H      0.925     0.023     2.681     2.561
   189   6 C      2.682     0.359    20.906     7.482
   190   8 O      0.856    -0.596    26.018     6.839
   191   8 O      0.857    -0.663    27.717     7.059
   192   6 C      2.741     0.272    22.395     7.748
   193   8 O      0.859    -0.465    23.027     6.434
   194   7 N      2.679    -0.171    24.700     7.381
   195   1 H      0.860     0.208     1.065     1.616
   196   6 C      3.728    -0.045    21.483     6.617
   197   1 H      0.925     0.099     1.790     2.092
   198   1 H      0.925     0.098     1.799     2.097
   199   6 C      2.747     0.273    22.383     7.747
   200   8 O      0.868    -0.503    23.835     6.546
   201   7 N      2.700    -0.150    24.241     7.312
   202   1 H      0.860     0.220     1.008     1.573
   203   6 C      3.790     0.010    20.424     6.436
   204   1 H      0.925     0.075     2.031     2.229
   205   6 C      3.806    -0.090    22.216     6.710
   206   1 H      0.925     0.084     1.937     2.177
   207   1 H      0.925     0.063     2.162     2.300
   208   6 C      3.844    -0.021    20.914     6.505
   209   1 H      0.924     0.034     2.536     2.490
   210   6 C      3.760    -0.131    23.058     6.846
   211   1 H      0.925     0.040     2.451     2.448
   212   1 H      0.924     0.042     2.419     2.432
   213   1 H      0.924     0.070     2.091     2.261
   214   6 C      3.767    -0.133    23.103     6.850
   215   1 H      0.924     0.055     2.260     2.351
   216   1 H      0.924     0.021     2.717     2.578
   217   1 H      0.925     0.053     2.282     2.363
   218   6 C      2.740     0.261    22.600     7.784
   219   8 O      0.858    -0.484    23.431     6.490
   220   7 N      2.677    -0.182    24.941     7.417
   221   1 H      0.860     0.212     1.046     1.602
   222   6 C      3.770     0.000    20.613     6.470
   223   1 H      0.925     0.085     1.925     2.170
   224   6 C      3.804    -0.079    22.013     6.679
   225   1 H      0.925     0.077     2.014     2.219
   226   1 H      0.925     0.061     2.188     2.313
   227   6 C      3.802    -0.092    22.260     6.717
   228   1 H      0.924     0.067     2.123     2.279
   229   1 H      0.924     0.087     1.912     2.163
   230   6 C      3.733    -0.029    21.180     6.568
   231   1 H      0.925     0.096     1.823     2.111
   232   1 H      0.924     0.090     1.878     2.143
   233   7 N      2.737    -0.141    24.056     7.285
   234   1 H      0.860     0.221     1.006     1.571
   235   6 C      2.735     0.246    22.869     7.830
   236   7 N      2.710    -0.254    26.593     7.659
   237   1 H      0.860     0.254     0.868     1.459
   238   1 H      0.860     0.254     0.868     1.459
   239   7 N      2.737    -0.256    26.651     7.667
   240   1 H      0.860     0.229     0.969     1.542
   241   1 H      0.860     0.233     0.954     1.530
   242   6 C      2.737     0.268    22.471     7.761
   243   8 O      0.858    -0.467    23.058     6.438
   244   7 N      2.679    -0.167    24.615     7.369
   245   1 H      0.860     0.221     1.005     1.570
   246   6 C      3.784     0.002    20.561     6.459
   247   1 H      0.925     0.097     1.810     2.104
   248   6 C      3.799    -0.087    22.169     6.704
   249   1 H      0.924     0.078     1.999     2.211
   250   1 H      0.925     0.060     2.203     2.321
   251   6 C      3.848    -0.019    20.878     6.499
   252   1 H      0.924     0.040     2.453     2.449
   253   6 C      3.756    -0.144    23.334     6.887
   254   1 H      0.925     0.048     2.342     2.393
   255   1 H      0.925     0.055     2.256     2.349
   256   1 H      0.924     0.064     2.150     2.293
   257   6 C      3.754    -0.127    22.986     6.836
   258   1 H      0.924     0.030     2.591     2.517
   259   1 H      0.925     0.049     2.333     2.388
   260   1 H      0.925     0.053     2.281     2.362
   261   6 C      2.745     0.270    22.437     7.756
   262   8 O      0.858    -0.478    23.305     6.472
   263   7 N      2.682    -0.184    24.981     7.423
   264   1 H      0.860     0.198     1.114     1.653
   265   6 C      3.779    -0.001    20.614     6.468
   266   1 H      0.925     0.090     1.880     2.144
   267   6 C      3.807    -0.091    22.221     6.710
   268   1 H      0.925     0.071     2.077     2.254
   269   1 H      0.924     0.079     1.987     2.204
   270   6 C      3.797    -0.081    22.043     6.685
   271   1 H      0.924     0.055     2.261     2.351
   272   1 H      0.925     0.069     2.094     2.263
   273   6 C      3.804    -0.096    22.321     6.726
   274   1 H      0.924     0.079     1.994     2.208
   275   1 H      0.925     0.080     1.978     2.200
   276   6 C      3.732    -0.057    21.693     6.648
   277   1 H      0.925     0.119     1.618     1.989
   278   1 H      0.925     0.123     1.591     1.972
   279   7 N      3.487    -0.152    24.277     7.318
   280   1 H      0.860     0.298     0.719     1.328
   281   1 H      0.860     0.302     0.708     1.318
   282   1 H      0.860     0.292     0.739     1.347
   283   6 C      2.743     0.268    22.476     7.762
   284   8 O      0.859    -0.496    23.693     6.526
   285   7 N      2.686    -0.167    24.616     7.369
   286   1 H      0.860     0.226     0.981     1.551
   287   6 C      3.774     0.004    20.537     6.457
   288   1 H      0.925     0.059     2.213     2.326
   289   6 C      3.846    -0.042    21.296     6.564
   290   1 H      0.924     0.060     2.196     2.317
   291   6 C      3.748    -0.138    23.225     6.873
   292   1 H      0.924     0.060     2.193     2.316
   293   1 H      0.925     0.063     2.162     2.299
   294   1 H      0.925     0.065     2.143     2.289
   295   6 C      3.798    -0.074    21.923     6.667
   296   1 H      0.925     0.033     2.549     2.497
   297   1 H      0.924     0.051     2.306     2.375
   298   6 C      3.750    -0.130    23.052     6.847
   299   1 H      0.924     0.035     2.517     2.481
   300   1 H      0.925     0.071     2.074     2.252
   301   1 H      0.925     0.040     2.453     2.449
   302   6 C      2.742     0.278    22.295     7.731
   303   8 O      0.858    -0.450    22.706     6.389
   304   7 N      2.688    -0.166    24.602     7.367
   305   1 H      0.860     0.203     1.093     1.638
   306   6 C      3.799     0.020    20.237     6.405
   307   1 H      0.924     0.093     1.847     2.125
   308   6 C      3.805    -0.080    22.022     6.681
   309   1 H      0.925     0.088     1.894     2.152
   310   1 H      0.925     0.062     2.178     2.308
   311   6 C      2.946    -0.007    28.185     8.707
   312   6 C      2.905    -0.041    29.029     8.834
   313   1 H      0.926     0.045     2.389     2.417
   314   6 C      2.905    -0.088    30.199     9.011
   315   1 H      0.926     0.018     2.766     2.601
   316   6 C      2.836     0.132    25.113     8.212
   317   8 O      1.662    -0.407    20.979     6.183
   318   1 H      0.807     0.319     0.666     1.281
   319   6 C      2.907    -0.069    29.725     8.940
   320   1 H      0.926     0.041     2.436     2.441
   321   6 C      2.901    -0.041    29.012     8.832
   322   1 H      0.926     0.083     1.946     2.182
   323   6 C      2.759     0.267    22.502     7.768
   324   8 O      0.858    -0.490    23.565     6.508
   325   7 N      2.685    -0.162    24.497     7.351
   326   1 H      0.860     0.234     0.947     1.524
   327   6 C      3.809     0.023    20.184     6.395
   328   1 H      0.925     0.064     2.148     2.292
   329   6 C      3.820    -0.078    21.980     6.672
   330   1 H      0.925     0.048     2.347     2.396
   331   1 H      0.925     0.087     1.909     2.161
   332   6 C      3.816    -0.091    22.219     6.709
   333   1 H      0.924     0.073     2.056     2.243
   334   1 H      0.925     0.058     2.223     2.332
   335   6 C      3.811    -0.112    22.627     6.771
   336   1 H      0.925     0.082     1.961     2.190
   337   1 H      0.924     0.103     1.762     2.076
   338   6 C      3.745    -0.058    21.691     6.644
   339   1 H      0.925     0.138     1.474     1.899
   340   1 H      0.924     0.110     1.693     2.035
   341   7 N      3.500    -0.143    24.079     7.288
   342   1 H      0.860     0.294     0.732     1.340
   343   1 H      0.860     0.294     0.731     1.339
   344   1 H      0.860     0.298     0.720     1.329
   345   6 C      2.755     0.269    22.450     7.759
   346   8 O      0.859    -0.508    23.963     6.563
   347   7 N      2.690    -0.191    25.144     7.447
   348   1 H      0.860     0.217     1.024     1.585
   349   6 C      3.795     0.039    19.925     6.356
   350   1 H      0.925     0.063     2.159     2.298
   351   6 C      3.804    -0.100    22.409     6.739
   352   1 H      0.925     0.030     2.592     2.518
   353   1 H      0.925     0.050     2.324     2.384
   354   6 C      2.685     0.374    20.663     7.439
   355   8 O      0.856    -0.615    26.481     6.899
   356   8 O      0.857    -0.640    27.130     6.983
   357   6 C      2.751     0.286    22.157     7.708
   358   8 O      0.866    -0.463    22.966     6.425
   359   7 N      2.694    -0.212    25.622     7.518
   360   1 H      0.860     0.188     1.169     1.694
   361   6 C      3.795     0.010    20.411     6.433
   362   1 H      0.924     0.093     1.847     2.126
   363   6 C      3.724     0.119    18.731     6.180
   364   1 H      0.925     0.009     2.901     2.663
   365   6 C      3.750    -0.129    23.037     6.845
   366   1 H      0.925     0.064     2.149     2.292
   367   1 H      0.925     0.045     2.385     2.415
   368   1 H      0.924     0.084     1.942     2.179
   369   8 O      1.654    -0.470    22.248     6.367
   370   1 H      0.805     0.329     0.640     1.257
   371   6 C      2.751     0.277    22.314     7.735
   372   8 O      0.860    -0.482    23.380     6.483
   373   7 N      2.690    -0.196    25.264     7.465
   374   1 H      0.860     0.207     1.069     1.620
   375   6 C      3.793     0.025    20.163     6.395
   376   1 H      0.925     0.097     1.810     2.104
   377   6 C      3.813    -0.051    21.475     6.596
   378   1 H      0.925     0.064     2.150     2.293
   379   1 H      0.925     0.030     2.587     2.515
   380   6 C      3.804    -0.083    22.080     6.690
   381   1 H      0.925     0.028     2.610     2.526
   382   1 H      0.925     0.012     2.856     2.643
   383   6 C      2.691     0.368    20.761     7.457
   384   8 O      0.858    -0.599    26.082     6.847
   385   8 O      0.857    -0.629    26.832     6.945
   386   6 C      2.744     0.256    22.686     7.799
   387   8 O      0.858    -0.499    23.770     6.537
   388   7 N      2.681    -0.163    24.530     7.356
   389   1 H      0.860     0.206     1.074     1.624
   390   6 C      3.738    -0.041    21.394     6.600
   391   1 H      0.924     0.118     1.626     1.994
   392   1 H      0.925     0.107     1.718     2.050
   393   6 C      2.745     0.269    22.462     7.760
   394   8 O      0.857    -0.425    22.194     6.316
   395   7 N      2.690    -0.175    24.778     7.393
   396   1 H      0.860     0.181     1.210     1.723
   397   6 C      3.797     0.033    20.022     6.371
   398   1 H      0.925     0.074     2.040     2.234
   399   6 C      3.816    -0.072    21.860     6.654
   400   1 H      0.924     0.072     2.060     2.245
   401   1 H      0.925     0.035     2.513     2.479
   402   6 C      2.941    -0.012    28.318     8.728
   403   6 C      2.898    -0.051    29.255     8.868
   404   1 H      0.926     0.026     2.649     2.545
   405   6 C      2.893    -0.064    29.579     8.917
   406   1 H      0.926     0.057     2.232     2.336
   407   6 C      2.825     0.134    25.057     8.202
   408   8 O      1.659    -0.412    21.081     6.198
   409   1 H      0.805     0.353     0.581     1.198
   410   6 C      2.891    -0.075    29.864     8.960
   411   1 H      0.926     0.057     2.230     2.335
   412   6 C      2.905    -0.032    28.808     8.801
   413   1 H      0.926     0.049     2.337     2.390
   414   6 C      2.765     0.272    22.404     7.752
   415   8 O      0.859    -0.508    23.973     6.565
   416   7 N      2.681    -0.158    24.425     7.340
   417   1 H      0.860     0.225     0.987     1.556
   418   6 C      3.784     0.010    20.434     6.439
   419   1 H      0.925     0.088     1.896     2.154
   420   6 C      3.807    -0.074    21.903     6.662
   421   1 H      0.925     0.074     2.046     2.237
   422   1 H      0.925     0.058     2.221     2.331
   423   6 C      2.954    -0.010    28.262     8.720
   424   6 C      2.896    -0.056    29.396     8.890
   425   1 H      0.926     0.042     2.427     2.436
   426   6 C      2.910    -0.081    30.027     8.985
   427   1 H      0.926     0.034     2.528     2.486
   428   6 C      2.838     0.145    24.844     8.168
   429   8 O      1.662    -0.405    20.947     6.178
   430   1 H      0.805     0.341     0.609     1.226
   431   6 C      2.906    -0.070    29.755     8.944
   432   1 H      0.926     0.085     1.924     2.169
   433   6 C      2.913    -0.045    29.117     8.848
   434   1 H      0.926     0.053     2.282     2.362
   435   6 C      2.738     0.269    22.448     7.757
   436   8 O      0.858    -0.533    24.531     6.640
   437   7 N      2.684    -0.154    24.340     7.327
   438   1 H      0.860     0.246     0.897     1.484
   439   6 C      3.780    -0.008    20.741     6.488
   440   1 H      0.925     0.094     1.839     2.121
   441   6 C      3.723     0.134    18.507     6.143
   442   1 H      0.925     0.013     2.849     2.640
   443   6 C      3.753    -0.120    22.862     6.818
   444   1 H      0.925     0.053     2.281     2.362
   445   1 H      0.925     0.047     2.354     2.400
   446   1 H      0.925     0.049     2.330     2.387
   447   8 O      1.665    -0.465    22.151     6.354
   448   1 H      0.807     0.331     0.636     1.252
   449   6 C      2.747     0.260    22.623     7.788
   450   8 O      0.864    -0.468    23.088     6.442
   451   7 N      2.692    -0.156    24.372     7.332
   452   1 H      0.860     0.205     1.083     1.630
   453   6 C      3.788     0.008    20.459     6.442
   454   1 H      0.924     0.092     1.856     2.131
   455   6 C      3.847    -0.034    21.143     6.540
   456   1 H      0.925     0.076     2.025     2.225
   457   6 C      3.753    -0.123    22.913     6.826
   458   1 H      0.925     0.034     2.525     2.485
   459   1 H      0.925     0.043     2.408     2.427
   460   1 H      0.924     0.061     2.185     2.311
   461   6 C      3.796    -0.090    22.214     6.711
   462   1 H      0.924     0.054     2.265     2.353
   463   1 H      0.925     0.050     2.317     2.380
   464   6 C      3.746    -0.122    22.916     6.828
   465   1 H      0.924     0.048     2.345     2.395
   466   1 H      0.925     0.057     2.235     2.338
   467   1 H      0.924     0.052     2.296     2.370
   468   6 C      2.788     0.266    22.515     7.772
   469   8 O      0.859    -0.514    24.106     6.583
   470   7 N      2.689    -0.140    24.035     7.281
   471   1 H      0.860     0.252     0.874     1.465
   472   6 C      3.797    -0.027    21.052     6.533
   473   1 H      0.925     0.067     2.122     2.278
   474   1 H      0.924     0.102     1.767     2.079
   475   6 C      2.758     0.267    22.500     7.768
   476   8 O      0.857    -0.495    23.680     6.524
   477   7 N      2.698    -0.153    24.308     7.322
   478   1 H      0.860     0.202     1.096     1.640
   479   6 C      3.782     0.002    20.572     6.461
   480   1 H      0.924     0.105     1.741     2.063
   481   6 C      3.840    -0.020    20.907     6.505
   482   1 H      0.924     0.037     2.493     2.469
   483   6 C      3.751    -0.110    22.668     6.790
   484   1 H      0.924     0.050     2.315     2.379
   485   1 H      0.925     0.048     2.346     2.395
   486   1 H      0.924     0.022     2.697     2.568
   487   6 C      3.806    -0.070    21.838     6.653
   488   1 H      0.924     0.052     2.293     2.368
   489   1 H      0.924     0.037     2.492     2.468
   490   6 C      3.752    -0.118    22.822     6.813
   491   1 H      0.925     0.055     2.253     2.347
   492   1 H      0.924     0.047     2.357     2.401
   493   1 H      0.924     0.050     2.326     2.385
   494   6 C      2.739     0.264    22.551     7.775
   495   8 O      0.858    -0.488    23.520     6.502
   496   7 N      2.675    -0.174    24.761     7.390
   497   1 H      0.860     0.217     1.022     1.583
   498   6 C      3.728    -0.029    21.195     6.573
   499   1 H      0.924     0.082     1.957     2.188
   500   1 H      0.925     0.098     1.804     2.100
   501   6 C      2.744     0.284    22.194     7.714
   502   8 O      0.859    -0.503    23.854     6.548
   503   7 N      2.685    -0.182    24.944     7.418
   504   1 H      0.860     0.240     0.924     1.506
   505   6 C      3.784     0.031    20.074     6.382
   506   1 H      0.925     0.055     2.255     2.348
   507   6 C      3.807    -0.089    22.197     6.707
   508   1 H      0.925     0.118     1.631     1.997
   509   1 H      0.925     0.091     1.868     2.137
   510   6 C      3.134     0.052    26.624     8.446
   511   7 N      2.764    -0.020    21.640     6.909
   512   1 H      0.860     0.246     0.899     1.485
   513   6 C      3.002     0.056    26.733     8.481
   514   1 H      0.926     0.151     1.383     1.839
   515   7 N      2.827    -0.005    21.356     6.864
   516   1 H      0.860     0.268     0.819     1.417
   517   6 C      2.947    -0.005    28.142     8.701
   518   1 H      0.925     0.139     1.466     1.893
   519   6 C      2.748     0.263    22.565     7.778
   520   8 O      0.858    -0.484    23.429     6.490
   521   7 N      2.708    -0.154    24.325     7.325
   522   1 H      0.860     0.197     1.121     1.658
   523   6 C      3.795     0.025    20.155     6.393
   524   1 H      0.925     0.062     2.172     2.305
   525   6 C      3.821    -0.077    21.950     6.667
   526   1 H      0.925     0.043     2.407     2.426
   527   1 H      0.925     0.048     2.342     2.393
   528   6 C      3.851    -0.012    20.758     6.480
   529   1 H      0.925     0.029     2.596     2.520
   530   6 C      3.774    -0.120    22.833     6.809
   531   1 H      0.925     0.055     2.256     2.349
   532   1 H      0.924     0.055     2.257     2.349
   533   1 H      0.925     0.033     2.545     2.495
   534   6 C      3.768    -0.137    23.175     6.861
   535   1 H      0.924     0.062     2.175     2.306
   536   1 H      0.924     0.073     2.050     2.239
   537   1 H      0.924     0.038     2.474     2.460
   538   6 C      2.749     0.282    22.220     7.719
   539   8 O      0.862    -0.471    23.139     6.449
   540   7 N      2.685    -0.189    25.106     7.442
   541   1 H      0.860     0.223     0.997     1.564
   542   6 C      3.788     0.002    20.564     6.459
   543   1 H      0.925     0.088     1.899     2.155
   544   6 C      3.822    -0.074    21.903     6.660
   545   1 H      0.925     0.052     2.295     2.369
   546   1 H      0.924     0.061     2.186     2.312
   547   6 C      3.858    -0.019    20.881     6.499
   548   1 H      0.925     0.043     2.411     2.428
   549   6 C      3.775    -0.132    23.065     6.843
   550   1 H      0.924     0.060     2.195     2.317
   551   1 H      0.925     0.060     2.195     2.317
   552   1 H      0.924     0.046     2.368     2.406
   553   6 C      3.754    -0.120    22.848     6.816
   554   1 H      0.924     0.033     2.551     2.498
   555   1 H      0.925     0.057     2.239     2.340
   556   1 H      0.924     0.028     2.618     2.530
   557   6 C      2.747     0.272    22.403     7.750
   558   8 O      0.862    -0.475    23.246     6.464
   559   7 N      2.694    -0.183    24.970     7.422
   560   1 H      0.860     0.214     1.038     1.596
   561   6 C      3.793     0.026    20.147     6.392
   562   1 H      0.925     0.070     2.085     2.258
   563   6 C      3.729     0.126    18.629     6.162
   564   1 H      0.925     0.027     2.624     2.533
   565   6 C      3.759    -0.121    22.873     6.818
   566   1 H      0.924     0.054     2.276     2.360
   567   1 H      0.924     0.081     1.965     2.192
   568   1 H      0.925     0.051     2.305     2.374
   569   8 O      1.658    -0.500    22.898     6.460
   570   1 H      0.805     0.329     0.640     1.256
   571   6 C      2.746     0.266    22.514     7.769
   572   8 O      0.857    -0.453    22.764     6.397
   573   7 N      2.675    -0.191    25.137     7.446
   574   1 H      0.860     0.210     1.055     1.609
   575   6 C      3.768    -0.003    20.670     6.479
   576   1 H      0.925     0.088     1.900     2.156
   577   6 C      3.794    -0.081    22.053     6.687
   578   1 H      0.925     0.072     2.059     2.244
   579   1 H      0.925     0.068     2.107     2.270
   580   6 C      3.802    -0.087    22.155     6.701
   581   1 H      0.924     0.066     2.125     2.280
   582   1 H      0.925     0.059     2.208     2.324
   583   6 C      3.796    -0.101    22.435     6.745
   584   1 H      0.924     0.082     1.960     2.189
   585   1 H      0.925     0.093     1.852     2.128
   586   6 C      3.740    -0.053    21.600     6.631
   587   1 H      0.924     0.120     1.612     1.985
   588   1 H      0.925     0.101     1.780     2.086
   589   7 N      3.486    -0.149    24.219     7.309
   590   1 H      0.860     0.292     0.737     1.345
   591   1 H      0.860     0.300     0.714     1.324
   592   1 H      0.860     0.308     0.690     1.302
   593   6 C      2.742     0.282    22.216     7.717
   594   8 O      0.860    -0.498    23.741     6.533
   595   7 N      2.681    -0.156    24.379     7.333
   596   1 H      0.860     0.218     1.020     1.582
   597   6 C      3.777     0.017    20.311     6.421
   598   1 H      0.925     0.087     1.909     2.161
   599   6 C      3.676     0.076    19.527     6.331
   600   1 H      0.925     0.048     2.343     2.394
   601   1 H      0.925     0.041     2.437     2.441
   602   8 O      1.657    -0.472    22.302     6.375
   603   1 H      0.805     0.350     0.588     1.204
   604   6 C      2.752     0.254    22.721     7.805
   605   8 O      0.858    -0.501    23.813     6.543
   606   7 N      2.726    -0.096    23.119     7.141
   607   6 C      3.798    -0.020    20.934     6.515
   608   1 H      0.925     0.054     2.271     2.356
   609   1 H      0.925     0.064     2.158     2.297
   610   6 C      3.811    -0.079    21.994     6.676
   611   1 H      0.925     0.076     2.018     2.221
   612   1 H      0.925     0.074     2.045     2.236
   613   6 C      3.853    -0.078    21.946     6.663
   614   1 H      0.925     0.081     1.970     2.195
   615   1 H      0.924     0.079     1.989     2.206
   616   6 C      3.799     0.003    20.537     6.452
   617   1 H      0.925     0.101     1.773     2.082
   618   6 C      2.757     0.272    22.406     7.751
   619   8 O      0.860    -0.488    23.522     6.503
   620   7 N      2.683    -0.134    23.916     7.263
   621   1 H      0.860     0.216     1.029     1.589
   622   6 C      3.791     0.009    20.437     6.438
   623   1 H      0.925     0.099     1.790     2.092
   624   6 C      3.683     0.064    19.711     6.357
   625   1 H      0.925     0.064     2.155     2.296
   626   1 H      0.924     0.046     2.366     2.405
   627   8 O      1.656    -0.484    22.541     6.409
   628   1 H      0.805     0.348     0.592     1.208
   629   6 C      2.753     0.252    22.762     7.812
   630   8 O      0.858    -0.479    23.331     6.476
   631   7 N      2.699    -0.176    24.813     7.398
   632   1 H      0.860     0.229     0.969     1.542
   633   6 C      3.792     0.016    20.318     6.419
   634   1 H      0.924     0.101     1.775     2.084
   635   6 C      3.821    -0.094    22.273     6.716
   636   1 H      0.924     0.066     2.134     2.284
   637   1 H      0.924     0.088     1.901     2.156
   638   6 C      3.839    -0.026    21.009     6.521
   639   1 H      0.924     0.054     2.275     2.359
   640   6 C      3.755    -0.141    23.284     6.880
   641   1 H      0.925     0.063     2.166     2.302
   642   1 H      0.924     0.061     2.188     2.313
   643   1 H      0.925     0.028     2.610     2.526
   644   6 C      3.754    -0.134    23.130     6.858
   645   1 H      0.924     0.051     2.308     2.376
   646   1 H      0.925     0.065     2.137     2.286
   647   1 H      0.925     0.040     2.444     2.445
   648   6 C      2.746     0.262    22.578     7.780
   649   8 O      0.861    -0.480    23.335     6.477
   650   7 N      2.689    -0.178    24.863     7.406
   651   1 H      0.860     0.221     1.007     1.572
   652   6 C      3.791     0.024    20.181     6.398
   653   1 H      0.925     0.116     1.643     2.004
   654   6 C      3.815    -0.124    22.868     6.806
   655   1 H      0.925     0.081     1.964     2.192
   656   1 H      0.924     0.120     1.610     1.984
   657   6 C      2.744     0.303    21.850     7.654
   658   8 O      0.875    -0.488    23.516     6.502
   659   7 N      2.655    -0.294    27.589     7.801
   660   1 H      0.860     0.226     0.984     1.554
   661   1 H      0.860     0.227     0.978     1.550
   662   6 C      2.749     0.289    22.109     7.699
   663   8 O      0.863    -0.470    23.132     6.449
   664   7 N      2.684    -0.199    25.330     7.475
   665   1 H      0.860     0.214     1.037     1.595
   666   6 C      3.769     0.008    20.485     6.450
   667   1 H      0.925     0.070     2.085     2.258
   668   6 C      3.741    -0.139    23.257     6.881
   669   1 H      0.924     0.083     1.944     2.180
   670   1 H      0.925     0.057     2.235     2.338
   671   1 H      0.925     0.090     1.880     2.144
   672   6 C      2.744     0.268    22.478     7.763
   673   8 O      0.860    -0.524    24.325     6.613
   674   7 N      2.687    -0.161    24.477     7.348
   675   1 H      0.860     0.233     0.954     1.530
   676   6 C      3.774     0.006    20.499     6.451
   677   1 H      0.925     0.058     2.227     2.334
   678   6 C      3.747    -0.142    23.299     6.885
   679   1 H      0.925     0.076     2.025     2.225
   680   1 H      0.925     0.073     2.056     2.242
   681   1 H      0.924     0.085     1.924     2.169
   682   6 C      2.755     0.264    22.541     7.774
   683   8 O      0.860    -0.506    23.923     6.558
   684   7 N      2.688    -0.167    24.608     7.368
   685   1 H      0.860     0.259     0.849     1.443
   686   6 C      3.797     0.002    20.545     6.454
   687   1 H      0.925     0.105     1.741     2.063
   688   6 C      3.796    -0.094    22.300     6.724
   689   1 H      0.925     0.072     2.066     2.248
   690   1 H      0.925     0.084     1.941     2.179
   691   6 C      3.804    -0.091    22.235     6.713
   692   1 H      0.925     0.083     1.948     2.183
   693   1 H      0.924     0.064     2.148     2.292
   694   6 C      3.800    -0.095    22.318     6.726
   695   1 H      0.924     0.111     1.692     2.034
   696   1 H      0.925     0.084     1.938     2.177
   697   6 C      3.734    -0.051    21.583     6.630
   698   1 H      0.924     0.102     1.763     2.076
   699   1 H      0.925     0.115     1.652     2.010
   700   7 N      3.488    -0.149    24.210     7.308
   701   1 H      0.860     0.304     0.700     1.311
   702   1 H      0.860     0.286     0.757     1.363
   703   1 H      0.860     0.294     0.732     1.340
   704   6 C      2.752     0.267    22.488     7.765
   705   8 O      0.858    -0.493    23.634     6.518
   706   7 N      2.685    -0.177    24.838     7.402
   707   1 H      0.860     0.214     1.039     1.597
   708   6 C      3.797     0.026    20.146     6.391
   709   1 H      0.925     0.072     2.068     2.249
   710   6 C      3.668     0.069    19.660     6.357
   711   1 H      0.925     0.046     2.377     2.411
   712   1 H      0.924     0.046     2.376     2.411
   713   8 O      1.646    -0.498    22.862     6.454
   714   1 H      0.806     0.357     0.572     1.188
   715   6 C      2.751     0.268    22.466     7.761
   716   8 O      0.861    -0.525    24.352     6.616
   717   7 N      2.688    -0.181    24.927     7.415
   718   1 H      0.860     0.226     0.984     1.554
   719   6 C      3.802     0.037    19.957     6.360
   720   1 H      0.924     0.060     2.199     2.319
   721   6 C      3.799    -0.040    21.289     6.570
   722   1 H      0.924     0.052     2.297     2.370
   723   1 H      0.925     0.051     2.307     2.375
   724   6 C      3.811    -0.085    22.121     6.695
   725   1 H      0.924     0.026     2.638     2.540
   726   1 H      0.924     0.016     2.798     2.616
   727   6 C      2.688     0.373    20.680     7.442
   728   8 O      0.857    -0.639    27.090     6.978
   729   8 O      0.857    -0.652    27.421     7.021
   730   6 C      2.755     0.267    22.493     7.766
   731   8 O      0.858    -0.501    23.814     6.543
   732   7 N      2.697    -0.193    25.183     7.453
   733   1 H      0.860     0.210     1.055     1.609
   734   6 C      3.790     0.021    20.230     6.406
   735   1 H      0.925     0.095     1.835     2.118
   736   6 C      3.801    -0.076    21.957     6.671
   737   1 H      0.925     0.054     2.271     2.357
   738   1 H      0.925     0.083     1.947     2.182
   739   6 C      3.845    -0.013    20.770     6.483
   740   1 H      0.924     0.044     2.401     2.423
   741   6 C      3.773    -0.117    22.775     6.800
   742   1 H      0.924     0.015     2.808     2.620
   743   1 H      0.924     0.052     2.291     2.367
   744   1 H      0.925     0.053     2.286     2.364
   745   6 C      3.764    -0.129    23.021     6.839
   746   1 H      0.925     0.043     2.408     2.426
   747   1 H      0.925     0.070     2.084     2.257
   748   1 H      0.925     0.060     2.194     2.317
   749   6 C      2.752     0.284    22.182     7.712
   750   8 O      0.864    -0.474    23.213     6.460
   751   7 N      2.682    -0.214    25.653     7.522
   752   1 H      0.860     0.187     1.176     1.699
   753   6 C      3.775     0.049    19.780     6.337
   754   1 H      0.924     0.063     2.160     2.299
   755   6 C      3.801    -0.087    22.159     6.702
   756   1 H      0.924     0.025     2.661     2.551
   757   1 H      0.925     0.056     2.252     2.347
   758   6 C      2.688     0.376    20.629     7.433
   759   8 O      0.857    -0.641    27.135     6.984
   760   8 O      0.857    -0.650    27.376     7.015
   761   6 C      2.745     0.275    22.350     7.741
   762   8 O      0.857    -0.520    24.225     6.599
   763   7 N      2.678    -0.189    25.101     7.441
   764   1 H      0.860     0.196     1.128     1.664
   765   6 C      3.791     0.023    20.193     6.400
   766   1 H      0.925     0.064     2.148     2.292
   767   6 C      3.806    -0.067    21.775     6.643
   768   1 H      0.925     0.050     2.326     2.385
   769   1 H      0.924     0.056     2.243     2.342
   770   6 C      3.783    -0.074    21.936     6.672
   771   1 H      0.925     0.063     2.168     2.303
   772   1 H      0.925     0.049     2.330     2.387
   773   6 C      3.795    -0.092    22.255     6.718
   774   1 H      0.924     0.072     2.061     2.245
   775   1 H      0.925     0.080     1.981     2.201
   776   6 C      3.738    -0.046    21.475     6.612
   777   1 H      0.924     0.120     1.615     1.988
   778   1 H      0.925     0.109     1.707     2.043
   779   7 N      3.496    -0.140    24.022     7.279
   780   1 H      0.860     0.314     0.672     1.285
   781   1 H      0.860     0.290     0.743     1.350
   782   1 H      0.860     0.303     0.706     1.316
   783   6 C      2.761     0.281    22.244     7.724
   784   8 O      0.858    -0.486    23.479     6.497
   785   7 N      2.692    -0.187    25.043     7.432
   786   1 H      0.860     0.213     1.041     1.598
   787   6 C      3.793     0.010    20.422     6.435
   788   1 H      0.925     0.078     2.002     2.213
   789   6 C      3.758    -0.133    23.100     6.852
   790   1 H      0.925     0.078     2.002     2.213
   791   1 H      0.925     0.064     2.156     2.296
   792   1 H      0.925     0.082     1.954     2.186
   793   6 C      2.745     0.288    22.123     7.701
   794   8 O      0.858    -0.439    22.473     6.356
   795   7 N      2.686    -0.190    25.114     7.443
   796   1 H      0.860     0.205     1.079     1.627
   797   6 C      3.788     0.014    20.354     6.426
   798   1 H      0.924     0.089     1.891     2.151
   799   6 C      3.844    -0.024    20.971     6.514
   800   1 H      0.925     0.056     2.244     2.343
   801   6 C      3.746    -0.119    22.845     6.818
   802   1 H      0.924     0.070     2.091     2.261
   803   1 H      0.925     0.058     2.217     2.328
   804   1 H      0.924     0.046     2.372     2.409
   805   6 C      3.804    -0.060    21.647     6.624
   806   1 H      0.925     0.010     2.895     2.661
   807   1 H      0.925     0.032     2.564     2.504
   808   6 C      3.751    -0.112    22.709     6.796
   809   1 H      0.924     0.068     2.105     2.269
   810   1 H      0.925     0.038     2.470     2.458
   811   1 H      0.925     0.039     2.467     2.456
   812   6 C      2.746     0.270    22.441     7.757
   813   8 O      0.859    -0.492    23.600     6.513
   814   7 N      2.681    -0.188    25.085     7.439
   815   1 H      0.860     0.200     1.107     1.648
   816   6 C      3.742    -0.021    21.027     6.542
   817   1 H      0.925     0.094     1.841     2.122
   818   1 H      0.925     0.087     1.911     2.162
   819   6 C      2.745     0.285    22.163     7.708
   820   8 O      0.865    -0.503    23.847     6.547
   821   7 N      2.689    -0.166    24.603     7.367
   822   1 H      0.860     0.183     1.196     1.713
   823   6 C      3.781     0.019    20.273     6.414
   824   1 H      0.925     0.074     2.045     2.236
   825   6 C      3.807    -0.077    21.967     6.672
   826   1 H      0.925     0.071     2.070     2.250
   827   1 H      0.925     0.064     2.149     2.293
   828   6 C      3.797    -0.076    21.957     6.672
   829   1 H      0.924     0.049     2.328     2.386
   830   1 H      0.925     0.052     2.296     2.369
   831   6 C      3.731    -0.031    21.225     6.576
   832   1 H      0.925     0.095     1.832     2.116
   833   1 H      0.925     0.090     1.880     2.144
   834   7 N      2.701    -0.151    24.269     7.317
   835   1 H      0.860     0.245     0.904     1.489
   836   6 C      2.733     0.252    22.768     7.812
   837   7 N      2.720    -0.258    26.693     7.673
   838   1 H      0.860     0.243     0.913     1.497
   839   1 H      0.860     0.233     0.951     1.528
   840   7 N      2.725    -0.258    26.681     7.672
   841   1 H      0.860     0.235     0.943     1.521
   842   1 H      0.860     0.240     0.924     1.506
   843   6 C      2.751     0.279    22.282     7.730
   844   8 O      0.859    -0.495    23.663     6.522
   845   7 N      2.691    -0.158    24.424     7.340
   846   1 H      0.860     0.220     1.008     1.572
   847   6 C      3.787     0.038    19.944     6.361
   848   1 H      0.925     0.070     2.089     2.260
   849   6 C      3.809    -0.113    22.646     6.774
   850   1 H      0.924     0.104     1.749     2.068
   851   1 H      0.925     0.077     2.006     2.215
   852   6 C      2.739     0.278    22.302     7.732
   853   8 O      0.856    -0.517    24.172     6.592
   854   7 N      2.640    -0.257    26.672     7.670
   855   1 H      0.860     0.254     0.868     1.460
   856   1 H      0.860     0.240     0.924     1.505
   857   6 C      2.748     0.263    22.562     7.778
   858   8 O      0.857    -0.481    23.377     6.482
   859   7 N      2.681    -0.160    24.460     7.345
   860   1 H      0.860     0.191     1.156     1.684
   861   6 C      3.783     0.006    20.488     6.448
   862   1 H      0.925     0.110     1.699     2.039
   863   6 C      3.786    -0.030    21.125     6.547
   864   1 H      0.925     0.056     2.244     2.343
   865   1 H      0.925     0.116     1.648     2.008
   866  16 S      1.900    -0.250   151.797    20.737
   867   1 H      0.923     0.139     1.470     1.896
   868   6 C      2.742     0.269    22.456     7.759
   869   8 O      0.857    -0.454    22.799     6.402
   870   7 N      2.680    -0.166    24.601     7.366
   871   1 H      0.860     0.206     1.077     1.626
   872   6 C      3.790     0.015    20.334     6.422
   873   1 H      0.925     0.093     1.852     2.128
   874   6 C      3.801    -0.107    22.538     6.759
   875   1 H      0.924     0.083     1.947     2.182
   876   1 H      0.925     0.078     2.004     2.214
   877   6 C      2.739     0.277    22.312     7.734
   878   8 O      0.859    -0.469    23.104     6.445
   879   7 N      2.635    -0.292    27.536     7.793
   880   1 H      0.860     0.263     0.836     1.433
   881   1 H      0.860     0.223     0.998     1.565
   882   6 C      2.749     0.272    22.403     7.750
   883   8 O      0.862    -0.476    23.257     6.466
   884   7 N      2.695    -0.151    24.277     7.318
   885   1 H      0.860     0.196     1.125     1.662
   886   6 C      3.751    -0.040    21.351     6.590
   887   1 H      0.925     0.136     1.488     1.908
   888   1 H      0.925     0.110     1.699     2.038
   889   6 C      2.746     0.264    22.546     7.775
   890   8 O      0.863    -0.494    23.649     6.520
   891   7 N      2.678    -0.162    24.515     7.354
   892   1 H      0.860     0.206     1.074     1.623
   893   6 C      3.789     0.011    20.400     6.433
   894   1 H      0.925     0.101     1.780     2.086
   895   6 C      3.848    -0.015    20.807     6.488
   896   1 H      0.925     0.052     2.300     2.372
   897   6 C      3.756    -0.125    22.945     6.830
   898   1 H      0.925     0.053     2.281     2.362
   899   1 H      0.924     0.023     2.693     2.566
   900   1 H      0.925     0.067     2.122     2.278
   901   6 C      3.761    -0.130    23.035     6.842
   902   1 H      0.925     0.070     2.089     2.260
   903   1 H      0.925     0.053     2.286     2.365
   904   1 H      0.925     0.052     2.300     2.372
   905   6 C      2.751     0.273    22.391     7.748
   906   8 O      0.859    -0.487    23.493     6.499
   907   7 N      2.681    -0.174    24.764     7.391
   908   1 H      0.860     0.221     1.006     1.571
   909   6 C      3.787     0.015    20.345     6.424
   910   1 H      0.925     0.063     2.161     2.299
   911   6 C      3.852    -0.027    21.012     6.520
   912   1 H      0.925     0.030     2.585     2.514
   913   6 C      3.760    -0.121    22.861     6.816
   914   1 H      0.925     0.049     2.335     2.390
   915   1 H      0.924     0.042     2.417     2.431
   916   1 H      0.924     0.064     2.147     2.291
   917   6 C      3.800    -0.068    21.804     6.648
   918   1 H      0.925     0.031     2.566     2.505
   919   1 H      0.925     0.048     2.347     2.396
   920   6 C      3.749    -0.117    22.809     6.812
   921   1 H      0.925     0.032     2.553     2.499
   922   1 H      0.924     0.050     2.321     2.382
   923   1 H      0.924     0.061     2.192     2.315
   924   6 C      2.744     0.264    22.548     7.775
   925   8 O      0.863    -0.479    23.327     6.476
   926   7 N      2.688    -0.160    24.468     7.346
   927   1 H      0.860     0.207     1.072     1.622
   928   6 C      3.791     0.003    20.545     6.455
   929   1 H      0.925     0.094     1.841     2.122
   930   6 C      3.728     0.111    18.854     6.199
   931   1 H      0.925     0.053     2.285     2.364
   932   6 C      3.745    -0.152    23.513     6.917
   933   1 H      0.925     0.068     2.102     2.267
   934   1 H      0.925     0.069     2.094     2.263
   935   1 H      0.924     0.057     2.233     2.337
   936   8 O      1.660    -0.492    22.717     6.434
   937   1 H      0.806     0.336     0.623     1.240
   938   6 C      2.757     0.265    22.526     7.772
   939   8 O      0.861    -0.481    23.365     6.481
   940   7 N      2.685    -0.179    24.885     7.409
   941   1 H      0.860     0.220     1.008     1.573
   942   6 C      3.797     0.012    20.380     6.428
   943   1 H      0.925     0.108     1.716     2.049
   944   6 C      3.812    -0.076    21.935     6.666
   945   1 H      0.925     0.078     1.995     2.209
   946   1 H      0.924     0.058     2.227     2.334
   947   6 C      3.808    -0.095    22.314     6.724
   948   1 H      0.925     0.070     2.086     2.259
   949   1 H      0.924     0.075     2.036     2.232
   950   6 C      3.801    -0.097    22.349     6.731
   951   1 H      0.925     0.085     1.926     2.170
   952   1 H      0.925     0.078     1.996     2.209
   953   6 C      3.727    -0.049    21.555     6.629
   954   1 H      0.925     0.131     1.528     1.933
   955   1 H      0.925     0.128     1.549     1.946
   956   7 N      3.480    -0.147    24.163     7.301
   957   1 H      0.860     0.298     0.720     1.329
   958   1 H      0.860     0.296     0.726     1.335
   959   1 H      0.860     0.285     0.759     1.364
   960   6 C      2.751     0.270    22.436     7.756
   961   8 O      0.859    -0.483    23.417     6.488
   962   7 N      2.691    -0.213    25.641     7.521
   963   1 H      0.860     0.202     1.094     1.639
   964   6 C      3.786     0.039    19.942     6.361
   965   1 H      0.924     0.061     2.186     2.312
   966   6 C      3.806    -0.107    22.535     6.758
   967   1 H      0.925     0.047     2.358     2.401
   968   1 H      0.924     0.037     2.495     2.470
   969   6 C      2.689     0.369    20.750     7.455
   970   8 O      0.859    -0.635    26.992     6.966
   971   8 O      0.859    -0.652    27.420     7.021
   972   6 C      2.757     0.275    22.356     7.743
   973   8 O      0.858    -0.472    23.183     6.455
   974   7 N      2.688    -0.202    25.391     7.484
   975   1 H      0.860     0.224     0.993     1.561
   976   6 C      3.801     0.020    20.243     6.406
   977   1 H      0.925     0.066     2.131     2.283
   978   6 C      3.801    -0.068    21.803     6.648
   979   1 H      0.924     0.062     2.174     2.306
   980   1 H      0.925     0.067     2.120     2.277
   981   6 C      3.793    -0.110    22.603     6.770
   982   1 H      0.925     0.050     2.319     2.381
   983   1 H      0.925     0.032     2.565     2.504
   984   6 C      2.684     0.370    20.730     7.451
   985   8 O      0.860    -0.588    25.834     6.815
   986   8 O      0.859    -0.624    26.711     6.929
   987   6 C      2.765     0.258    22.662     7.796
   988   8 O      0.862    -0.511    24.021     6.571
   989   7 N      2.689    -0.176    24.807     7.397
   990   1 H      0.860     0.235     0.944     1.522
   991   6 C      3.790     0.019    20.262     6.411
   992   1 H      0.925     0.102     1.771     2.081
   993   6 C      3.756    -0.135    23.160     6.862
   994   1 H      0.925     0.075     2.028     2.227
   995   1 H      0.925     0.071     2.075     2.252
   996   1 H      0.925     0.094     1.843     2.123
   997   6 C      2.738     0.263    22.566     7.778
   998   8 O      0.857    -0.468    23.086     6.442
   999   7 N      2.679    -0.189    25.100     7.441
  1000   1 H      0.860     0.200     1.105     1.647
  1001   6 C      3.782     0.030    20.080     6.383
  1002   1 H      0.924     0.096     1.821     2.110
  1003   6 C      3.814    -0.057    21.590     6.613
  1004   1 H      0.925     0.039     2.468     2.457
  1005   1 H      0.925     0.072     2.066     2.248
  1006   6 C      3.807    -0.089    22.197     6.707
  1007   1 H      0.924     0.017     2.784     2.609
  1008   1 H      0.925     0.025     2.652     2.547
  1009   6 C      2.688     0.363    20.835     7.470
  1010   8 O      0.857    -0.612    26.404     6.889
  1011   8 O      0.858    -0.626    26.777     6.938
  1012   6 C      2.749     0.259    22.635     7.790
  1013   8 O      0.857    -0.494    23.647     6.520
  1014   7 N      2.683    -0.181    24.921     7.414
  1015   1 H      0.860     0.204     1.087     1.633
  1016   6 C      3.786     0.021    20.239     6.408
  1017   1 H      0.924     0.075     2.033     2.230
  1018   6 C      3.800    -0.079    22.007     6.679
  1019   1 H      0.925     0.078     2.004     2.214
  1020   1 H      0.925     0.064     2.158     2.297
  1021   6 C      3.796    -0.076    21.960     6.673
  1022   1 H      0.925     0.060     2.198     2.319
  1023   1 H      0.924     0.064     2.155     2.296
  1024   6 C      3.800    -0.092    22.247     6.716
  1025   1 H      0.925     0.077     2.009     2.216
  1026   1 H      0.924     0.078     2.001     2.212
  1027   6 C      3.734    -0.024    21.086     6.554
  1028   1 H      0.925     0.107     1.725     2.054
  1029   1 H      0.925     0.094     1.839     2.121
  1030   7 N      3.486    -0.145    24.130     7.296
  1031   1 H      0.860     0.287     0.754     1.360
  1032   1 H      0.860     0.301     0.711     1.321
  1033   1 H      0.860     0.292     0.737     1.345
  1034   6 C      2.754     0.262    22.585     7.782
  1035   8 O      0.863    -0.470    23.131     6.448
  1036   7 N      2.704    -0.180    24.905     7.412
  1037   1 H      0.860     0.215     1.032     1.591
  1038   6 C      3.803     0.032    20.030     6.372
  1039   1 H      0.924     0.077     2.014     2.219
  1040   6 C      3.817    -0.083    22.069     6.686
  1041   1 H      0.925     0.062     2.174     2.306
  1042   1 H      0.925     0.058     2.227     2.334
  1043   6 C      3.854    -0.019    20.871     6.498
  1044   1 H      0.924     0.043     2.403     2.424
  1045   6 C      3.764    -0.133    23.091     6.849
  1046   1 H      0.925     0.066     2.130     2.282
  1047   1 H      0.925     0.054     2.274     2.358
  1048   1 H      0.924     0.052     2.294     2.369
  1049   6 C      3.754    -0.124    22.934     6.829
  1050   1 H      0.925     0.039     2.464     2.455
  1051   1 H      0.925     0.035     2.516     2.480
  1052   1 H      0.924     0.054     2.271     2.357
  1053   6 C      2.762     0.268    22.481     7.765
  1054   8 O      0.861    -0.495    23.669     6.523
  1055   7 N      2.686    -0.190    25.113     7.443
  1056   1 H      0.860     0.215     1.031     1.590
  1057   6 C      3.774     0.025    20.188     6.402
  1058   1 H      0.924     0.061     2.189     2.314
  1059   6 C      3.787    -0.079    22.024     6.684
  1060   1 H      0.925     0.067     2.124     2.279
  1061   1 H      0.924     0.082     1.954     2.186
  1062   6 C      2.937     0.001    28.005     8.679
  1063   6 C      2.900    -0.033    28.813     8.801
  1064   1 H      0.926     0.019     2.754     2.595
  1065   6 C      2.900    -0.031    28.773     8.795
  1066   1 H      0.926     0.044     2.390     2.417
  1067   6 C      2.901    -0.042    29.053     8.838
  1068   1 H      0.926     0.054     2.268     2.355
  1069   6 C      2.895    -0.043    29.065     8.839
  1070   1 H      0.926     0.062     2.174     2.306
  1071   6 C      2.898    -0.048    29.186     8.858
  1072   1 H      0.926     0.054     2.269     2.356
  1073   6 C      2.736     0.267    22.498     7.766
  1074   8 O      0.859    -0.501    23.796     6.540
  1075   7 N      2.686    -0.197    25.276     7.467
  1076   1 H      0.860     0.227     0.980     1.551
  1077   6 C      3.786     0.031    20.067     6.381
  1078   1 H      0.925     0.090     1.881     2.145
  1079   6 C      3.818    -0.101    22.408     6.737
  1080   1 H      0.925     0.056     2.244     2.343
  1081   1 H      0.924     0.085     1.926     2.170
  1082   6 C      2.746     0.297    21.963     7.674
  1083   8 O      0.862    -0.489    23.541     6.505
  1084   7 N      2.643    -0.287    27.396     7.774
  1085   1 H      0.860     0.246     0.900     1.486
  1086   1 H      0.860     0.225     0.989     1.558
  1087   6 C      2.745     0.281    22.249     7.723
  1088   8 O      0.858    -0.479    23.327     6.476
  1089   7 N      2.681    -0.187    25.053     7.434
  1090   1 H      0.860     0.205     1.082     1.630
  1091   6 C      3.775     0.014    20.370     6.431
  1092   1 H      0.925     0.088     1.903     2.157
  1093   6 C      3.794    -0.063    21.724     6.637
  1094   1 H      0.925     0.074     2.038     2.232
  1095   1 H      0.924     0.065     2.144     2.290
  1096   6 C      3.799    -0.102    22.452     6.747
  1097   1 H      0.925     0.064     2.153     2.294
  1098   1 H      0.925     0.061     2.191     2.315
  1099   6 C      2.739     0.293    22.032     7.685
  1100   8 O      0.866    -0.509    23.982     6.566
  1101   7 N      2.643    -0.280    27.233     7.750
  1102   1 H      0.860     0.247     0.894     1.481
  1103   1 H      0.860     0.238     0.933     1.513
  1104   6 C      2.747     0.260    22.623     7.788
  1105   8 O      0.863    -0.493    23.617     6.516
  1106   7 N      2.690    -0.187    25.057     7.434
  1107   1 H      0.860     0.208     1.064     1.616
  1108   6 C      3.786     0.042    19.879     6.351
  1109   1 H      0.924     0.086     1.922     2.168
  1110   6 C      3.804    -0.094    22.295     6.722
  1111   1 H      0.925     0.022     2.703     2.571
  1112   1 H      0.924     0.040     2.447     2.446
  1113   6 C      2.685     0.377    20.609     7.429
  1114   8 O      0.858    -0.588    25.833     6.814
  1115   8 O      0.857    -0.638    27.076     6.976
  1116   6 C      2.753     0.275    22.348     7.741
  1117   8 O      0.862    -0.506    23.918     6.557
  1118   7 N      2.688    -0.174    24.777     7.393
  1119   1 H      0.860     0.205     1.080     1.628
  1120   6 C      3.784     0.015    20.337     6.424
  1121   1 H      0.925     0.091     1.867     2.137
  1122   6 C      3.845    -0.014    20.789     6.486
  1123   1 H      0.924     0.033     2.546     2.495
  1124   6 C      3.756    -0.125    22.955     6.831
  1125   1 H      0.925     0.064     2.158     2.297
  1126   1 H      0.925     0.061     2.189     2.314
  1127   1 H      0.925     0.044     2.398     2.422
  1128   6 C      3.755    -0.120    22.853     6.816
  1129   1 H      0.925     0.049     2.337     2.390
  1130   1 H      0.925     0.061     2.192     2.315
  1131   1 H      0.925     0.061     2.189     2.314
  1132   6 C      2.740     0.257    22.671     7.796
  1133   8 O      0.855    -0.477    23.280     6.469
  1134   7 N      2.681    -0.192    25.173     7.452
  1135   1 H      0.860     0.190     1.156     1.684
  1136   6 C      3.783     0.032    20.054     6.379
  1137   1 H      0.924     0.078     2.002     2.213
  1138   6 C      3.802    -0.100    22.410     6.740
  1139   1 H      0.924     0.047     2.354     2.399
  1140   1 H      0.925     0.049     2.328     2.386
  1141   6 C      2.686     0.366    20.793     7.462
  1142   8 O      0.856    -0.635    27.000     6.967
  1143   8 O      0.857    -0.587    25.806     6.811
  1144   6 C      2.752     0.270    22.439     7.757
  1145   8 O      0.858    -0.449    22.682     6.385
  1146   7 N      2.685    -0.181    24.912     7.413
  1147   1 H      0.860     0.194     1.135     1.669
  1148   6 C      3.788     0.022    20.223     6.405
  1149   1 H      0.925     0.088     1.900     2.156
  1150   6 C      3.757    -0.132    23.098     6.852
  1151   1 H      0.924     0.076     2.020     2.222
  1152   1 H      0.925     0.075     2.029     2.228
  1153   1 H      0.924     0.052     2.296     2.370
  1154   6 C      2.757     0.263    22.567     7.779
  1155   8 O      0.858    -0.458    22.884     6.414
  1156   7 N      2.690    -0.176    24.809     7.397
  1157   1 H      0.860     0.203     1.092     1.637
  1158   6 C      3.798     0.021    20.222     6.403
  1159   1 H      0.925     0.090     1.881     2.145
  1160   6 C      3.757    -0.129    23.028     6.842
  1161   1 H      0.925     0.059     2.217     2.328
  1162   1 H      0.924     0.075     2.031     2.229
[...]
  2291  N   3.441        C 2289 1.283    C 2293 0.951    H 2292 0.926    O 2290 0.196
  2292  H   0.961        N 2291 0.926
  2293  C   3.957        C 2295 0.999    N 2291 0.951    H 2294 0.949    C 2313 0.937
  2294  H   0.992        C 2293 0.949
  2295  C   3.983        C 2293 0.999    C 2298 0.999    H 2297 0.967    H 2296 0.956
  2296  H   0.993        C 2295 0.956
  2297  H   0.995        C 2295 0.967
  2298  C   3.989        C 2295 0.999    C 2301 0.996    H 2299 0.972    H 2300 0.964
  2299  H   0.993        C 2298 0.972
  2300  H   0.997        C 2298 0.964
  2301  C   3.942        C 2298 0.996    N 2304 0.976    H 2302 0.965    H 2303 0.963
  2302  H   0.996        C 2301 0.965
  2303  H   0.990        C 2301 0.963
  2304  N   3.459        C 2306 1.323    C 2301 0.976    H 2305 0.884    N 2307 0.105    N 2310 0.102
  2305  H   0.938        N 2304 0.884
  2306  C   3.976        N 2304 1.323    N 2307 1.313    N 2310 1.307
  2307  N   3.395        C 2306 1.313    H 2309 0.919    H 2308 0.878    N 2304 0.105
  2308  H   0.948        N 2307 0.878
  2309  H   0.951        N 2307 0.919
  2310  N   3.394        C 2306 1.307    H 2311 0.928    H 2312 0.912    N 2304 0.102
  2311  H   0.952        N 2310 0.928
  2312  H   0.941        N 2310 0.912
  2313  C   3.959        O 2314 1.616    N 2315 1.324    C 2293 0.937
  2314  O   1.971        C 2313 1.616    N 2315 0.203
  2315  N   3.487        C 2313 1.324    C 2317 0.973    H 2316 0.899    O 2314 0.203
  2316  H   0.951        N 2315 0.899
  2317  C   3.956        C 2319 1.009    N 2315 0.973    H 2318 0.941    C 2323 0.923
  2318  H   0.991        C 2317 0.941
  2319  C   3.981        C 2317 1.009    H 2320 0.976    H 2322 0.975    H 2321 0.972
  2320  H   0.995        C 2319 0.976
  2321  H   0.995        C 2319 0.972
  2322  H   0.993        C 2319 0.975
  2323  C   3.947        O 2324 1.620    N 2325 1.313    C 2317 0.923
  2324  O   1.971        C 2323 1.620    N 2325 0.196
  2325  N   3.473        C 2323 1.313    C 2327 0.962    H 2326 0.910    O 2324 0.196
  2326  H   0.953        N 2325 0.910
  2327  C   3.957        C 2329 0.998    N 2325 0.962    H 2328 0.938    C 2345 0.938
  2328  H   0.988        C 2327 0.938
  2329  C   3.975        C 2327 0.998    C 2332 0.979    H 2330 0.968    H 2331 0.965
  2330  H   0.994        C 2329 0.968
  2331  H   0.996        C 2329 0.965
  2332  C   3.983        C 2335 1.015    C 2329 0.979    H 2334 0.976    H 2333 0.970
  2333  H   0.993        C 2332 0.970
  2334  H   0.994        C 2332 0.976
  2335  C   3.988        C 2332 1.015    C 2338 1.015    H 2336 0.967    H 2337 0.966
  2336  H   0.995        C 2335 0.967
  2337  H   0.996        C 2335 0.966
  2338  C   3.905        C 2335 1.015    H 2339 0.958    H 2340 0.956    N 2341 0.951
  2339  H   0.986        C 2338 0.958
  2340  H   0.983        C 2338 0.956
  2341  N   3.658        C 2338 0.951    H 2344 0.896    H 2342 0.895    H 2343 0.894
  2342  H   0.909        N 2341 0.895
  2343  H   0.907        N 2341 0.894
  2344  H   0.915        N 2341 0.896
  2345  C   3.938        O 2346 1.544    N 2347 1.354    C 2327 0.938
  2346  O   1.931        C 2345 1.544    N 2347 0.184
  2347  N   3.494        C 2345 1.354    C 2349 0.975    H 2348 0.865    O 2346 0.184
  2348  H   0.939        N 2347 0.865
  2349  C   3.967        C 2351 0.977    N 2347 0.975    C 2369 0.950    H 2350 0.948
  2350  H   0.994        C 2349 0.948
  2351  C   3.979        C 2354 0.995    C 2349 0.977    H 2352 0.971    H 2353 0.963
  2352  H   0.995        C 2351 0.971
  2353  H   0.992        C 2351 0.963
  2354  C   3.980        C 2351 0.995    C 2357 0.984    H 2356 0.978    H 2355 0.964
  2355  H   0.993        C 2354 0.964
  2356  H   0.998        C 2354 0.978
  2357  C   3.949        N 2360 0.984    C 2354 0.984    H 2358 0.966    H 2359 0.963
  2358  H   0.992        C 2357 0.966
  2359  H   0.993        C 2357 0.963
  2360  N   3.479        C 2362 1.336    C 2357 0.984    H 2361 0.884    N 2366 0.107
  2361  H   0.940        N 2360 0.884
  2362  C   3.978        N 2360 1.336    N 2366 1.326    N 2363 1.286
  2363  N   3.367        C 2362 1.286    H 2364 0.926    H 2365 0.916
  2364  H   0.951        N 2363 0.926
  2365  H   0.942        N 2363 0.916
  2366  N   3.399        C 2362 1.326    H 2367 0.922    H 2368 0.879    N 2360 0.107
  2367  H   0.949        N 2366 0.922
  2368  H   0.938        N 2366 0.879
  2369  C   3.951        O 2370 1.554    N 2371 1.363    C 2349 0.950
  2370  O   1.907        C 2369 1.554    N 2371 0.197
  2371  N   3.512        C 2369 1.363    C 2373 0.965    H 2372 0.896    O 2370 0.197
  2372  H   0.944        N 2371 0.896
  2373  C   3.957        C 2375 0.969    N 2371 0.965    C 2385 0.951    H 2374 0.945
  2374  H   0.993        C 2373 0.945
  2375  C   3.984        C 2381 1.012    C 2377 0.993    C 2373 0.969    H 2376 0.957
  2376  H   0.995        C 2375 0.957
  2377  C   3.987        C 2375 0.993    H 2379 0.983    H 2378 0.979    H 2380 0.979
  2378  H   0.998        C 2377 0.979
  2379  H   0.996        C 2377 0.983
  2380  H   0.998        C 2377 0.979
  2381  C   3.989        C 2375 1.012    H 2382 0.985    H 2383 0.978    H 2384 0.976
  2382  H   0.997        C 2381 0.985
  2383  H   0.995        C 2381 0.978
  2384  H   0.997        C 2381 0.976
  2385  C   3.946        O 2386 1.601    N 2387 1.303    C 2373 0.951
  2386  O   1.938        C 2385 1.601    N 2387 0.191
  2387  N   3.425        C 2385 1.303    C 2389 0.952    H 2388 0.874    O 2386 0.191
  2388  H   0.939        N 2387 0.874
  2389  C   3.954        C 2391 0.978    N 2387 0.952    H 2390 0.947    C 2404 0.944
  2390  H   0.991        C 2389 0.947
  2391  C   3.980        C 2393 1.014    C 2389 0.978    C 2397 0.964    H 2392 0.958
  2392  H   0.995        C 2391 0.958
  2393  C   3.988        C 2391 1.014    H 2394 0.981    H 2395 0.979    H 2396 0.974
  2394  H   0.997        C 2393 0.981
  2395  H   0.999        C 2393 0.979
  2396  H   0.995        C 2393 0.974
  2397  C   3.989        C 2400 1.028    H 2398 0.979    H 2399 0.971    C 2391 0.964
  2398  H   0.997        C 2397 0.979
  2399  H   0.998        C 2397 0.971
  2400  C   3.990        C 2397 1.028    H 2401 0.985    H 2403 0.983    H 2402 0.975
  2401  H   0.997        C 2400 0.985
  2402  H   0.996        C 2400 0.975
  2403  H   0.998        C 2400 0.983
  2404  C   3.942        O 2405 1.609    N 2406 1.307    C 2389 0.944
  2405  O   1.955        C 2404 1.609    N 2406 0.191
  2406  N   3.466        C 2404 1.307    C 2408 0.969    H 2407 0.897    O 2405 0.191
  2407  H   0.949        N 2406 0.897
  2408  C   3.967        C 2410 0.973    N 2406 0.969    H 2409 0.946    C 2418 0.924
  2409  H   0.993        C 2408 0.946
  2410  C   3.970        O 2416 1.007    C 2412 0.996    C 2408 0.973    H 2411 0.954
  2411  H   0.999        C 2410 0.954
  2412  C   3.984        C 2410 0.996    H 2415 0.983    H 2414 0.982    H 2413 0.978
  2413  H   0.996        C 2412 0.978
  2414  H   0.995        C 2412 0.982
  2415  H   0.999        C 2412 0.983
  2416  O   1.934        C 2410 1.007    H 2417 0.807
  2417  H   0.874        O 2416 0.807
  2418  C   3.944        O 2419 1.569    N 2420 1.356    C 2408 0.924
  2419  O   1.936        C 2418 1.569    N 2420 0.189
  2420  N   3.510        C 2418 1.356    C 2422 0.972    H 2421 0.907    O 2419 0.189
  2421  H   0.955        N 2420 0.907
  2422  C   3.950        N 2420 0.972    H 2423 0.950    C 2432 0.947    C 2424 0.933
  2423  H   0.991        C 2422 0.950
  2424  C   3.957        C 2426 1.009    O 2430 1.005    H 2425 0.961    C 2422 0.933
  2425  H   0.999        C 2424 0.961
  2426  C   3.988        C 2424 1.009    H 2429 0.980    H 2427 0.979    H 2428 0.974
  2427  H   0.996        C 2426 0.979
  2428  H   0.995        C 2426 0.974
  2429  H   0.996        C 2426 0.980
  2430  O   1.949        C 2424 1.005    H 2431 0.844
  2431  H   0.889        O 2430 0.844
  2432  C   3.956        O 2433 1.574    N 2434 1.349    C 2422 0.947
  2433  O   1.906        C 2432 1.574    N 2434 0.198
  2434  N   3.500        C 2432 1.349    C 2436 0.971    H 2435 0.891    O 2433 0.198
  2435  H   0.945        N 2434 0.891
  2436  C   3.947        N 2434 0.971    C 2438 0.965    H 2437 0.941    C 2452 0.914
  2437  H   0.990        C 2436 0.941
  2438  C   3.978        C 2441 0.998    H 2440 0.968    C 2436 0.965    H 2439 0.963
  2439  H   0.994        C 2438 0.963
  2440  H   0.994        C 2438 0.968
  2441  C   3.981        C 2450 1.439    C 2442 1.387    C 2438 0.998    C 2446 0.109
  2442  C   3.985        C 2444 1.468    C 2441 1.387    H 2443 0.967    C 2448 0.107
  2443  H   0.998        C 2442 0.967
  2444  C   3.987        C 2442 1.468    C 2446 1.400    H 2445 0.968    C 2450 0.116
  2445  H   0.998        C 2444 0.968
  2446  C   3.990        C 2448 1.476    C 2444 1.400    H 2447 0.967    C 2441 0.109
  2447  H   0.998        C 2446 0.967
  2448  C   3.989        C 2446 1.476    C 2450 1.411    H 2449 0.960    C 2442 0.107
  2449  H   0.997        C 2448 0.960
  2450  C   3.987        C 2441 1.439    C 2448 1.411    H 2451 0.965    C 2444 0.116
  2451  H   0.997        C 2450 0.965
  2452  C   3.941        O 2453 1.662    N 2454 1.275    C 2436 0.914
  2453  O   2.014        C 2452 1.662    N 2454 0.189
  2454  N   3.451        C 2452 1.275    C 2456 0.998    H 2455 0.889    O 2453 0.189
  2455  H   0.946        N 2454 0.889
  2456  C   3.971        N 2454 0.998    C 2458 0.969    C 2476 0.943    H 2457 0.943
  2457  H   0.991        C 2456 0.943
  2458  C   3.988        C 2461 1.002    H 2459 0.973    C 2456 0.969    H 2460 0.966
  2459  H   0.996        C 2458 0.973
  2460  H   0.996        C 2458 0.966
  2461  C   3.989        C 2464 1.015    C 2458 1.002    H 2462 0.970    H 2463 0.969
  2462  H   0.993        C 2461 0.970
  2463  H   0.997        C 2461 0.969
  2464  C   3.957        C 2461 1.015    N 2467 0.974    H 2466 0.962    H 2465 0.957
  2465  H   0.994        C 2464 0.957
  2466  H   0.992        C 2464 0.962
  2467  N   3.481        C 2469 1.331    C 2464 0.974    H 2468 0.904    N 2473 0.110
  2468  H   0.951        N 2467 0.904
  2469  C   3.975        N 2473 1.331    N 2467 1.331    N 2470 1.283
  2470  N   3.338        C 2469 1.283    H 2472 0.916    H 2471 0.909
  2471  H   0.928        N 2470 0.909
  2472  H   0.942        N 2470 0.916
  2473  N   3.402        C 2469 1.331    H 2474 0.919    H 2475 0.885    N 2467 0.110
  2474  H   0.941        N 2473 0.919
  2475  H   0.940        N 2473 0.885
  2476  C   3.950        O 2477 1.624    N 2478 1.311    C 2456 0.943
  2477  O   1.939        C 2476 1.624    N 2478 0.199
  2478  N   3.451        C 2476 1.311    C 2480 0.947    H 2479 0.894    O 2477 0.199
  2479  H   0.946        N 2478 0.894
  2480  C   3.966        C 2490 0.968    C 2482 0.959    H 2481 0.950    N 2478 0.947
  2481  H   0.992        C 2480 0.950
  2482  C   3.964        O 2488 1.011    C 2484 0.993    C 2480 0.959    H 2483 0.951
  2483  H   0.997        C 2482 0.951
  2484  C   3.985        C 2482 0.993    H 2487 0.984    H 2485 0.981    H 2486 0.981
  2485  H   0.997        C 2484 0.981
  2486  H   0.996        C 2484 0.981
  2487  H   0.998        C 2484 0.984
  2488  O   1.954        C 2482 1.011    H 2489 0.838
  2489  H   0.884        O 2488 0.838
  2490  C   3.954        O 2491 1.593    N 2492 1.315    C 2480 0.968
  2491  O   1.898        C 2490 1.593    N 2492 0.196
  2492  N   3.482        C 2490 1.315    C 2494 0.993    H 2493 0.905    O 2491 0.196
  2493  H   0.944        N 2492 0.905
  2494  C   3.958        N 2492 0.993    H 2495 0.952    C 2497 0.949    H 2496 0.946
  2495  H   0.989        C 2494 0.952
  2496  H   0.989        C 2494 0.946
  2497  C   3.951        O 2498 1.616    N 2499 1.326    C 2494 0.949
  2498  O   1.931        C 2497 1.616    N 2499 0.197
  2499  N   3.480        C 2497 1.326    C 2501 0.965    H 2500 0.917    O 2498 0.197
  2500  H   0.956        N 2499 0.917
  2501  C   3.970        N 2499 0.965    C 2511 0.963    C 2503 0.951    H 2502 0.947
  2502  H   0.992        C 2501 0.947
  2503  C   3.955        C 2505 1.012    O 2509 0.983    H 2504 0.955    C 2501 0.951
  2504  H   0.998        C 2503 0.955
  2505  C   3.988        C 2503 1.012    H 2506 0.982    H 2507 0.980    H 2508 0.978
  2506  H   0.996        C 2505 0.982
  2507  H   0.996        C 2505 0.980
  2508  H   0.995        C 2505 0.978
  2509  O   1.938        C 2503 0.983    H 2510 0.879
  2510  H   0.897        O 2509 0.879
  2511  C   3.957        O 2512 1.650    N 2513 1.270    C 2501 0.963
  2512  O   1.974        C 2511 1.650    N 2513 0.200
  2513  N   3.446        C 2511 1.270    C 2515 0.969    H 2514 0.924    O 2512 0.200
  2514  H   0.956        N 2513 0.924
  2515  C   3.952        C 2517 0.982    N 2513 0.969    C 2535 0.937    H 2516 0.931
  2516  H   0.988        C 2515 0.931
  2517  C   3.978        C 2520 0.999    C 2515 0.982    H 2519 0.970    H 2518 0.952
  2518  H   0.992        C 2517 0.952
  2519  H   0.997        C 2517 0.970
  2520  C   3.966        C 2521 1.561    C 2534 1.212    C 2517 0.999
  2521  C   3.958        C 2520 1.561    N 2523 1.231    H 2522 0.965
  2522  H   0.996        C 2521 0.965
  2523  N   3.578        C 2521 1.231    C 2525 1.198    H 2524 0.925
  2524  H   0.957        N 2523 0.925
  2525  C   3.959        C 2526 1.366    N 2523 1.198    C 2534 1.191
  2526  C   3.983        C 2528 1.447    C 2525 1.366    H 2527 0.960    C 2532 0.114
  2527  H   0.996        C 2526 0.960
  2528  C   3.987        C 2526 1.447    C 2530 1.410    H 2529 0.968
  2529  H   0.998        C 2528 0.968
  2530  C   3.986        C 2532 1.445    C 2528 1.410    H 2531 0.968
  2531  H   0.998        C 2530 0.968
  2532  C   3.990        C 2530 1.445    C 2534 1.371    H 2533 0.971    C 2526 0.114
  2533  H   0.999        C 2532 0.971
  2534  C   3.981        C 2532 1.371    C 2520 1.212    C 2525 1.191
  2535  C   3.934        O 2536 1.576    N 2537 1.330    C 2515 0.937
  2536  O   1.918        C 2535 1.576    N 2537 0.184
  2537  N   3.480        C 2535 1.330    C 2539 0.964    H 2538 0.915    O 2536 0.184
  2538  H   0.958        N 2537 0.915
  2539  C   3.962        C 2541 0.996    N 2537 0.964    H 2540 0.950    C 2547 0.913
  2540  H   0.997        C 2539 0.950
  2541  C   3.988        C 2539 0.996    H 2542 0.979    H 2543 0.967    C 2544 0.906
  2542  H   0.998        C 2541 0.979
  2543  H   0.997        C 2541 0.967
  2544  C   3.929        O 2545 1.506    O 2546 1.490    C 2541 0.906
  2545  O   1.798        C 2544 1.506    O 2546 0.216
  2546  O   1.775        C 2544 1.490    O 2545 0.216
  2547  C   3.932        O 2548 1.663    N 2549 1.273    C 2539 0.913
  2548  O   1.975        C 2547 1.663    N 2549 0.189
  2549  N   3.438        C 2547 1.273    C 2551 0.968    H 2550 0.921    O 2548 0.189
  2550  H   0.955        N 2549 0.921
  2551  C   3.943        C 2553 0.982    N 2549 0.968    H 2552 0.954    C 2557 0.923
  2552  H   0.994        C 2551 0.954
  2553  C   3.974        C 2551 0.982    H 2554 0.980    H 2556 0.979    H 2555 0.976
  2554  H   0.994        C 2553 0.980
  2555  H   0.990        C 2553 0.976
  2556  H   0.995        C 2553 0.979
  2557  C   3.950        O 2558 1.642    N 2559 1.299    C 2551 0.923
  2558  O   1.953        C 2557 1.642    N 2559 0.194
  2559  N   3.462        C 2557 1.299    C 2561 0.974    H 2560 0.905    O 2558 0.194
  2560  H   0.961        N 2559 0.905
  2561  C   3.955        N 2559 0.974    H 2562 0.956    C 2563 0.945    C 2578 0.939
  2562  H   0.992        C 2561 0.956
  2563  C   3.972        C 2566 1.014    H 2564 0.964    H 2565 0.960    C 2561 0.945
  2564  H   0.996        C 2563 0.964
  2565  H   0.995        C 2563 0.960
  2566  C   3.981        C 2576 1.412    C 2567 1.390    C 2563 1.014
  2567  C   3.985        C 2569 1.460    C 2566 1.390    H 2568 0.971    C 2574 0.105
  2568  H   0.997        C 2567 0.971
  2569  C   3.985        C 2567 1.460    C 2571 1.358    H 2570 0.963    C 2576 0.110
  2570  H   0.995        C 2569 0.963
  2571  C   3.945        C 2574 1.392    C 2569 1.358    O 2572 1.065
  2572  O   2.085        C 2571 1.065    H 2573 0.839
  2573  H   0.889        O 2572 0.839
  2574  C   3.985        C 2576 1.427    C 2571 1.392    H 2575 0.959    C 2567 0.105
  2575  H   0.998        C 2574 0.959
  2576  C   3.986        C 2574 1.427    C 2566 1.412    H 2577 0.969    C 2569 0.110
  2577  H   0.998        C 2576 0.969
  2578  C   3.950        O 2579 1.605    N 2580 1.319    C 2561 0.939
  2579  O   1.931        C 2578 1.605    N 2580 0.205
  2580  N   3.490        C 2578 1.319    C 2582 0.974    H 2581 0.910    O 2579 0.205
  2581  H   0.959        N 2580 0.910
  2582  C   3.956        N 2580 0.974    C 2584 0.966    H 2583 0.959    C 2600 0.910
  2583  H   0.996        C 2582 0.959
  2584  C   3.982        C 2587 1.000    H 2586 0.976    H 2585 0.973    C 2582 0.966
  2585  H   0.998        C 2584 0.973
  2586  H   0.999        C 2584 0.976
  2587  C   3.990        C 2590 1.006    C 2584 1.000    H 2589 0.974    H 2588 0.970
  2588  H   0.994        C 2587 0.970
  2589  H   0.996        C 2587 0.974
  2590  C   3.986        C 2593 1.008    C 2587 1.006    H 2592 0.969    H 2591 0.965
  2591  H   0.989        C 2590 0.965
  2592  H   0.996        C 2590 0.969
  2593  C   3.910        C 2590 1.008    H 2594 0.968    H 2595 0.958    N 2596 0.957
  2594  H   0.991        C 2593 0.968
  2595  H   0.982        C 2593 0.958
  2596  N   3.654        C 2593 0.957    H 2598 0.894    H 2599 0.892    H 2597 0.889
  2597  H   0.908        N 2596 0.889
  2598  H   0.918        N 2596 0.894
  2599  H   0.909        N 2596 0.892
  2600  C   3.930        O 2601 1.504    O 2602 1.477    C 2582 0.910
  2601  O   1.798        C 2600 1.504    O 2602 0.217
  2602  O   1.776        C 2600 1.477    O 2601 0.217
  2603  C   3.987        C 2605 1.494    C 2613 1.325    H 2604 0.956    C 2609 0.107
  2604  H   0.998        C 2603 0.956
  2605  C   3.989        C 2603 1.494    C 2607 1.391    H 2606 0.962    C 2611 0.104
  2606  H   0.999        C 2605 0.962
  2607  C   3.987        C 2609 1.462    C 2605 1.391    H 2608 0.964
  2608  H   0.999        C 2607 0.964
  2609  C   3.988        C 2607 1.462    C 2611 1.415    H 2610 0.961    C 2603 0.107
  2610  H   0.998        C 2609 0.961
  2611  C   3.985        C 2609 1.415    C 2613 1.392    H 2612 0.957    C 2605 0.104
  2612  H   0.997        C 2611 0.957
  2613  C   3.941        C 2611 1.392    C 2603 1.325    O 2614 1.099
  2614  O   2.130        C 2613 1.099    H 2615 0.847
  2615  H   0.883        O 2614 0.847

molecular dipole:
                 x           y           z       tot (Debye)
 q only:      554.525     696.929     671.228
   full:      556.760     696.796     679.351    2849.734
molecular quadrupole (traceless):
                xx          xy          yy          xz          yz          zz
 q only:   -19054.645   68882.444   12377.412   67761.422   83184.865    6677.233
  q+dip:   -19534.533   68664.520   11440.601   68655.764   84038.360    8093.932
   full:   -19523.979   68663.471   11428.161   68664.446   84030.257    8095.818


           -------------------------------------------------
          | TOTAL ENERGY            -4105.247504625168 Eh   |
          | GRADIENT NORM               1.311518771879 Eh/α |
          | HOMO-LUMO GAP               1.706220656332 eV   |
           -------------------------------------------------

------------------------------------------------------------------------
 * finished run on 2020/09/07 at 19:48:54.392     
------------------------------------------------------------------------
 total:
 * wall-time:     0 d,  0 h,  7 min, 30.465 sec
 *  cpu-time:     0 d,  5 h, 37 min, 45.501 sec
 * ratio c/w:    44.988 speedup
 SCF:
 * wall-time:     0 d,  0 h,  6 min, 59.278 sec
 *  cpu-time:     0 d,  5 h, 26 min,  7.521 sec
 * ratio c/w:    46.670 speedup

