      -----------------------------------------------------------      
     |                   =====================                   |     
     |                           x T B                           |     
     |                   =====================                   |     
     |                         S. Grimme                         |     
     |          Mulliken Center for Theoretical Chemistry        |     
     |                    University of Bonn                     |     
      -----------------------------------------------------------      

   * xtb version 6.2.3 (d7bf61a) compiled by 'conda@06d140edd85e' on 2020-05-12

   xtb is free software: you can redistribute it and/or modify it under
   the terms of the GNU Lesser General Public License as published by
   the Free Software Foundation, either version 3 of the License, or
   (at your option) any later version.
   
   xtb is distributed in the hope that it will be useful,
   but WITHOUT ANY WARRANTY; without even the implied warranty of
   MERCHANTABILITY or FITNESS FOR A PARTICULAR PURPOSE.  See the
   GNU Lesser General Public License for more details.
   
   Cite this work as:
   * S. Grimme, C. Bannwarth, P. Shushkov, J. Chem. Theory Comput., 2017,
     13, 1989-2009. DOI: 10.1021/acs.jctc.7b00118
   * C. Bannwarth, S. Ehlert and S. Grimme., J. Chem. Theory Comput., 2019,
     15, 1652-1671. DOI: 10.1021/acs.jctc.8b01176
   * P. Pracht, E. Caldeweyher, S. Ehlert, S. Grimme, ChemRxiv, 2019, preprint.
     DOI: 10.26434/chemrxiv.8326202.v1
   
   for DFT-D4:
   * E. Caldeweyher, C. Bannwarth and S. Grimme, J. Chem. Phys., 2017,
     147, 034112. DOI: 10.1063/1.4993215
   * E. Caldeweyher, S. Ehlert, A. Hansen, H. Neugebauer, S. Spicher,
     C. Bannwarth and S. Grimme, J. Chem. Phys., 2019, 150, 154122.
     DOI: 10.1063/1.5090222
   
   for sTDA-xTB:
   * S. Grimme and C. Bannwarth, J. Chem. Phys., 2016, 145, 054103.
     DOI: 10.1063/1.4959605
   
   in the mass-spec context:
   * V. Asgeirsson, C. Bauer and S. Grimme, Chem. Sci., 2017, 8, 4879.
     DOI: 10.1039/c7sc00601b
   
   for metadynamics refer to:
   * S. Grimme, J. Chem. Theory Comput., 2019, 155, 2847-2862
     DOI: 10.1021/acs.jctc.9b00143
   
   with help from (in alphabetical order)
   C. Bannwarth, F. Bohle, G. Brandenburg, E. Caldeweyher, M. Checinski,
   S. Dohm, S. Ehlert, S. Ehrlich, F. März, H. Neugebauer, J. Pisarek,
   P. Pracht, P. Shushkov, and S. Spicher.
   
 * started run on 2020/09/07 at 11:07:10.847     

           -------------------------------------------------
          |                Calculation Setup                |
           -------------------------------------------------

          program call               : xtb complex_28601.xyz --chrg +9 --uhf 0 --gbsa water
          hostname                   : gold54.cluster.local
          coordinate file            : complex_28601.xyz
          omp threads                :                    64
          number of atoms            :                  2615
          number of electrons        :                  7228
          charge                     :                     9
          spin                       :                   0.0
          first test random number   :      0.62430752113175


molecular fragmentation (1/2 indicates fragments):
111111111111111111111111111111111111111111111111111111111111111111111111
111111111111111111111111111111111111111111111111111111111111111111111111
111111111111111111111111111111111111111111111111111111111111111111111111
111111111111111111111111111111111111111111111111111111111111111111111111
111111111111111111111111111111111111111111111111111111111111111111111111
111111111111111111111111111111111111111111111111111111111111111111111111
111111111111111111111111111111111111111111111111111111111111111111111111
111111111111111111111111111111111111111111111111111111111111111111111111
111111111111111111111111111111111111111111111111111111111111111111111111
111111111111111111111111111111111111111111111111111111111111111111111111
111111111111111111111111111111111111111111111111111111111111111111111111
111111111111111111111111111111111111111111111111111111111111111111111111
111111111111111111111111111111111111111111111111111111111111111111111111
111111111111111111111111111111111111111111111111111111111111111111111111
111111111111111111111111111111111111111111111111111111111111111111111111
111111111111111111111111111111111111111111111111111111111111111111111111
111111111111111111111111111111111111111111111111111111111111111111111111
111111111111111111111111111111111111111111111111111111111111111111111111
111111111111111111111111111111111111111111111111111111111111111111111111
111111111111111111111111111111111111111111111111111111111111111111111111
111111111111111111111111111111111111111111111111111111111111111111111111
111111111111111111111111111111111111111111111111111111111111111111111111
111111111111111111111111111111111111111111111111111111111111111111111111
111111111111111111111111111111111111111111111111111111111111111111111111
111111111111111111111111111111111111111111111111111111111111111111111111
111111111111111111111111111111111111111111111111111111111111111111111111
111111111111111111111111111111111111111111111111111111111111111111111111
111111111111111111111111111111111111111111111111111111111111111111111111
111111111111111111111111111111111111111111111111111111111111111111111111
111111111111111111111111111111111111111111111111111111111111111111111111
111111111111111111111111111111111111111111111111111111111111111111111111
111111111111111111111111111111111111111111111111111111111111111111111111
111111111111111111111111111111111111111111111111111111111111111111111111
111111111111111111111111111111111111111111111111111111111111111111111111
111111111111111111111111111111111111111111111111111111111111111111111111
111111111111111111111111111111111111111111111111111111111111111111111111
11111111112222222222222
# atoms in fragment 1/2:  2602    13
 fragment masses (1/2) :    18371.93       94.11
CMA distance (Bohr)    :  20.912
constraining FC (au)   :  0.0500
########################################################################
[WARNING] Please study the warnings concerning your input carefully
-2- prog_main: XTBPATH is not set, using XTBHOME instead
-1- prog_main: XTBHOME is not set, using HOME instead
########################################################################
           ------------------------------------------------- 
          |                 G F N 2 - x T B                 |
          | Geometry, Frequencies, Noncovalent interactions |
          |            JCTC 2019 parametrisation            |
           ------------------------------------------------- 
             k(s)              :                1.8500
             k(p)              :                2.2300
             k(d)              :                2.2300
             k(f)              :                2.0000
             kEN (H0ij)        :               -2.0000
             D4 a1             :                0.5200
             D4 a2             :                5.0000
             D4 s6             :                1.0000
             D4 s8             :                2.7000
             D4 s9             :                5.0000
             alphaj            :                2.0000

  Z AO/shell   Hii/eV     exponent
  1     Wed Apr 25 08:07:45 CEST 2018   EN: 2.200 GM2: 0.406  GM3: 0.0800  RAES: 1.40
     1s    -10.707211    1.230000
  6     Wed Apr 25 08:07:45 CEST 2018   EN: 2.550 GM2: 0.538  GM3: 0.1500  RAES: 3.00
     2s    -13.970922    2.096432
     2p    -10.063292    1.800000
  7     Wed Apr 25 08:07:45 CEST 2018   EN: 3.040 GM2: 0.461  GM3:-0.0640  RAES: 1.90
     2s    -16.686243    2.339881
     2p    -12.523956    2.014332
  8     Wed Apr 25 08:07:45 CEST 2018   EN: 3.440 GM2: 0.452  GM3:-0.0517  RAES: 1.80
     2s    -20.229985    2.439742
     2p    -15.503117    2.137023
 16     Tue Apr 24 11:44:34 CEST 2018   EN: 2.580 GM2: 0.340  GM3:-0.0502  RAES: 3.10
     3s    -20.029654    1.981333
     3p    -11.377694    2.025643
     3d     -0.420282    1.702555

 Solvent             : water
 Using internal parameter file: .param_gbsa2_water
 Gsolv ref. state (COSMO-RS): gsolv [1 M gas/solution]
 temperature (mdtemp)       :    298.14999999999998     
 dielectric constant        :    80.200000000000003     
 rho                        :    1.0000000000000000     
 mass                       :    18.000000000000000     
 surface tension            :    15.568945408385856     
 probe radius               :   0.97531378999999996     
 Gshift (Eh)                :    1.8574431267947933E-003
 c1                         :    1.5524381700000001     
 soset                      :   0.13032636000000000     
 HB correction              :  T
           ------------------------------------------------- 
          |        Self-Consistent Charge Iterations        |
           ------------------------------------------------- 

          ...................................................
          :                      SETUP                      :
          :.................................................:
          :  # basis functions                6545          :
          :  # atomic orbitals                6539          :
          :  # shells                         3919          :
          :  # electrons                      7228          :
          :  max. iterations                   250          :
          :  Hamiltonian                  GFN2-xTB          :
          :  restarted?                      false          :
          :  GBSA solvation                   true          :
          :  PC potential                    false          :
          :  electronic temp.          300.0000000     K    :
          :  accuracy                    1.0000000          :
          :  -> integral cutoff          0.2500000E+02      :
          :  -> integral neglect         0.1000000E-07      :
          :  -> SCF convergence          0.1000000E-05 Eh   :
          :  -> wf. convergence          0.1000000E-03 e    :
          :  Broyden damping             0.4000000          :
          ...................................................

 iter      E             dE          RMSdq      gap      omega  full diag
   1  -4140.7923229 -0.414079E+04  0.427E+00    2.34       0.0  T
   2  -4153.0034919 -0.122112E+02  0.226E+00    2.33       1.0  T
   3  -4153.4880852 -0.484593E+00  0.120E+00    1.88       1.0  T
   4  -4153.5581192 -0.700340E-01  0.298E-01    1.69       1.0  T
   5  -4153.6740227 -0.115904E+00  0.144E-01    1.54       1.0  T
   6  -4153.6888764 -0.148537E-01  0.749E-02    1.64       1.0  T
   7  -4153.6914117 -0.253524E-02  0.388E-02    1.61       1.0  T
   8  -4153.6925892 -0.117753E-02  0.176E-02    1.60       1.0  T
   9  -4153.6927761 -0.186947E-03  0.109E-02    1.59       1.0  T
  10  -4153.6928772 -0.101111E-03  0.586E-03    1.57       1.0  T
  11  -4153.6929087 -0.314341E-04  0.293E-03    1.57       1.0  T
  12  -4153.6929167 -0.804350E-05  0.162E-03    1.57       1.2  T
  13  -4153.6929192 -0.246879E-05  0.886E-04    1.57       2.2  T
  14  -4153.6929199 -0.717830E-06  0.458E-04    1.57       4.3  T
  15  -4153.6929201 -0.213277E-06  0.235E-04    1.57       8.3  T

   *** convergence criteria satisfied after 15 iterations ***

         #    Occupation            Energy/Eh            Energy/eV
      -------------------------------------------------------------
         1        2.0000           -0.7597051             -20.6726
       ...           ...                  ...                  ...
      3608        2.0000           -0.3606492              -9.8138
      3609        2.0000           -0.3594054              -9.7799
      3610        2.0000           -0.3566739              -9.7056
      3611        2.0000           -0.3560959              -9.6899
      3612        2.0000           -0.3539758              -9.6322
      3613        2.0000           -0.3514329              -9.5630
      3614        2.0000           -0.3473053              -9.4507 (HOMO)
      3615                         -0.2896186              -7.8809 (LUMO)
      3616                         -0.2756508              -7.5008
      3617                         -0.2732301              -7.4350
      3618                         -0.2698162              -7.3421
      3619                         -0.2688694              -7.3163
       ...                                ...                  ...
      6539                          0.7853019              21.3692
      -------------------------------------------------------------
                  HL-Gap            0.0576867 Eh            1.5697 eV
             Fermi-level           -0.3184620 Eh           -8.6658 eV

 SCC (total)                   0 d,  0 h,  6 min, 35.641 sec
 SCC setup                      ...        0 min,  3.079 sec (  0.778%)
 Dispersion                     ...        0 min,  1.972 sec (  0.498%)
 integral evaluation            ...        0 min,  8.388 sec (  2.120%)
 zeroth order Hamiltonian       ...        0 min,  0.347 sec (  0.088%)
 iterations                     ...        6 min,  3.752 sec ( 91.940%)
 molecular gradient             ...        0 min, 17.465 sec (  4.414%)
 printout                       ...        0 min,  0.638 sec (  0.161%)

         :::::::::::::::::::::::::::::::::::::::::::::::::::::
         ::                     SUMMARY                     ::
         :::::::::::::::::::::::::::::::::::::::::::::::::::::
         :: total energy           -4105.223879510086 Eh    ::
         :: total w/o Gsasa/hb     -4104.829829263624 Eh    ::
         :: gradient norm              1.340127199182 Eh/a0 ::
         :: HOMO-LUMO gap              1.569733733313 eV    ::
         ::.................................................::
         :: SCC energy             -4153.754210628163 Eh    ::
         :: -> isotropic ES           14.183664145908 Eh    ::
         :: -> anisotropic ES         -0.805722203280 Eh    ::
         :: -> anisotropic XC          1.162547777684 Eh    ::
         :: -> dispersion             -3.959550492041 Eh    ::
         :: -> Gsolv                  -4.047782136958 Eh    ::
         ::    -> Gborn               -3.653731890497 Eh    ::
         ::    -> Gsasa               -0.063147959140 Eh    ::
         ::    -> Ghb                 -0.332759730448 Eh    ::
         ::    -> Gshift               0.001857443127 Eh    ::
         :: repulsion energy          47.962954850349 Eh    ::
         :: add. restraining           0.000000000000 Eh    ::
         :::::::::::::::::::::::::::::::::::::::::::::::::::::

           -------------------------------------------------
          |                Property Printout                |
           -------------------------------------------------

    * Orbital Energies and Occupations

         #    Occupation            Energy/Eh            Energy/eV
      -------------------------------------------------------------
         1        2.0000           -0.7597051             -20.6726
       ...           ...                  ...                  ...
      3602        2.0000           -0.3643968              -9.9157
      3603        2.0000           -0.3630644              -9.8795
      3604        2.0000           -0.3629015              -9.8751
      3605        2.0000           -0.3627695              -9.8715
      3606        2.0000           -0.3622920              -9.8585
      3607        2.0000           -0.3620324              -9.8514
      3608        2.0000           -0.3606492              -9.8138
      3609        2.0000           -0.3594054              -9.7799
      3610        2.0000           -0.3566739              -9.7056
      3611        2.0000           -0.3560959              -9.6899
      3612        2.0000           -0.3539758              -9.6322
      3613        2.0000           -0.3514329              -9.5630
      3614        2.0000           -0.3473053              -9.4507 (HOMO)
      3615                         -0.2896186              -7.8809 (LUMO)
      3616                         -0.2756508              -7.5008
      3617                         -0.2732301              -7.4350
      3618                         -0.2698162              -7.3421
      3619                         -0.2688694              -7.3163
      3620                         -0.2665060              -7.2520
      3621                         -0.2655171              -7.2251
      3622                         -0.2651091              -7.2140
      3623                         -0.2645958              -7.2000
      3624                         -0.2636597              -7.1745
      3625                         -0.2635717              -7.1722
       ...                                ...                  ...
      6539                          0.7853019              21.3692
      -------------------------------------------------------------
                  HL-Gap            0.0576867 Eh            1.5697 eV
             Fermi-level           -0.3184620 Eh           -8.6658 eV

     #   Z        covCN         q      C6AA      α(0)
     1   7 N      3.487    -0.138    23.984     7.274
     2   1 H      0.860     0.307     0.693     1.304
     3   1 H      0.860     0.288     0.749     1.356
     4   1 H      0.860     0.304     0.700     1.311
     5   6 C      3.771    -0.040    21.315     6.579
     6   1 H      0.925     0.138     1.478     1.901
     7   6 C      3.807    -0.093    22.266     6.717
     8   1 H      0.924     0.108     1.715     2.048
     9   1 H      0.925     0.102     1.764     2.077
    10   6 C      3.801    -0.029    21.090     6.538
    11   1 H      0.924     0.063     2.167     2.302
    12   1 H      0.926     0.077     2.015     2.220
    13  16 S      1.946    -0.205   149.779    20.598
    14   6 C      3.733    -0.070    21.929     6.684
    15   1 H      0.925     0.046     2.365     2.405
    16   1 H      0.925     0.043     2.412     2.429
    17   1 H      0.925     0.058     2.224     2.332
    18   6 C      2.743     0.270    22.430     7.755
    19   8 O      0.861    -0.467    23.065     6.439
    20   7 N      2.685    -0.164    24.543     7.358
    21   1 H      0.860     0.225     0.986     1.556
    22   6 C      3.774     0.006    20.510     6.453
    23   1 H      0.924     0.111     1.687     2.031
    24   6 C      3.811    -0.112    22.633     6.772
    25   1 H      0.925     0.095     1.830     2.116
    26   1 H      0.924     0.095     1.832     2.116
    27   6 C      2.745     0.273    22.376     7.745
    28   8 O      0.859    -0.524    24.322     6.612
    29   7 N      2.643    -0.240    26.278     7.613
    30   1 H      0.860     0.218     1.017     1.579
    31   1 H      0.860     0.240     0.923     1.505
    32   6 C      2.739     0.270    22.447     7.757
    33   8 O      0.862    -0.458    22.877     6.413
    34   7 N      2.687    -0.185    25.013     7.428
    35   1 H      0.860     0.217     1.024     1.585
    36   6 C      3.786     0.006    20.487     6.447
    37   1 H      0.924     0.090     1.879     2.144
    38   6 C      3.842    -0.038    21.222     6.553
    39   1 H      0.924     0.080     1.977     2.199
    40   6 C      3.744    -0.131    23.088     6.855
    41   1 H      0.925     0.062     2.175     2.306
    42   1 H      0.924     0.036     2.508     2.477
    43   1 H      0.925     0.059     2.213     2.327
    44   6 C      3.802    -0.067    21.779     6.644
    45   1 H      0.925     0.034     2.535     2.490
    46   1 H      0.924     0.060     2.202     2.321
    47   6 C      3.751    -0.116    22.783     6.807
    48   1 H      0.925     0.040     2.449     2.447
    49   1 H      0.924     0.058     2.223     2.332
    50   1 H      0.925     0.034     2.525     2.485
    51   6 C      2.751     0.280    22.264     7.726
    52   8 O      0.861    -0.479    23.327     6.476
    53   7 N      2.689    -0.194    25.208     7.457
    54   1 H      0.860     0.231     0.960     1.535
    55   6 C      3.767     0.019    20.288     6.419
    56   1 H      0.925     0.080     1.976     2.198
    57   6 C      3.790    -0.082    22.083     6.693
    58   1 H      0.924     0.060     2.196     2.318
    59   1 H      0.924     0.066     2.125     2.279
    60   6 C      2.949     0.010    27.786     8.646
    61   6 C      2.907    -0.048    29.181     8.858
    62   1 H      0.926     0.033     2.547     2.495
    63   6 C      2.907    -0.030    28.746     8.791
    64   1 H      0.926     0.010     2.894     2.660
    65   6 C      2.900    -0.033    28.828     8.803
    66   1 H      0.926     0.028     2.617     2.530
    67   6 C      2.913    -0.043    29.076     8.842
    68   1 H      0.926     0.047     2.358     2.401
    69   6 C      2.904    -0.043    29.077     8.842
    70   1 H      0.926     0.072     2.069     2.249
    71   6 C      2.730     0.260    22.626     7.787
    72   8 O      0.864    -0.445    22.608     6.375
    73   7 N      2.691    -0.203    25.403     7.486
    74   1 H      0.860     0.194     1.135     1.669
    75   6 C      3.786     0.012    20.384     6.431
    76   1 H      0.924     0.095     1.830     2.116
    77   6 C      3.807    -0.067    21.783     6.644
    78   1 H      0.925     0.050     2.319     2.381
    79   1 H      0.925     0.074     2.038     2.232
    80   6 C      3.799    -0.091    22.236     6.714
    81   1 H      0.925     0.029     2.599     2.521
    82   1 H      0.924     0.018     2.761     2.599
    83   6 C      2.689     0.365    20.809     7.466
    84   8 O      0.857    -0.597    26.048     6.843
    85   8 O      0.857    -0.652    27.423     7.021
    86   6 C      2.745     0.256    22.694     7.800
    87   8 O      0.857    -0.503    23.854     6.548
    88   7 N      2.694    -0.163    24.531     7.356
    89   1 H      0.860     0.241     0.918     1.501
    90   6 C      3.792     0.025    20.159     6.394
    91   1 H      0.925     0.090     1.878     2.143
    92   6 C      3.824    -0.084    22.080     6.687
    93   1 H      0.925     0.072     2.067     2.249
    94   1 H      0.925     0.088     1.900     2.156
    95   6 C      3.797    -0.023    20.992     6.524
    96   1 H      0.925     0.051     2.311     2.377
    97   1 H      0.925     0.033     2.550     2.497
    98  16 S      1.953    -0.175   148.451    20.507
    99   6 C      3.744    -0.072    21.945     6.683
   100   1 H      0.926     0.065     2.146     2.291
   101   1 H      0.924     0.058     2.224     2.332
   102   1 H      0.925     0.070     2.091     2.261
   103   6 C      2.747     0.260    22.610     7.786
   104   8 O      0.861    -0.496    23.691     6.526
   105   7 N      2.685    -0.188    25.084     7.439
   106   1 H      0.860     0.226     0.982     1.552
   107   6 C      3.793     0.026    20.143     6.391
   108   1 H      0.925     0.090     1.883     2.146
   109   6 C      3.833    -0.072    21.854     6.651
   110   1 H      0.925     0.054     2.274     2.358
   111   1 H      0.925     0.065     2.137     2.286
   112   6 C      3.855    -0.019    20.870     6.497
   113   1 H      0.925     0.060     2.196     2.318
   114   6 C      3.756    -0.121    22.878     6.820
   115   1 H      0.925     0.048     2.350     2.397
   116   1 H      0.924     0.033     2.548     2.496
   117   1 H      0.924     0.063     2.165     2.301
   118   6 C      3.772    -0.121    22.853     6.812
   119   1 H      0.924     0.042     2.417     2.431
   120   1 H      0.924     0.032     2.563     2.504
   121   1 H      0.925     0.047     2.357     2.401
   122   6 C      2.755     0.253    22.747     7.810
   123   8 O      0.856    -0.535    24.569     6.646
   124   7 N      2.683    -0.173    24.744     7.388
   125   1 H      0.860     0.206     1.077     1.625
   126   6 C      3.780     0.016    20.331     6.423
   127   1 H      0.925     0.087     1.910     2.161
   128   6 C      3.800    -0.084    22.101     6.694
   129   1 H      0.925     0.064     2.149     2.293
   130   1 H      0.925     0.077     2.015     2.220
   131   6 C      3.787    -0.087    22.174     6.707
   132   1 H      0.924     0.072     2.064     2.246
   133   1 H      0.925     0.077     2.011     2.218
   134   6 C      3.719    -0.035    21.315     6.594
   135   1 H      0.925     0.098     1.806     2.102
   136   1 H      0.925     0.100     1.782     2.088
   137   7 N      2.738    -0.148    24.190     7.305
   138   1 H      0.861     0.235     0.942     1.521
   139   6 C      2.733     0.247    22.846     7.825
   140   7 N      2.685    -0.268    26.926     7.707
   141   1 H      0.860     0.231     0.961     1.535
   142   1 H      0.860     0.219     1.015     1.579
   143   7 N      2.740    -0.272    27.034     7.722
   144   1 H      0.861     0.253     0.870     1.461
   145   1 H      0.860     0.232     0.958     1.534
   146   6 C      2.753     0.257    22.678     7.798
   147   8 O      0.857    -0.514    24.089     6.580
   148   7 N      2.682    -0.173    24.744     7.388
   149   1 H      0.860     0.229     0.970     1.543
   150   6 C      3.794     0.023    20.191     6.399
   151   1 H      0.925     0.102     1.767     2.079
   152   6 C      3.831    -0.037    21.217     6.554
   153   1 H      0.925     0.070     2.089     2.260
   154   6 C      3.742    -0.128    23.033     6.847
   155   1 H      0.925     0.068     2.111     2.272
   156   1 H      0.925     0.056     2.252     2.347
   157   1 H      0.925     0.025     2.662     2.551
   158   6 C      3.786    -0.068    21.812     6.652
   159   1 H      0.925     0.041     2.434     2.440
   160   1 H      0.925     0.052     2.293     2.368
   161   6 C      3.753    -0.120    22.853     6.817
   162   1 H      0.925     0.042     2.425     2.435
   163   1 H      0.925     0.049     2.330     2.387
   164   1 H      0.924     0.051     2.304     2.374
   165   6 C      2.743     0.260    22.611     7.786
   166   8 O      0.858    -0.482    23.389     6.484
   167   7 N      2.686    -0.198    25.309     7.472
   168   1 H      0.860     0.197     1.122     1.659
   169   6 C      3.798     0.043    19.856     6.345
   170   1 H      0.924     0.092     1.863     2.135
   171   6 C      3.813    -0.080    22.013     6.678
   172   1 H      0.925     0.045     2.377     2.411
   173   1 H      0.924     0.040     2.455     2.450
   174   6 C      2.690     0.349    21.068     7.512
   175   8 O      0.855    -0.583    25.715     6.799
   176   8 O      0.856    -0.601    26.138     6.854
   177   6 C      2.757     0.274    22.366     7.744
   178   8 O      0.864    -0.509    23.978     6.565
   179   7 N      2.689    -0.193    25.182     7.453
   180   1 H      0.860     0.192     1.148     1.678
   181   6 C      3.792     0.037    19.954     6.361
   182   1 H      0.924     0.080     1.982     2.201
   183   6 C      3.814    -0.044    21.358     6.578
   184   1 H      0.925     0.051     2.311     2.377
   185   1 H      0.924     0.041     2.434     2.440
   186   6 C      3.800    -0.088    22.182     6.706
   187   1 H      0.925     0.008     2.931     2.677
   188   1 H      0.924     0.026     2.637     2.540
   189   6 C      2.679     0.357    20.944     7.489
   190   8 O      0.857    -0.602    26.175     6.859
   191   8 O      0.856    -0.664    27.733     7.061
   192   6 C      2.775     0.277    22.320     7.738
   193   8 O      0.866    -0.511    24.029     6.572
   194   7 N      2.695    -0.136    23.955     7.269
   195   1 H      0.860     0.188     1.169     1.694
   196   6 C      3.753    -0.038    21.303     6.582
   197   1 H      0.925     0.104     1.747     2.067
   198   1 H      0.924     0.110     1.698     2.038
   199   6 C      2.765     0.277    22.309     7.735
   200   8 O      0.860    -0.506    23.925     6.558
   201   7 N      2.692    -0.159    24.441     7.343
   202   1 H      0.860     0.221     1.005     1.571
   203   6 C      3.794     0.006    20.489     6.446
   204   1 H      0.924     0.065     2.146     2.291
   205   6 C      3.801    -0.079    22.009     6.679
   206   1 H      0.925     0.058     2.218     2.329
   207   1 H      0.925     0.044     2.401     2.423
   208   6 C      3.846    -0.015    20.812     6.489
   209   1 H      0.924     0.047     2.358     2.401
   210   6 C      3.759    -0.122    22.883     6.820
   211   1 H      0.925     0.035     2.512     2.478
   212   1 H      0.925     0.027     2.632     2.537
   213   1 H      0.924     0.058     2.224     2.332
   214   6 C      3.753    -0.127    22.996     6.838
   215   1 H      0.924     0.055     2.257     2.350
   216   1 H      0.925     0.049     2.330     2.387
   217   1 H      0.924     0.040     2.450     2.448
   218   6 C      2.745     0.273    22.383     7.747
   219   8 O      0.859    -0.447    22.648     6.381
   220   7 N      2.688    -0.165    24.572     7.362
   221   1 H      0.860     0.202     1.096     1.640
   222   6 C      3.783     0.008    20.460     6.443
   223   1 H      0.925     0.087     1.906     2.159
   224   6 C      3.805    -0.093    22.273     6.719
   225   1 H      0.925     0.089     1.893     2.152
   226   1 H      0.924     0.067     2.123     2.278
   227   6 C      3.798    -0.094    22.288     6.722
   228   1 H      0.925     0.067     2.123     2.278
   229   1 H      0.924     0.093     1.852     2.128
   230   6 C      3.732    -0.033    21.258     6.581
   231   1 H      0.924     0.093     1.853     2.129
   232   1 H      0.925     0.109     1.708     2.044
   233   7 N      2.702    -0.137    23.970     7.271
   234   1 H      0.860     0.218     1.019     1.581
   235   6 C      2.734     0.237    23.043     7.859
   236   7 N      2.659    -0.254    26.611     7.662
   237   1 H      0.860     0.241     0.918     1.501
   238   1 H      0.860     0.261     0.843     1.438
   239   7 N      2.662    -0.235    26.160     7.596
   240   1 H      0.860     0.226     0.985     1.554
   241   1 H      0.860     0.217     1.023     1.584
   242   6 C      2.739     0.258    22.654     7.793
   243   8 O      0.858    -0.453    22.778     6.399
   244   7 N      2.684    -0.183    24.966     7.421
   245   1 H      0.860     0.214     1.037     1.595
   246   6 C      3.792     0.009    20.433     6.437
   247   1 H      0.925     0.076     2.018     2.221
   248   6 C      3.819    -0.091    22.226     6.709
   249   1 H      0.925     0.083     1.945     2.181
   250   1 H      0.925     0.058     2.228     2.334
   251   6 C      3.846    -0.021    20.918     6.506
   252   1 H      0.925     0.041     2.434     2.440
   253   6 C      3.764    -0.134    23.125     6.854
   254   1 H      0.925     0.055     2.259     2.350
   255   1 H      0.925     0.054     2.269     2.355
   256   1 H      0.925     0.055     2.258     2.350
   257   6 C      3.754    -0.109    22.632     6.784
   258   1 H      0.924     0.036     2.506     2.475
   259   1 H      0.925     0.038     2.476     2.461
   260   1 H      0.924     0.023     2.687     2.564
   261   6 C      2.757     0.272    22.401     7.750
   262   8 O      0.858    -0.456    22.827     6.406
   263   7 N      2.686    -0.182    24.953     7.419
   264   1 H      0.860     0.210     1.058     1.611
   265   6 C      3.796     0.004    20.521     6.451
   266   1 H      0.924     0.085     1.931     2.173
   267   6 C      3.797    -0.084    22.109     6.695
   268   1 H      0.924     0.064     2.148     2.292
   269   1 H      0.924     0.071     2.071     2.250
   270   6 C      3.790    -0.083    22.100     6.695
   271   1 H      0.925     0.062     2.171     2.304
   272   1 H      0.924     0.068     2.110     2.272
   273   6 C      3.802    -0.098    22.371     6.734
   274   1 H      0.925     0.075     2.031     2.229
   275   1 H      0.924     0.074     2.038     2.232
   276   6 C      3.732    -0.059    21.736     6.655
   277   1 H      0.925     0.131     1.530     1.934
   278   1 H      0.924     0.133     1.513     1.924
   279   7 N      3.490    -0.147    24.160     7.300
   280   1 H      0.860     0.298     0.719     1.328
   281   1 H      0.860     0.291     0.739     1.347
   282   1 H      0.860     0.297     0.723     1.332
   283   6 C      2.749     0.274    22.358     7.743
   284   8 O      0.858    -0.479    23.332     6.476
   285   7 N      2.685    -0.187    25.051     7.434
   286   1 H      0.860     0.230     0.965     1.539
   287   6 C      3.772     0.006    20.507     6.453
   288   1 H      0.924     0.049     2.327     2.386
   289   6 C      3.837    -0.030    21.083     6.532
   290   1 H      0.924     0.057     2.238     2.340
   291   6 C      3.748    -0.136    23.186     6.868
   292   1 H      0.925     0.068     2.105     2.269
   293   1 H      0.924     0.070     2.083     2.257
   294   1 H      0.925     0.063     2.159     2.298
   295   6 C      3.804    -0.070    21.834     6.652
   296   1 H      0.924     0.023     2.688     2.564
   297   1 H      0.925     0.038     2.475     2.460
   298   6 C      3.747    -0.132    23.106     6.856
   299   1 H      0.924     0.038     2.479     2.462
   300   1 H      0.925     0.036     2.502     2.473
   301   1 H      0.925     0.079     1.994     2.208
   302   6 C      2.747     0.274    22.374     7.745
   303   8 O      0.858    -0.463    22.979     6.427
   304   7 N      2.679    -0.186    25.022     7.429
   305   1 H      0.860     0.231     0.960     1.535
   306   6 C      3.779     0.018    20.297     6.418
   307   1 H      0.925     0.108     1.713     2.047
   308   6 C      3.800    -0.096    22.324     6.727
   309   1 H      0.925     0.093     1.854     2.129
   310   1 H      0.925     0.068     2.105     2.269
   311   6 C      2.972     0.005    27.914     8.666
   312   6 C      2.910    -0.044    29.098     8.845
   313   1 H      0.926     0.060     2.203     2.321
   314   6 C      2.913    -0.089    30.222     9.015
   315   1 H      0.926     0.010     2.894     2.660
   316   6 C      2.827     0.133    25.087     8.207
   317   8 O      1.661    -0.403    20.899     6.171
   318   1 H      0.805     0.304     0.708     1.322
   319   6 C      2.925    -0.074    29.845     8.959
   320   1 H      0.926     0.041     2.432     2.438
   321   6 C      2.907    -0.042    29.037     8.836
   322   1 H      0.926     0.088     1.899     2.155
   323   6 C      2.745     0.257    22.676     7.797
   324   8 O      0.860    -0.514    24.092     6.581
   325   7 N      2.685    -0.148    24.199     7.306
   326   1 H      0.860     0.214     1.038     1.596
   327   6 C      3.787     0.015    20.336     6.423
   328   1 H      0.924     0.090     1.879     2.144
   329   6 C      3.815    -0.084    22.089     6.689
   330   1 H      0.925     0.045     2.381     2.413
   331   1 H      0.925     0.075     2.029     2.227
   332   6 C      3.801    -0.081    22.055     6.686
   333   1 H      0.925     0.084     1.938     2.177
   334   1 H      0.925     0.061     2.187     2.313
   335   6 C      3.813    -0.099    22.374     6.733
   336   1 H      0.925     0.072     2.065     2.247
   337   1 H      0.924     0.094     1.843     2.123
   338   6 C      3.730    -0.053    21.619     6.637
   339   1 H      0.924     0.138     1.476     1.900
   340   1 H      0.925     0.118     1.626     1.994
   341   7 N      3.486    -0.152    24.268     7.317
   342   1 H      0.860     0.285     0.759     1.365
   343   1 H      0.860     0.293     0.735     1.343
   344   1 H      0.860     0.302     0.707     1.317
   345   6 C      2.756     0.264    22.541     7.775
   346   8 O      0.860    -0.528    24.404     6.623
   347   7 N      2.693    -0.156    24.367     7.331
   348   1 H      0.860     0.216     1.029     1.589
   349   6 C      3.784     0.033    20.033     6.376
   350   1 H      0.924     0.079     1.994     2.208
   351   6 C      3.807    -0.087    22.149     6.700
   352   1 H      0.924     0.023     2.684     2.562
   353   1 H      0.925     0.040     2.445     2.445
   354   6 C      2.687     0.366    20.791     7.462
   355   8 O      0.859    -0.670    27.902     7.082
   356   8 O      0.856    -0.603    26.205     6.863
   357   6 C      2.741     0.263    22.563     7.777
   358   8 O      0.860    -0.480    23.351     6.479
   359   7 N      2.694    -0.172    24.725     7.385
   360   1 H      0.860     0.199     1.112     1.652
   361   6 C      3.790     0.027    20.132     6.390
   362   1 H      0.925     0.097     1.813     2.106
   363   6 C      3.739     0.116    18.760     6.180
   364   1 H      0.925     0.010     2.891     2.659
   365   6 C      3.759    -0.135    23.148     6.859
   366   1 H      0.924     0.086     1.920     2.167
   367   1 H      0.925     0.054     2.274     2.358
   368   1 H      0.924     0.069     2.093     2.263
   369   8 O      1.662    -0.497    22.820     6.449
   370   1 H      0.806     0.351     0.585     1.202
   371   6 C      2.754     0.273    22.384     7.747
   372   8 O      0.858    -0.498    23.737     6.532
   373   7 N      2.682    -0.183    24.962     7.420
   374   1 H      0.860     0.211     1.052     1.606
   375   6 C      3.786     0.034    20.019     6.373
   376   1 H      0.925     0.078     2.000     2.212
   377   6 C      3.800    -0.048    21.428     6.591
   378   1 H      0.924     0.068     2.110     2.272
   379   1 H      0.925     0.036     2.503     2.474
   380   6 C      3.804    -0.084    22.101     6.693
   381   1 H      0.925     0.049     2.330     2.387
   382   1 H      0.925     0.017     2.786     2.610
   383   6 C      2.691     0.360    20.889     7.480
   384   8 O      0.858    -0.616    26.524     6.905
   385   8 O      0.856    -0.640    27.127     6.983
   386   6 C      2.746     0.264    22.543     7.774
   387   8 O      0.873    -0.503    23.852     6.548
   388   7 N      2.696    -0.183    24.975     7.422
   389   1 H      0.860     0.200     1.105     1.647
   390   6 C      3.736    -0.030    21.204     6.572
   391   1 H      0.925     0.108     1.711     2.045
   392   1 H      0.925     0.117     1.638     2.002
   393   6 C      2.743     0.282    22.225     7.719
   394   8 O      0.859    -0.504    23.874     6.551
   395   7 N      2.681    -0.157    24.403     7.337
   396   1 H      0.860     0.181     1.207     1.721
   397   6 C      3.773     0.025    20.179     6.401
   398   1 H      0.925     0.078     2.000     2.212
   399   6 C      3.806    -0.067    21.776     6.643
   400   1 H      0.925     0.075     2.028     2.227
   401   1 H      0.925     0.032     2.559     2.502
   402   6 C      2.951    -0.000    28.033     8.684
   403   6 C      2.924    -0.041    29.016     8.834
   404   1 H      0.926     0.025     2.665     2.553
   405   6 C      2.899    -0.062    29.535     8.911
   406   1 H      0.926     0.067     2.123     2.279
   407   6 C      2.842     0.143    24.882     8.175
   408   8 O      1.659    -0.431    21.459     6.253
   409   1 H      0.805     0.357     0.571     1.187
   410   6 C      2.894    -0.079    29.978     8.977
   411   1 H      0.926     0.066     2.127     2.281
   412   6 C      2.922    -0.044    29.090     8.845
   413   1 H      0.926     0.036     2.499     2.472
   414   6 C      2.740     0.266    22.518     7.770
   415   8 O      0.858    -0.486    23.479     6.497
   416   7 N      2.681    -0.182    24.938     7.417
   417   1 H      0.860     0.223     0.998     1.565
   418   6 C      3.779     0.018    20.295     6.418
   419   1 H      0.924     0.091     1.874     2.141
   420   6 C      3.804    -0.069    21.816     6.649
   421   1 H      0.924     0.065     2.142     2.289
   422   1 H      0.925     0.049     2.334     2.389
   423   6 C      2.964    -0.004    28.120     8.698
   424   6 C      2.913    -0.039    28.969     8.826
   425   1 H      0.926     0.017     2.773     2.604
   426   6 C      2.924    -0.071    29.772     8.948
   427   1 H      0.926     0.034     2.524     2.485
   428   6 C      2.844     0.137    25.001     8.195
   429   8 O      1.660    -0.411    21.053     6.194
   430   1 H      0.806     0.331     0.634     1.251
   431   6 C      2.920    -0.069    29.707     8.938
   432   1 H      0.926     0.095     1.832     2.117
   433   6 C      2.915    -0.041    29.017     8.833
   434   1 H      0.926     0.069     2.097     2.265
   435   6 C      2.748     0.269    22.463     7.761
   436   8 O      0.858    -0.512    24.050     6.575
   437   7 N      2.687    -0.164    24.557     7.360
   438   1 H      0.860     0.250     0.882     1.472
   439   6 C      3.780    -0.000    20.607     6.467
   440   1 H      0.924     0.078     2.002     2.213
   441   6 C      3.723     0.119    18.739     6.182
   442   1 H      0.924     0.035     2.522     2.483
   443   6 C      3.764    -0.107    22.586     6.774
   444   1 H      0.925     0.045     2.387     2.416
   445   1 H      0.925     0.049     2.332     2.388
   446   1 H      0.925     0.040     2.442     2.444
   447   8 O      1.668    -0.475    22.346     6.382
   448   1 H      0.806     0.309     0.694     1.308
   449   6 C      2.745     0.262    22.584     7.781
   450   8 O      0.861    -0.434    22.368     6.341
   451   7 N      2.686    -0.163    24.533     7.356
   452   1 H      0.860     0.217     1.021     1.583
   453   6 C      3.780     0.009    20.451     6.442
   454   1 H      0.924     0.092     1.855     2.130
   455   6 C      3.842    -0.036    21.195     6.549
   456   1 H      0.925     0.070     2.085     2.258
   457   6 C      3.745    -0.137    23.202     6.871
   458   1 H      0.925     0.078     2.000     2.212
   459   1 H      0.925     0.037     2.486     2.466
   460   1 H      0.925     0.039     2.460     2.453
   461   6 C      3.809    -0.069    21.812     6.648
   462   1 H      0.924     0.049     2.329     2.387
   463   1 H      0.924     0.043     2.407     2.426
   464   6 C      3.752    -0.127    23.004     6.840
   465   1 H      0.925     0.054     2.268     2.355
   466   1 H      0.924     0.061     2.192     2.315
   467   1 H      0.925     0.058     2.220     2.330
   468   6 C      2.744     0.266    22.509     7.768
   469   8 O      0.862    -0.510    24.008     6.569
   470   7 N      2.688    -0.148    24.211     7.308
   471   1 H      0.860     0.240     0.921     1.503
   472   6 C      3.733    -0.035    21.288     6.586
   473   1 H      0.925     0.072     2.059     2.244
   474   1 H      0.924     0.114     1.659     2.014
   475   6 C      2.744     0.270    22.432     7.755
   476   8 O      0.858    -0.457    22.846     6.408
   477   7 N      2.679    -0.191    25.149     7.448
   478   1 H      0.860     0.195     1.131     1.666
   479   6 C      3.772     0.010    20.439     6.442
   480   1 H      0.924     0.091     1.872     2.140
   481   6 C      3.839    -0.018    20.871     6.499
   482   1 H      0.925     0.037     2.483     2.464
   483   6 C      3.749    -0.108    22.630     6.785
   484   1 H      0.924     0.048     2.345     2.395
   485   1 H      0.925     0.023     2.688     2.564
   486   1 H      0.925     0.056     2.242     2.341
   487   6 C      3.800    -0.072    21.879     6.660
   488   1 H      0.925     0.046     2.375     2.410
   489   1 H      0.925     0.052     2.299     2.371
   490   6 C      3.748    -0.120    22.867     6.820
   491   1 H      0.924     0.051     2.309     2.376
   492   1 H      0.925     0.035     2.515     2.480
   493   1 H      0.924     0.057     2.239     2.340
   494   6 C      2.746     0.267    22.499     7.767
   495   8 O      0.857    -0.490    23.559     6.508
   496   7 N      2.682    -0.169    24.658     7.375
   497   1 H      0.860     0.222     1.000     1.566
   498   6 C      3.745    -0.014    20.888     6.520
   499   1 H      0.925     0.067     2.124     2.279
   500   1 H      0.925     0.087     1.912     2.162
   501   6 C      2.756     0.288    22.117     7.701
   502   8 O      0.863    -0.526    24.360     6.617
   503   7 N      2.686    -0.170    24.684     7.379
   504   1 H      0.860     0.246     0.897     1.484
   505   6 C      3.782     0.032    20.051     6.379
   506   1 H      0.925     0.056     2.245     2.343
   507   6 C      3.797    -0.088    22.178     6.706
   508   1 H      0.925     0.125     1.570     1.960
   509   1 H      0.925     0.088     1.897     2.154
   510   6 C      3.087     0.055    26.667     8.465
   511   7 N      2.744    -0.044    22.096     6.981
   512   1 H      0.860     0.259     0.849     1.443
   513   6 C      3.090     0.071    26.304     8.407
   514   1 H      0.926     0.132     1.522     1.929
   515   7 N      2.731    -0.016    21.562     6.897
   516   1 H      0.860     0.276     0.788     1.391
   517   6 C      3.029    -0.017    28.405     8.742
   518   1 H      0.926     0.137     1.479     1.902
   519   6 C      2.741     0.254    22.734     7.807
   520   8 O      0.860    -0.491    23.583     6.511
   521   7 N      2.689    -0.155    24.356     7.330
   522   1 H      0.860     0.195     1.131     1.666
   523   6 C      3.790     0.028    20.111     6.387
   524   1 H      0.925     0.074     2.038     2.233
   525   6 C      3.810    -0.081    22.042     6.683
   526   1 H      0.925     0.059     2.212     2.326
   527   1 H      0.925     0.058     2.221     2.331
   528   6 C      3.849    -0.016    20.824     6.491
   529   1 H      0.925     0.022     2.699     2.569
   530   6 C      3.762    -0.123    22.910     6.823
   531   1 H      0.925     0.051     2.312     2.378
   532   1 H      0.925     0.045     2.383     2.414
   533   1 H      0.924     0.031     2.574     2.509
   534   6 C      3.765    -0.132    23.079     6.847
   535   1 H      0.925     0.050     2.320     2.382
   536   1 H      0.924     0.058     2.224     2.332
   537   1 H      0.925     0.073     2.058     2.243
   538   6 C      2.753     0.278    22.301     7.733
   539   8 O      0.861    -0.494    23.660     6.522
   540   7 N      2.693    -0.191    25.146     7.448
   541   1 H      0.860     0.233     0.951     1.528
   542   6 C      3.796     0.021    20.219     6.403
   543   1 H      0.925     0.075     2.034     2.230
   544   6 C      3.817    -0.074    21.904     6.661
   545   1 H      0.925     0.049     2.331     2.388
   546   1 H      0.924     0.050     2.315     2.379
   547   6 C      3.841    -0.017    20.841     6.494
   548   1 H      0.924     0.044     2.396     2.420
   549   6 C      3.760    -0.127    22.994     6.836
   550   1 H      0.924     0.069     2.091     2.261
   551   1 H      0.925     0.070     2.086     2.259
   552   1 H      0.925     0.045     2.379     2.412
   553   6 C      3.752    -0.124    22.939     6.830
   554   1 H      0.925     0.014     2.831     2.631
   555   1 H      0.925     0.043     2.411     2.428
   556   1 H      0.924     0.069     2.102     2.267
   557   6 C      2.750     0.268    22.483     7.764
   558   8 O      0.857    -0.504    23.880     6.552
   559   7 N      2.679    -0.180    24.893     7.410
   560   1 H      0.860     0.228     0.974     1.546
   561   6 C      3.785     0.004    20.529     6.454
   562   1 H      0.925     0.079     1.990     2.206
   563   6 C      3.717     0.111    18.872     6.206
   564   1 H      0.925     0.035     2.523     2.484
   565   6 C      3.749    -0.132    23.093     6.854
   566   1 H      0.924     0.055     2.259     2.350
   567   1 H      0.925     0.070     2.085     2.258
   568   1 H      0.925     0.054     2.272     2.357
   569   8 O      1.654    -0.472    22.303     6.375
   570   1 H      0.805     0.338     0.616     1.233
   571   6 C      2.755     0.265    22.526     7.772
   572   8 O      0.857    -0.485    23.460     6.494
   573   7 N      2.690    -0.155    24.362     7.331
   574   1 H      0.860     0.226     0.983     1.553
   575   6 C      3.796     0.007    20.458     6.441
   576   1 H      0.925     0.084     1.943     2.180
   577   6 C      3.806    -0.077    21.964     6.672
   578   1 H      0.925     0.082     1.959     2.189
   579   1 H      0.924     0.073     2.053     2.241
   580   6 C      3.834    -0.087    22.128     6.693
   581   1 H      0.925     0.056     2.245     2.343
   582   1 H      0.925     0.049     2.336     2.390
   583   6 C      3.799    -0.105    22.509     6.755
   584   1 H      0.925     0.085     1.933     2.174
   585   1 H      0.925     0.090     1.877     2.142
   586   6 C      3.763    -0.056    21.629     6.629
   587   1 H      0.925     0.113     1.669     2.020
   588   1 H      0.925     0.121     1.603     1.980
   589   7 N      3.488    -0.147    24.173     7.302
   590   1 H      0.860     0.300     0.713     1.322
   591   1 H      0.860     0.298     0.719     1.328
   592   1 H      0.860     0.303     0.705     1.316
   593   6 C      2.750     0.268    22.466     7.761
   594   8 O      0.858    -0.494    23.650     6.520
   595   7 N      2.689    -0.150    24.238     7.312
   596   1 H      0.860     0.211     1.053     1.607
   597   6 C      3.790     0.014    20.355     6.425
   598   1 H      0.925     0.090     1.876     2.142
   599   6 C      3.689     0.070    19.592     6.335
   600   1 H      0.924     0.043     2.405     2.425
   601   1 H      0.925     0.065     2.138     2.287
   602   8 O      1.656    -0.467    22.186     6.358
   603   1 H      0.805     0.343     0.604     1.221
   604   6 C      2.760     0.235    23.077     7.867
   605   8 O      0.857    -0.498    23.742     6.533
   606   7 N      2.757    -0.097    23.139     7.144
   607   6 C      3.850    -0.013    20.769     6.482
   608   1 H      0.925     0.072     2.063     2.246
   609   1 H      0.925     0.069     2.096     2.264
   610   6 C      3.839    -0.080    21.996     6.672
   611   1 H      0.925     0.069     2.095     2.264
   612   1 H      0.925     0.074     2.044     2.236
   613   6 C      3.910    -0.078    21.917     6.654
   614   1 H      0.924     0.076     2.024     2.225
   615   1 H      0.925     0.065     2.140     2.287
   616   6 C      3.835     0.017    20.272     6.406
   617   1 H      0.925     0.100     1.781     2.087
   618   6 C      2.757     0.277    22.322     7.737
   619   8 O      0.860    -0.473    23.193     6.457
   620   7 N      2.684    -0.161    24.489     7.350
   621   1 H      0.860     0.193     1.145     1.676
   622   6 C      3.779     0.014    20.364     6.429
   623   1 H      0.925     0.091     1.868     2.137
   624   6 C      3.677     0.066    19.689     6.357
   625   1 H      0.924     0.047     2.363     2.404
   626   1 H      0.925     0.062     2.178     2.308
   627   8 O      1.655    -0.472    22.305     6.375
   628   1 H      0.805     0.342     0.608     1.225
   629   6 C      2.742     0.268    22.481     7.763
   630   8 O      0.865    -0.490    23.571     6.509
   631   7 N      2.692    -0.168    24.627     7.370
   632   1 H      0.860     0.212     1.045     1.601
   633   6 C      3.774     0.003    20.558     6.460
   634   1 H      0.925     0.099     1.798     2.097
   635   6 C      3.802    -0.089    22.200     6.708
   636   1 H      0.925     0.058     2.222     2.331
   637   1 H      0.925     0.080     1.975     2.198
   638   6 C      3.850    -0.019    20.872     6.498
   639   1 H      0.924     0.045     2.388     2.417
   640   6 C      3.754    -0.141    23.268     6.878
   641   1 H      0.924     0.052     2.298     2.371
   642   1 H      0.925     0.043     2.405     2.425
   643   1 H      0.925     0.069     2.097     2.265
   644   6 C      3.755    -0.137    23.189     6.866
   645   1 H      0.925     0.075     2.028     2.227
   646   1 H      0.924     0.050     2.315     2.379
   647   1 H      0.925     0.056     2.249     2.345
   648   6 C      2.745     0.269    22.448     7.758
   649   8 O      0.864    -0.464    22.991     6.429
   650   7 N      2.689    -0.177    24.830     7.401
   651   1 H      0.860     0.216     1.027     1.588
   652   6 C      3.782     0.008    20.465     6.444
   653   1 H      0.925     0.118     1.629     1.996
   654   6 C      3.805    -0.127    22.937     6.818
   655   1 H      0.925     0.089     1.890     2.150
   656   1 H      0.924     0.113     1.673     2.023
   657   6 C      2.742     0.293    22.029     7.685
   658   8 O      0.861    -0.513    24.073     6.578
   659   7 N      2.639    -0.284    27.339     7.766
   660   1 H      0.860     0.228     0.973     1.545
   661   1 H      0.860     0.244     0.908     1.492
   662   6 C      2.747     0.267    22.499     7.767
   663   8 O      0.861    -0.490    23.568     6.509
   664   7 N      2.689    -0.185    24.998     7.426
   665   1 H      0.860     0.215     1.031     1.591
   666   6 C      3.785     0.026    20.156     6.395
   667   1 H      0.924     0.062     2.180     2.309
   668   6 C      3.755    -0.130    23.062     6.847
   669   1 H      0.925     0.070     2.088     2.260
   670   1 H      0.924     0.076     2.020     2.222
   671   1 H      0.925     0.062     2.176     2.307
   672   6 C      2.766     0.267    22.486     7.766
   673   8 O      0.861    -0.508    23.970     6.564
   674   7 N      2.691    -0.181    24.928     7.415
   675   1 H      0.860     0.231     0.960     1.535
   676   6 C      3.800     0.018    20.265     6.409
   677   1 H      0.925     0.061     2.189     2.314
   678   6 C      3.753    -0.140    23.261     6.877
   679   1 H      0.925     0.079     1.994     2.208
   680   1 H      0.925     0.073     2.056     2.242
   681   1 H      0.924     0.090     1.881     2.145
   682   6 C      2.750     0.273    22.390     7.748
   683   8 O      0.860    -0.499    23.768     6.536
   684   7 N      2.682    -0.170    24.686     7.379
   685   1 H      0.860     0.234     0.947     1.525
   686   6 C      3.792     0.011    20.401     6.432
   687   1 H      0.925     0.108     1.713     2.047
   688   6 C      3.790    -0.094    22.294     6.724
   689   1 H      0.925     0.059     2.205     2.322
   690   1 H      0.925     0.072     2.062     2.245
   691   6 C      3.789    -0.094    22.306     6.726
   692   1 H      0.925     0.095     1.831     2.116
   693   1 H      0.924     0.073     2.054     2.241
   694   6 C      3.804    -0.102    22.439     6.744
   695   1 H      0.925     0.099     1.795     2.095
   696   1 H      0.924     0.061     2.183     2.311
   697   6 C      3.735    -0.051    21.582     6.630
   698   1 H      0.925     0.100     1.786     2.090
   699   1 H      0.925     0.116     1.644     2.005
   700   7 N      3.493    -0.158    24.399     7.336
   701   1 H      0.860     0.297     0.722     1.331
   702   1 H      0.860     0.303     0.703     1.314
   703   1 H      0.860     0.308     0.689     1.300
   704   6 C      2.747     0.278    22.301     7.733
   705   8 O      0.864    -0.505    23.901     6.555
   706   7 N      2.685    -0.179    24.879     7.408
   707   1 H      0.860     0.233     0.951     1.527
   708   6 C      3.786     0.026    20.146     6.393
   709   1 H      0.925     0.069     2.098     2.265
   710   6 C      3.686     0.076    19.494     6.321
   711   1 H      0.924     0.043     2.407     2.426
   712   1 H      0.925     0.035     2.521     2.483
   713   8 O      1.656    -0.461    22.065     6.341
   714   1 H      0.806     0.348     0.593     1.210
   715   6 C      2.751     0.268    22.481     7.764
   716   8 O      0.860    -0.490    23.565     6.508
   717   7 N      2.685    -0.199    25.328     7.475
   718   1 H      0.860     0.227     0.980     1.551
   719   6 C      3.786     0.045    19.830     6.343
   720   1 H      0.925     0.045     2.390     2.417
   721   6 C      3.808    -0.045    21.373     6.581
   722   1 H      0.925     0.046     2.373     2.409
   723   1 H      0.924     0.053     2.285     2.364
   724   6 C      3.798    -0.091    22.235     6.714
   725   1 H      0.925     0.042     2.425     2.435
   726   1 H      0.925     0.035     2.513     2.479
   727   6 C      2.681     0.357    20.935     7.487
   728   8 O      0.856    -0.671    27.936     7.086
   729   8 O      0.856    -0.636    27.030     6.971
   730   6 C      2.747     0.264    22.552     7.776
   731   8 O      0.858    -0.533    24.535     6.641
   732   7 N      2.679    -0.166    24.583     7.364
   733   1 H      0.860     0.212     1.045     1.602
   734   6 C      3.782     0.011    20.417     6.437
   735   1 H      0.925     0.087     1.906     2.159
   736   6 C      3.793    -0.090    22.225     6.713
   737   1 H      0.924     0.058     2.226     2.333
   738   1 H      0.924     0.079     1.991     2.206
   739   6 C      3.845    -0.016    20.828     6.492
   740   1 H      0.925     0.030     2.592     2.518
   741   6 C      3.759    -0.120    22.852     6.815
   742   1 H      0.925     0.013     2.847     2.639
   743   1 H      0.925     0.062     2.180     2.309
   744   1 H      0.924     0.037     2.491     2.468
   745   6 C      3.755    -0.139    23.241     6.874
   746   1 H      0.924     0.061     2.187     2.313
   747   1 H      0.925     0.073     2.051     2.240
   748   1 H      0.924     0.070     2.080     2.256
   749   6 C      2.763     0.273    22.388     7.749
   750   8 O      0.857    -0.521    24.245     6.602
   751   7 N      2.695    -0.171    24.711     7.383
   752   1 H      0.860     0.244     0.907     1.492
   753   6 C      3.806     0.047    19.785     6.332
   754   1 H      0.925     0.069     2.098     2.265
   755   6 C      3.809    -0.090    22.201     6.707
   756   1 H      0.925     0.037     2.488     2.466
   757   1 H      0.924     0.058     2.218     2.329
   758   6 C      2.690     0.366    20.796     7.463
   759   8 O      0.857    -0.628    26.806     6.942
   760   8 O      0.857    -0.667    27.813     7.071
   761   6 C      2.747     0.276    22.326     7.737
   762   8 O      0.859    -0.515    24.127     6.586
   763   7 N      2.687    -0.195    25.229     7.460
   764   1 H      0.860     0.201     1.100     1.643
   765   6 C      3.782     0.030    20.083     6.384
   766   1 H      0.924     0.080     1.976     2.199
   767   6 C      3.804    -0.072    21.876     6.659
   768   1 H      0.925     0.038     2.479     2.462
   769   1 H      0.925     0.066     2.125     2.280
   770   6 C      3.802    -0.071    21.855     6.656
   771   1 H      0.925     0.061     2.184     2.311
   772   1 H      0.925     0.070     2.090     2.261
   773   6 C      3.801    -0.092    22.259     6.717
   774   1 H      0.925     0.076     2.018     2.221
   775   1 H      0.924     0.075     2.030     2.228
   776   6 C      3.731    -0.055    21.654     6.642
   777   1 H      0.925     0.120     1.612     1.985
   778   1 H      0.924     0.112     1.683     2.029
   779   7 N      3.486    -0.149    24.203     7.307
   780   1 H      0.860     0.299     0.717     1.326
   781   1 H      0.860     0.297     0.722     1.331
   782   1 H      0.860     0.312     0.679     1.291
   783   6 C      2.743     0.272    22.398     7.749
   784   8 O      0.858    -0.457    22.849     6.409
   785   7 N      2.690    -0.190    25.129     7.445
   786   1 H      0.860     0.182     1.204     1.719
   787   6 C      3.780     0.022    20.227     6.407
   788   1 H      0.924     0.088     1.902     2.157
   789   6 C      3.755    -0.128    23.009     6.840
   790   1 H      0.925     0.063     2.166     2.301
   791   1 H      0.924     0.063     2.163     2.300
   792   1 H      0.924     0.068     2.103     2.268
   793   6 C      2.747     0.278    22.301     7.733
   794   8 O      0.860    -0.486    23.480     6.497
   795   7 N      2.682    -0.185    25.018     7.429
   796   1 H      0.860     0.216     1.027     1.588
   797   6 C      3.787     0.018    20.290     6.416
   798   1 H      0.925     0.100     1.785     2.089
   799   6 C      3.826    -0.031    21.106     6.537
   800   1 H      0.925     0.057     2.231     2.336
   801   6 C      3.744    -0.119    22.856     6.820
   802   1 H      0.925     0.040     2.450     2.448
   803   1 H      0.925     0.055     2.254     2.348
   804   1 H      0.924     0.063     2.165     2.301
   805   6 C      3.786    -0.059    21.657     6.628
   806   1 H      0.925     0.014     2.822     2.627
   807   1 H      0.925     0.049     2.334     2.389
   808   6 C      3.748    -0.106    22.590     6.779
   809   1 H      0.925     0.053     2.288     2.366
   810   1 H      0.924     0.034     2.530     2.488
   811   1 H      0.925     0.056     2.250     2.346
   812   6 C      2.753     0.272    22.405     7.751
   813   8 O      0.858    -0.498    23.742     6.533
   814   7 N      2.682    -0.172    24.713     7.383
   815   1 H      0.860     0.202     1.094     1.638
   816   6 C      3.743    -0.021    21.028     6.542
   817   1 H      0.925     0.094     1.836     2.119
   818   1 H      0.925     0.090     1.880     2.144
   819   6 C      2.744     0.284    22.191     7.713
   820   8 O      0.859    -0.472    23.167     6.453
   821   7 N      2.678    -0.181    24.917     7.414
   822   1 H      0.860     0.189     1.165     1.691
   823   6 C      3.776     0.022    20.232     6.409
   824   1 H      0.924     0.066     2.134     2.284
   825   6 C      3.800    -0.079    22.005     6.679
   826   1 H      0.925     0.063     2.169     2.303
   827   1 H      0.925     0.071     2.073     2.252
   828   6 C      3.799    -0.070    21.836     6.653
   829   1 H      0.924     0.057     2.232     2.336
   830   1 H      0.925     0.064     2.152     2.294
   831   6 C      3.734    -0.024    21.096     6.555
   832   1 H      0.925     0.080     1.982     2.202
   833   1 H      0.924     0.084     1.941     2.178
   834   7 N      2.705    -0.170    24.672     7.377
   835   1 H      0.860     0.241     0.918     1.501
   836   6 C      2.736     0.239    23.009     7.853
   837   7 N      2.675    -0.249    26.480     7.643
   838   1 H      0.860     0.268     0.816     1.415
   839   1 H      0.860     0.234     0.949     1.526
   840   7 N      2.686    -0.279    27.203     7.746
   841   1 H      0.860     0.221     1.005     1.570
   842   1 H      0.860     0.249     0.889     1.477
   843   6 C      2.740     0.267    22.498     7.766
   844   8 O      0.857    -0.493    23.623     6.516
   845   7 N      2.686    -0.166    24.599     7.366
   846   1 H      0.860     0.214     1.037     1.595
   847   6 C      3.786     0.035    20.007     6.371
   848   1 H      0.924     0.084     1.941     2.179
   849   6 C      3.797    -0.104    22.490     6.753
   850   1 H      0.924     0.096     1.826     2.113
   851   1 H      0.924     0.065     2.137     2.286
   852   6 C      2.739     0.286    22.161     7.708
   853   8 O      0.859    -0.480    23.354     6.479
   854   7 N      2.635    -0.292    27.535     7.793
   855   1 H      0.860     0.247     0.895     1.482
   856   1 H      0.860     0.229     0.968     1.542
   857   6 C      2.749     0.277    22.321     7.736
   858   8 O      0.859    -0.469    23.117     6.446
   859   7 N      2.691    -0.204    25.437     7.491
   860   1 H      0.863     0.214     1.035     1.593
   861   6 C      3.808     0.004    20.503     6.446
   862   1 H      0.925     0.092     1.859     2.132
   863   6 C      3.801    -0.030    21.107     6.541
   864   1 H      0.925     0.057     2.233     2.337
   865   1 H      0.925     0.118     1.632     1.998
   866  16 S      1.929    -0.298   153.958    20.884
   867   1 H      0.923     0.185     1.178     1.698
   868   6 C      2.742     0.271    22.413     7.752
   869   8 O      0.857    -0.456    22.835     6.407
   870   7 N      2.684    -0.173    24.736     7.387
   871   1 H      0.860     0.191     1.151     1.680
   872   6 C      3.792     0.017    20.300     6.416
   873   1 H      0.924     0.094     1.844     2.123
   874   6 C      3.800    -0.099    22.395     6.738
   875   1 H      0.924     0.076     2.020     2.222
   876   1 H      0.925     0.080     1.976     2.198
   877   6 C      2.742     0.291    22.066     7.691
   878   8 O      0.877    -0.510    23.999     6.569
   879   7 N      2.654    -0.254    26.594     7.659
   880   1 H      0.860     0.270     0.811     1.411
   881   1 H      0.860     0.224     0.993     1.561
   882   6 C      2.752     0.280    22.267     7.727
   883   8 O      0.861    -0.435    22.390     6.344
   884   7 N      2.682    -0.174    24.773     7.392
   885   1 H      0.860     0.180     1.216     1.727
   886   6 C      3.733    -0.056    21.677     6.645
   887   1 H      0.925     0.131     1.527     1.932
   888   1 H      0.924     0.097     1.808     2.103
   889   6 C      2.742     0.281    22.245     7.723
   890   8 O      0.864    -0.448    22.669     6.384
   891   7 N      2.686    -0.157    24.386     7.334
   892   1 H      0.860     0.187     1.176     1.699
   893   6 C      3.782     0.003    20.550     6.458
   894   1 H      0.925     0.088     1.895     2.153
   895   6 C      3.841    -0.017    20.846     6.495
   896   1 H      0.924     0.044     2.399     2.422
   897   6 C      3.766    -0.125    22.945     6.827
   898   1 H      0.924     0.027     2.623     2.533
   899   1 H      0.925     0.054     2.276     2.359
   900   1 H      0.925     0.048     2.344     2.394
   901   6 C      3.761    -0.127    22.978     6.834
   902   1 H      0.924     0.064     2.154     2.295
   903   1 H      0.925     0.065     2.145     2.291
   904   1 H      0.925     0.056     2.247     2.344
   905   6 C      2.744     0.274    22.369     7.744
   906   8 O      0.861    -0.486    23.464     6.495
   907   7 N      2.682    -0.179    24.868     7.406
   908   1 H      0.860     0.234     0.949     1.526
   909   6 C      3.794     0.010    20.420     6.435
   910   1 H      0.925     0.076     2.024     2.225
   911   6 C      3.847    -0.030    21.071     6.529
   912   1 H      0.924     0.032     2.560     2.502
   913   6 C      3.750    -0.126    22.986     6.837
   914   1 H      0.925     0.054     2.274     2.358
   915   1 H      0.925     0.064     2.149     2.293
   916   1 H      0.924     0.047     2.359     2.402
   917   6 C      3.800    -0.073    21.892     6.662
   918   1 H      0.925     0.029     2.598     2.521
   919   1 H      0.925     0.058     2.226     2.333
   920   6 C      3.749    -0.128    23.016     6.842
   921   1 H      0.925     0.060     2.201     2.320
   922   1 H      0.924     0.034     2.537     2.491
   923   1 H      0.925     0.046     2.375     2.410
   924   6 C      2.754     0.281    22.242     7.723
   925   8 O      0.865    -0.469    23.115     6.446
   926   7 N      2.698    -0.187    25.047     7.433
   927   1 H      0.860     0.209     1.063     1.615
   928   6 C      3.797     0.008    20.444     6.438
   929   1 H      0.925     0.099     1.797     2.096
   930   6 C      3.725     0.106    18.935     6.213
   931   1 H      0.924     0.047     2.352     2.398
   932   6 C      3.743    -0.149    23.452     6.909
   933   1 H      0.925     0.064     2.151     2.294
   934   1 H      0.925     0.070     2.081     2.256
   935   1 H      0.924     0.062     2.178     2.308
   936   8 O      1.656    -0.517    23.261     6.511
   937   1 H      0.806     0.335     0.625     1.242
   938   6 C      2.749     0.260    22.622     7.788
   939   8 O      0.867    -0.491    23.582     6.511
   940   7 N      2.696    -0.184    24.980     7.423
   941   1 H      0.860     0.214     1.039     1.597
   942   6 C      3.790     0.008    20.451     6.440
   943   1 H      0.924     0.108     1.711     2.045
   944   6 C      3.796    -0.091    22.233     6.714
   945   1 H      0.925     0.069     2.094     2.263
   946   1 H      0.925     0.068     2.109     2.271
   947   6 C      3.794    -0.093    22.278     6.721
   948   1 H      0.925     0.078     2.003     2.213
   949   1 H      0.925     0.070     2.088     2.259
   950   6 C      3.791    -0.100    22.427     6.744
   951   1 H      0.924     0.076     2.022     2.223
   952   1 H      0.924     0.072     2.061     2.245
   953   6 C      3.727    -0.055    21.663     6.645
   954   1 H      0.925     0.137     1.482     1.904
   955   1 H      0.925     0.125     1.570     1.959
   956   7 N      3.482    -0.151    24.260     7.315
   957   1 H      0.860     0.298     0.718     1.327
   958   1 H      0.860     0.298     0.720     1.329
   959   1 H      0.860     0.301     0.710     1.320
   960   6 C      2.750     0.282    22.228     7.720
   961   8 O      0.865    -0.505    23.900     6.555
   962   7 N      2.696    -0.177    24.822     7.400
   963   1 H      0.860     0.207     1.071     1.621
   964   6 C      3.798     0.028    20.107     6.385
   965   1 H      0.925     0.064     2.151     2.294
   966   6 C      3.807    -0.098    22.366     6.732
   967   1 H      0.924     0.037     2.488     2.466
   968   1 H      0.924     0.056     2.243     2.342
   969   6 C      2.692     0.361    20.875     7.477
   970   8 O      0.856    -0.605    26.243     6.868
   971   8 O      0.856    -0.624    26.712     6.929
   972   6 C      2.756     0.280    22.264     7.727
   973   8 O      0.861    -0.492    23.611     6.515
   974   7 N      2.691    -0.179    24.877     7.408
   975   1 H      0.860     0.207     1.069     1.620
   976   6 C      3.790     0.031    20.058     6.378
   977   1 H      0.924     0.063     2.163     2.300
   978   6 C      3.805    -0.062    21.688     6.630
   979   1 H      0.925     0.052     2.295     2.369
   980   1 H      0.924     0.072     2.061     2.245
   981   6 C      3.799    -0.099    22.384     6.736
   982   1 H      0.924     0.058     2.223     2.332
   983   1 H      0.924     0.042     2.423     2.434
   984   6 C      2.694     0.368    20.767     7.458
   985   8 O      0.857    -0.585    25.752     6.804
   986   8 O      0.857    -0.590    25.875     6.820
   987   6 C      2.747     0.263    22.563     7.778
   988   8 O      0.858    -0.500    23.790     6.539
   989   7 N      2.675    -0.182    24.934     7.416
   990   1 H      0.860     0.231     0.960     1.535
   991   6 C      3.787     0.015    20.340     6.424
   992   1 H      0.925     0.098     1.804     2.100
   993   6 C      3.748    -0.136    23.181     6.867
   994   1 H      0.924     0.100     1.781     2.087
   995   1 H      0.924     0.064     2.155     2.296
   996   1 H      0.924     0.078     2.004     2.214
   997   6 C      2.756     0.274    22.372     7.745
   998   8 O      0.859    -0.517    24.165     6.591
   999   7 N      2.711    -0.162    24.500     7.351
  1000   1 H      0.860     0.218     1.018     1.581
  1001   6 C      3.796     0.043    19.858     6.345
  1002   1 H      0.925     0.068     2.102     2.267
  1003   6 C      3.821    -0.068    21.791     6.643
  1004   1 H      0.924     0.048     2.344     2.394
  1005   1 H      0.924     0.068     2.103     2.268
  1006   6 C      3.794    -0.094    22.294     6.724
  1007   1 H      0.925     0.031     2.576     2.510
  1008   1 H      0.925     0.051     2.304     2.374
  1009   6 C      2.687     0.349    21.074     7.513
  1010   8 O      0.856    -0.592    25.925     6.826
  1011   8 O      0.855    -0.643    27.213     6.994
  1012   6 C      2.747     0.264    22.537     7.773
  1013   8 O      0.857    -0.488    23.532     6.504
  1014   7 N      2.684    -0.186    25.036     7.431
  1015   1 H      0.860     0.213     1.042     1.599
  1016   6 C      3.807     0.022    20.195     6.397
  1017   1 H      0.924     0.087     1.910     2.161
  1018   6 C      3.822    -0.078    21.963     6.669
  1019   1 H      0.925     0.071     2.071     2.250
  1020   1 H      0.925     0.068     2.113     2.273
  1021   6 C      3.812    -0.092    22.238     6.712
  1022   1 H      0.925     0.064     2.149     2.292
  1023   1 H      0.925     0.077     2.013     2.219
  1024   6 C      3.806    -0.087    22.155     6.701
  1025   1 H      0.925     0.082     1.961     2.190
  1026   1 H      0.925     0.060     2.200     2.320
  1027   6 C      3.731    -0.046    21.496     6.618
  1028   1 H      0.925     0.119     1.622     1.991
  1029   1 H      0.924     0.114     1.659     2.014
  1030   7 N      3.487    -0.155    24.345     7.328
  1031   1 H      0.860     0.287     0.753     1.359
  1032   1 H      0.860     0.268     0.816     1.415
  1033   1 H      0.860     0.288     0.751     1.357
  1034   6 C      2.761     0.265    22.526     7.772
  1035   8 O      0.857    -0.516    24.146     6.588
  1036   7 N      2.696    -0.189    25.105     7.442
  1037   1 H      0.860     0.240     0.924     1.506
  1038   6 C      3.801     0.023    20.193     6.398
  1039   1 H      0.924     0.070     2.087     2.259
  1040   6 C      3.815    -0.076    21.940     6.667
  1041   1 H      0.925     0.049     2.329     2.387
  1042   1 H      0.924     0.057     2.237     2.339
  1043   6 C      3.854    -0.016    20.830     6.491
  1044   1 H      0.924     0.049     2.332     2.388
  1045   6 C      3.763    -0.128    22.993     6.835
  1046   1 H      0.925     0.062     2.170     2.304
  1047   1 H      0.925     0.054     2.275     2.359
  1048   1 H      0.925     0.045     2.385     2.415
  1049   6 C      3.760    -0.122    22.894     6.821
  1050   1 H      0.925     0.030     2.582     2.513
  1051   1 H      0.924     0.037     2.484     2.465
  1052   1 H      0.924     0.060     2.196     2.318
  1053   6 C      2.763     0.276    22.330     7.739
  1054   8 O      0.860    -0.522    24.268     6.605
  1055   7 N      2.694    -0.191    25.142     7.447
  1056   1 H      0.860     0.227     0.976     1.548
  1057   6 C      3.810     0.050    19.736     6.324
  1058   1 H      0.925     0.066     2.129     2.282
  1059   6 C      3.820    -0.076    21.939     6.666
  1060   1 H      0.925     0.063     2.161     2.299
  1061   1 H      0.924     0.075     2.035     2.231
  1062   6 C      2.960     0.022    27.517     8.604
  1063   6 C      2.916    -0.031    28.767     8.795
  1064   1 H      0.926     0.019     2.742     2.590
  1065   6 C      2.918    -0.035    28.878     8.812
  1066   1 H      0.926     0.036     2.501     2.473
  1067   6 C      2.900    -0.042    29.042     8.836
  1068   1 H      0.926     0.045     2.388     2.416
  1069   6 C      2.913    -0.045    29.129     8.850
  1070   1 H      0.926     0.065     2.146     2.291
  1071   6 C      2.923    -0.046    29.132     8.851
  1072   1 H      0.926     0.049     2.329     2.386
  1073   6 C      2.760     0.275    22.353     7.743
  1074   8 O      0.859    -0.527    24.400     6.623
  1075   7 N      2.695    -0.197    25.285     7.468
  1076   1 H      0.860     0.224     0.992     1.560
  1077   6 C      3.797     0.043    19.862     6.346
  1078   1 H      0.924     0.087     1.905     2.158
  1079   6 C      3.820    -0.112    22.631     6.770
  1080   1 H      0.925     0.072     2.059     2.244
  1081   1 H      0.924     0.100     1.786     2.090
  1082   6 C      2.746     0.293    22.031     7.685
  1083   8 O      0.878    -0.516    24.140     6.588
  1084   7 N      2.660    -0.280    27.240     7.751
  1085   1 H      0.860     0.260     0.845     1.440
  1086   1 H      0.860     0.233     0.952     1.528
  1087   6 C      2.752     0.289    22.101     7.698
  1088   8 O      0.862    -0.446    22.629     6.378
  1089   7 N      2.688    -0.222    25.858     7.552
  1090   1 H      0.860     0.218     1.021     1.583
  1091   6 C      3.789     0.038    19.949     6.361
  1092   1 H      0.924     0.067     2.118     2.276
  1093   6 C      3.810    -0.059    21.620     6.618
  1094   1 H      0.925     0.050     2.319     2.382
  1095   1 H      0.925     0.065     2.144     2.290
  1096   6 C      3.799    -0.105    22.507     6.755
  1097   1 H      0.924     0.066     2.136     2.285
  1098   1 H      0.925     0.075     2.032     2.229
  1099   6 C      2.738     0.294    22.014     7.682
  1100   8 O      0.868    -0.489    23.548     6.506
  1101   7 N      2.645    -0.292    27.531     7.793
  1102   1 H      0.860     0.242     0.914     1.498
  1103   1 H      0.860     0.232     0.957     1.533
  1104   6 C      2.746     0.271    22.424     7.754
  1105   8 O      0.857    -0.491    23.588     6.512
  1106   7 N      2.676    -0.187    25.046     7.433
  1107   1 H      0.860     0.198     1.117     1.656
  1108   6 C      3.774     0.036    19.998     6.372
  1109   1 H      0.925     0.085     1.924     2.169
  1110   6 C      3.801    -0.084    22.095     6.692
  1111   1 H      0.925     0.036     2.502     2.474
  1112   1 H      0.925     0.029     2.602     2.523
  1113   6 C      2.687     0.380    20.570     7.422
  1114   8 O      0.860    -0.605    26.243     6.868
  1115   8 O      0.859    -0.620    26.620     6.917
  1116   6 C      2.735     0.251    22.775     7.813
  1117   8 O      0.857    -0.473    23.196     6.457
  1118   7 N      2.678    -0.202    25.395     7.484
  1119   1 H      0.860     0.186     1.179     1.701
  1120   6 C      3.778     0.022    20.234     6.409
  1121   1 H      0.924     0.088     1.902     2.157
  1122   6 C      3.847    -0.014    20.790     6.486
  1123   1 H      0.924     0.032     2.556     2.500
  1124   6 C      3.751    -0.129    23.040     6.845
  1125   1 H      0.924     0.058     2.228     2.334
  1126   1 H      0.925     0.072     2.065     2.247
  1127   1 H      0.925     0.048     2.347     2.396
  1128   6 C      3.755    -0.118    22.811     6.810
  1129   1 H      0.924     0.055     2.256     2.349
  1130   1 H      0.925     0.066     2.128     2.281
  1131   1 H      0.925     0.038     2.482     2.464
  1132   6 C      2.751     0.279    22.270     7.727
  1133   8 O      0.863    -0.454    22.793     6.401
  1134   7 N      2.685    -0.207    25.506     7.501
  1135   1 H      0.860     0.202     1.095     1.639
  1136   6 C      3.792     0.041    19.888     6.351
  1137   1 H      0.924     0.075     2.031     2.229
  1138   6 C      3.808    -0.091    22.223     6.711
  1139   1 H      0.924     0.023     2.684     2.562
  1140   1 H      0.925     0.043     2.412     2.429
  1141   6 C      2.689     0.365    20.812     7.466
  1142   8 O      0.857    -0.626    26.758     6.935
  1143   8 O      0.857    -0.611    26.401     6.889
  1144   6 C      2.744     0.268    22.470     7.762
  1145   8 O      0.859    -0.490    23.565     6.508
  1146   7 N      2.681    -0.171    24.695     7.380
  1147   1 H      0.860     0.196     1.129     1.665
  1148   6 C      3.780     0.011    20.413     6.437
  1149   1 H      0.925     0.095     1.828     2.114
  1150   6 C      3.750    -0.144    23.332     6.889
  1151   1 H      0.924     0.060     2.198     2.318
  1152   1 H      0.925     0.079     1.984     2.203
  1153   1 H      0.925     0.095     1.832     2.116
  1154   6 C      2.750     0.260    22.614     7.787
  1155   8 O      0.856    -0.493    23.642     6.519
  1156   7 N      2.685    -0.165    24.578     7.363
  1157   1 H      0.860     0.216     1.028     1.588
  1158   6 C      3.800     0.015    20.333     6.420
  1159   1 H      0.925     0.096     1.820     2.110
  1160   6 C      3.753    -0.134    23.128     6.858
  1161   1 H      0.925     0.060     2.197     2.318
  1162   1 H      0.925     0.060     2.203     2.321
[...]
  2290  O   1.952        C 2289 1.616    N 2291 0.197
  2291  N   3.462        C 2289 1.310    C 2293 0.955    H 2292 0.920    O 2290 0.197
  2292  H   0.956        N 2291 0.920
  2293  C   3.956        C 2295 0.984    N 2291 0.955    C 2313 0.951    H 2294 0.950
  2294  H   0.991        C 2293 0.950
  2295  C   3.984        C 2298 0.993    C 2293 0.984    H 2297 0.969    H 2296 0.962
  2296  H   0.993        C 2295 0.962
  2297  H   0.996        C 2295 0.969
  2298  C   3.986        C 2301 0.999    C 2295 0.993    H 2299 0.974    H 2300 0.970
  2299  H   0.995        C 2298 0.974
  2300  H   0.994        C 2298 0.970
  2301  C   3.959        C 2298 0.999    N 2304 0.988    H 2303 0.965    H 2302 0.957
  2302  H   0.998        C 2301 0.957
  2303  H   0.991        C 2301 0.965
  2304  N   3.478        C 2306 1.354    C 2301 0.988    H 2305 0.848    N 2310 0.106    N 2307 0.100
  2305  H   0.933        N 2304 0.848
  2306  C   3.978        N 2304 1.354    N 2310 1.307    N 2307 1.283
  2307  N   3.367        C 2306 1.283    H 2309 0.924    H 2308 0.898    N 2304 0.100
  2308  H   0.945        N 2307 0.898
  2309  H   0.952        N 2307 0.924
  2310  N   3.387        C 2306 1.307    H 2311 0.935    H 2312 0.893    N 2304 0.106
  2311  H   0.956        N 2310 0.935
  2312  H   0.932        N 2310 0.893
  2313  C   3.955        O 2314 1.614    N 2315 1.307    C 2293 0.951
  2314  O   1.939        C 2313 1.614    N 2315 0.198
  2315  N   3.473        C 2313 1.307    C 2317 0.982    H 2316 0.886    O 2314 0.198
  2316  H   0.947        N 2315 0.886
  2317  C   3.960        C 2319 1.005    N 2315 0.982    H 2318 0.938    C 2323 0.931
  2318  H   0.992        C 2317 0.938
  2319  C   3.984        C 2317 1.005    H 2320 0.975    H 2321 0.974    H 2322 0.967
  2320  H   0.995        C 2319 0.975
  2321  H   0.994        C 2319 0.974
  2322  H   0.996        C 2319 0.967
  2323  C   3.950        O 2324 1.607    N 2325 1.329    C 2317 0.931
  2324  O   1.937        C 2323 1.607    N 2325 0.196
  2325  N   3.477        C 2323 1.329    C 2327 0.965    H 2326 0.896    O 2324 0.196
  2326  H   0.945        N 2325 0.896
  2327  C   3.957        C 2329 0.976    N 2325 0.965    H 2328 0.947    C 2345 0.941
  2328  H   0.991        C 2327 0.947
  2329  C   3.978        C 2332 0.995    C 2327 0.976    H 2330 0.973    H 2331 0.970
  2330  H   0.997        C 2329 0.973
  2331  H   0.996        C 2329 0.970
  2332  C   3.979        C 2335 0.996    C 2329 0.995    H 2334 0.972    H 2333 0.964
  2333  H   0.993        C 2332 0.964
  2334  H   0.994        C 2332 0.972
  2335  C   3.983        C 2338 1.008    C 2332 0.996    H 2336 0.973    H 2337 0.971
  2336  H   0.993        C 2335 0.973
  2337  H   0.994        C 2335 0.971
  2338  C   3.912        C 2335 1.008    N 2341 0.965    H 2339 0.959    H 2340 0.951
  2339  H   0.987        C 2338 0.959
  2340  H   0.984        C 2338 0.951
  2341  N   3.662        C 2338 0.965    H 2342 0.895    H 2343 0.890    H 2344 0.890
  2342  H   0.911        N 2341 0.895
  2343  H   0.908        N 2341 0.890
  2344  H   0.910        N 2341 0.890
  2345  C   3.942        O 2346 1.636    N 2347 1.283    C 2327 0.941
  2346  O   1.974        C 2345 1.636    N 2347 0.198
  2347  N   3.454        C 2345 1.283    C 2349 0.982    H 2348 0.899    O 2346 0.198
  2348  H   0.947        N 2347 0.899
  2349  C   3.968        N 2347 0.982    C 2369 0.964    C 2351 0.960    H 2350 0.952
  2350  H   0.994        C 2349 0.952
  2351  C   3.980        C 2354 1.001    H 2353 0.970    H 2352 0.970    C 2349 0.960
  2352  H   0.995        C 2351 0.970
  2353  H   0.994        C 2351 0.970
  2354  C   3.984        C 2351 1.001    C 2357 0.996    H 2356 0.980    H 2355 0.965
  2355  H   0.990        C 2354 0.965
  2356  H   0.995        C 2354 0.980
  2357  C   3.937        C 2354 0.996    H 2358 0.966    H 2359 0.963    N 2360 0.954
  2358  H   0.990        C 2357 0.966
  2359  H   0.991        C 2357 0.963
  2360  N   3.460        C 2362 1.331    C 2357 0.954    H 2361 0.907    N 2366 0.102
  2361  H   0.947        N 2360 0.907
  2362  C   3.978        N 2360 1.331    N 2366 1.314    N 2363 1.311
  2363  N   3.386        C 2362 1.311    H 2365 0.916    H 2364 0.915
  2364  H   0.940        N 2363 0.915
  2365  H   0.944        N 2363 0.916
  2366  N   3.392        C 2362 1.314    H 2367 0.918    H 2368 0.893    N 2360 0.102
  2367  H   0.946        N 2366 0.918
  2368  H   0.945        N 2366 0.893
  2369  C   3.950        O 2370 1.593    N 2371 1.300    C 2349 0.964
  2370  O   1.943        C 2369 1.593    N 2371 0.194
  2371  N   3.484        C 2369 1.300    C 2373 0.993    H 2372 0.907    O 2370 0.194
  2372  H   0.950        N 2371 0.907
  2373  C   3.960        N 2371 0.993    C 2375 0.971    H 2374 0.946    C 2385 0.924
  2374  H   0.994        C 2373 0.946
  2375  C   3.986        C 2381 1.000    C 2377 0.998    C 2373 0.971    H 2376 0.968
  2376  H   0.997        C 2375 0.968
  2377  C   3.986        C 2375 0.998    H 2378 0.981    H 2379 0.981    H 2380 0.981
  2378  H   0.996        C 2377 0.981
  2379  H   0.998        C 2377 0.981
  2380  H   0.998        C 2377 0.981
  2381  C   3.990        C 2375 1.000    H 2384 0.984    H 2383 0.982    H 2382 0.980
  2382  H   0.997        C 2381 0.980
  2383  H   0.998        C 2381 0.982
  2384  H   0.996        C 2381 0.984
  2385  C   3.949        O 2386 1.605    N 2387 1.331    C 2373 0.924
  2386  O   1.930        C 2385 1.605    N 2387 0.194
  2387  N   3.475        C 2385 1.331    C 2389 0.961    H 2388 0.899    O 2386 0.194
  2388  H   0.953        N 2387 0.899
  2389  C   3.955        C 2391 0.968    N 2387 0.961    H 2390 0.945    C 2404 0.939
  2390  H   0.993        C 2389 0.945
  2391  C   3.980        C 2393 1.000    C 2397 0.991    C 2389 0.968    H 2392 0.953
  2392  H   0.995        C 2391 0.953
  2393  C   3.983        C 2391 1.000    H 2394 0.986    H 2396 0.981    H 2395 0.975
  2394  H   0.998        C 2393 0.986
  2395  H   0.994        C 2393 0.975
  2396  H   0.998        C 2393 0.981
  2397  C   3.986        C 2400 1.010    C 2391 0.991    H 2398 0.977    H 2399 0.970
  2398  H   0.999        C 2397 0.977
  2399  H   0.998        C 2397 0.970
  2400  C   3.991        C 2397 1.010    H 2402 0.985    H 2401 0.985    H 2403 0.983
  2401  H   0.998        C 2400 0.985
  2402  H   0.998        C 2400 0.985
  2403  H   0.996        C 2400 0.983
  2404  C   3.948        O 2405 1.570    N 2406 1.348    C 2389 0.939
  2405  O   1.907        C 2404 1.570    N 2406 0.189
  2406  N   3.512        C 2404 1.348    C 2408 0.993    H 2407 0.895    O 2405 0.189
  2407  H   0.948        N 2406 0.895
  2408  C   3.968        N 2406 0.993    C 2410 0.963    C 2418 0.937    H 2409 0.936
  2409  H   0.988        C 2408 0.936
  2410  C   3.963        C 2412 1.005    O 2416 0.991    C 2408 0.963    H 2411 0.956
  2411  H   0.998        C 2410 0.956
  2412  C   3.989        C 2410 1.005    H 2413 0.981    H 2414 0.980    H 2415 0.977
  2413  H   0.996        C 2412 0.981
  2414  H   0.999        C 2412 0.980
  2415  H   0.996        C 2412 0.977
  2416  O   1.926        C 2410 0.991    H 2417 0.864
  2417  H   0.883        O 2416 0.864
  2418  C   3.946        O 2419 1.604    N 2420 1.303    C 2408 0.937
  2419  O   2.012        C 2418 1.604    N 2420 0.197
  2420  N   3.460        C 2418 1.303    C 2422 0.953    H 2421 0.910    O 2419 0.197
  2421  H   0.955        N 2420 0.910
  2422  C   3.945        N 2420 0.953    C 2424 0.953    C 2432 0.943    H 2423 0.941
  2423  H   0.989        C 2422 0.941
  2424  C   3.952        C 2426 1.005    O 2430 0.983    H 2425 0.961    C 2422 0.953
  2425  H   0.998        C 2424 0.961
  2426  C   3.986        C 2424 1.005    H 2428 0.979    H 2429 0.977    H 2427 0.976
  2427  H   0.995        C 2426 0.976
  2428  H   0.995        C 2426 0.979
  2429  H   0.997        C 2426 0.977
  2430  O   1.942        C 2424 0.983    H 2431 0.869
  2431  H   0.903        O 2430 0.869
  2432  C   3.961        O 2433 1.623    N 2434 1.329    C 2422 0.943
  2433  O   1.958        C 2432 1.623    N 2434 0.206
  2434  N   3.471        C 2432 1.329    C 2436 0.928    H 2435 0.918    O 2433 0.206
  2435  H   0.959        N 2434 0.918
  2436  C   3.941        C 2438 0.970    C 2452 0.947    H 2437 0.943    N 2434 0.928
  2437  H   0.987        C 2436 0.943
  2438  C   3.980        C 2441 1.009    C 2436 0.970    H 2440 0.963    H 2439 0.954
  2439  H   0.994        C 2438 0.954
  2440  H   0.996        C 2438 0.963
  2441  C   3.985        C 2442 1.433    C 2450 1.403    C 2438 1.009
  2442  C   3.989        C 2441 1.433    C 2444 1.427    H 2443 0.964    C 2448 0.105
  2443  H   0.999        C 2442 0.964
  2444  C   3.989        C 2442 1.427    C 2446 1.427    H 2445 0.971    C 2450 0.130
  2445  H   0.999        C 2444 0.971
  2446  C   3.990        C 2448 1.465    C 2444 1.427    H 2447 0.964
  2447  H   0.997        C 2446 0.964
  2448  C   3.990        C 2446 1.465    C 2450 1.424    H 2449 0.963    C 2442 0.105
  2449  H   0.996        C 2448 0.963
  2450  C   3.985        C 2448 1.424    C 2441 1.403    H 2451 0.963    C 2444 0.130
  2451  H   0.996        C 2450 0.963
  2452  C   3.955        O 2453 1.622    N 2454 1.318    C 2436 0.947
  2453  O   1.981        C 2452 1.622    N 2454 0.199
  2454  N   3.466        C 2452 1.318    C 2456 0.947    H 2455 0.907    O 2453 0.199
  2455  H   0.955        N 2454 0.907
  2456  C   3.953        C 2458 0.994    N 2454 0.947    H 2457 0.942    C 2476 0.930
  2457  H   0.990        C 2456 0.942
  2458  C   3.984        C 2461 1.001    C 2456 0.994    H 2459 0.971    H 2460 0.960
  2459  H   0.997        C 2458 0.971
  2460  H   0.993        C 2458 0.960
  2461  C   3.987        C 2458 1.001    C 2464 1.000    H 2463 0.972    H 2462 0.970
  2462  H   0.997        C 2461 0.970
  2463  H   0.995        C 2461 0.972
  2464  C   3.956        C 2461 1.000    N 2467 0.982    H 2466 0.962    H 2465 0.960
  2465  H   0.993        C 2464 0.960
  2466  H   0.992        C 2464 0.962
  2467  N   3.472        C 2469 1.338    C 2464 0.982    H 2468 0.880    N 2473 0.105
  2468  H   0.942        N 2467 0.880
  2469  C   3.976        N 2467 1.338    N 2473 1.317    N 2470 1.291
  2470  N   3.356        C 2469 1.291    H 2471 0.914    H 2472 0.911
  2471  H   0.936        N 2470 0.914
  2472  H   0.941        N 2470 0.911
  2473  N   3.397        C 2469 1.317    H 2474 0.919    H 2475 0.899    N 2467 0.105
  2474  H   0.941        N 2473 0.919
  2475  H   0.943        N 2473 0.899
  2476  C   3.951        O 2477 1.650    N 2478 1.298    C 2456 0.930
  2477  O   1.999        C 2476 1.650    N 2478 0.202
  2478  N   3.459        C 2476 1.298    C 2480 0.975    H 2479 0.886    O 2477 0.202
  2479  H   0.947        N 2478 0.886
  2480  C   3.967        N 2478 0.975    H 2481 0.954    C 2490 0.945    C 2482 0.939
  2481  H   0.992        C 2480 0.954
  2482  C   3.957        O 2488 1.008    C 2484 0.999    H 2483 0.961    C 2480 0.939
  2483  H   0.997        C 2482 0.961
  2484  C   3.990        C 2482 0.999    H 2486 0.983    H 2485 0.981    H 2487 0.977
  2485  H   0.996        C 2484 0.981
  2486  H   0.998        C 2484 0.983
  2487  H   0.996        C 2484 0.977
  2488  O   1.961        C 2482 1.008    H 2489 0.820
  2489  H   0.891        O 2488 0.820
  2490  C   3.958        O 2491 1.620    N 2492 1.319    C 2480 0.945
  2491  O   1.936        C 2490 1.620    N 2492 0.196
  2492  N   3.487        C 2490 1.319    C 2494 0.989    H 2493 0.910    O 2491 0.196
  2493  H   0.952        N 2492 0.910
  2494  C   3.952        N 2492 0.989    H 2495 0.950    H 2496 0.950    C 2497 0.941
  2495  H   0.986        C 2494 0.950
  2496  H   0.986        C 2494 0.950
  2497  C   3.942        O 2498 1.633    N 2499 1.301    C 2494 0.941
  2498  O   1.943        C 2497 1.633    N 2499 0.189
  2499  N   3.479        C 2497 1.301    C 2501 0.998    H 2500 0.912    O 2498 0.189
  2500  H   0.956        N 2499 0.912
  2501  C   3.973        N 2499 0.998    C 2511 0.958    C 2503 0.950    H 2502 0.930
  2502  H   0.990        C 2501 0.930
  2503  C   3.953        C 2505 1.015    O 2509 0.964    H 2504 0.958    C 2501 0.950
  2504  H   0.998        C 2503 0.958
  2505  C   3.990        C 2503 1.015    H 2506 0.980    H 2507 0.979    H 2508 0.977
  2506  H   0.997        C 2505 0.980
  2507  H   0.995        C 2505 0.979
  2508  H   0.995        C 2505 0.977
  2509  O   1.910        C 2503 0.964    H 2510 0.869
  2510  H   0.889        O 2509 0.869
  2511  C   3.954        O 2512 1.610    N 2513 1.301    C 2501 0.958
  2512  O   1.926        C 2511 1.610    N 2513 0.195
  2513  N   3.466        C 2511 1.301    C 2515 0.961    H 2514 0.923    O 2512 0.195
  2514  H   0.957        N 2513 0.923
  2515  C   3.949        C 2517 0.986    N 2513 0.961    H 2516 0.931    C 2535 0.913
  2516  H   0.990        C 2515 0.931
  2517  C   3.981        C 2520 1.011    C 2515 0.986    H 2519 0.967    H 2518 0.951
  2518  H   0.993        C 2517 0.951
  2519  H   0.996        C 2517 0.967
  2520  C   3.964        C 2521 1.570    C 2534 1.190    C 2517 1.011
  2521  C   3.958        C 2520 1.570    N 2523 1.239    H 2522 0.961
  2522  H   0.994        C 2521 0.961
  2523  N   3.561        C 2521 1.239    C 2525 1.168    H 2524 0.932
  2524  H   0.960        N 2523 0.932
  2525  C   3.958        C 2526 1.330    C 2534 1.253    N 2523 1.168
  2526  C   3.981        C 2528 1.483    C 2525 1.330    H 2527 0.968    C 2532 0.115
  2527  H   0.997        C 2526 0.968
  2528  C   3.987        C 2526 1.483    C 2530 1.368    H 2529 0.972
  2529  H   0.998        C 2528 0.972
  2530  C   3.988        C 2532 1.497    C 2528 1.368    H 2531 0.972
  2531  H   0.998        C 2530 0.972
  2532  C   3.991        C 2530 1.497    C 2534 1.333    H 2533 0.968    C 2526 0.115
  2533  H   0.999        C 2532 0.968
  2534  C   3.982        C 2532 1.333    C 2525 1.253    C 2520 1.190
  2535  C   3.926        O 2536 1.668    N 2537 1.257    C 2515 0.913
  2536  O   2.007        C 2535 1.668    N 2537 0.192
  2537  N   3.416        C 2535 1.257    C 2539 0.957    H 2538 0.916    O 2536 0.192
  2538  H   0.958        N 2537 0.916
  2539  C   3.960        C 2541 0.972    H 2540 0.957    N 2537 0.957    C 2547 0.945
  2540  H   0.997        C 2539 0.957
  2541  C   3.979        H 2542 0.974    C 2539 0.972    H 2543 0.965    C 2544 0.916
  2542  H   0.998        C 2541 0.974
  2543  H   0.996        C 2541 0.965
  2544  C   3.938        O 2545 1.532    O 2546 1.471    C 2541 0.916
  2545  O   1.829        C 2544 1.532    O 2546 0.220
  2546  O   1.758        C 2544 1.471    O 2545 0.220
  2547  C   3.942        O 2548 1.633    N 2549 1.285    C 2539 0.945
  2548  O   1.944        C 2547 1.633    N 2549 0.191
  2549  N   3.456        C 2547 1.285    C 2551 0.987    H 2550 0.917    O 2548 0.191
  2550  H   0.957        N 2549 0.917
  2551  C   3.960        C 2553 0.988    N 2549 0.987    H 2552 0.948    C 2557 0.923
  2552  H   0.996        C 2551 0.948
  2553  C   3.981        C 2551 0.988    H 2556 0.982    H 2555 0.979    H 2554 0.976
  2554  H   0.994        C 2553 0.976
  2555  H   0.993        C 2553 0.979
  2556  H   0.995        C 2553 0.982
  2557  C   3.948        O 2558 1.674    N 2559 1.277    C 2551 0.923
  2558  O   1.980        C 2557 1.674    N 2559 0.195
  2559  N   3.434        C 2557 1.277    C 2561 0.952    H 2560 0.921    O 2558 0.195
  2560  H   0.964        N 2559 0.921
  2561  C   3.953        H 2562 0.958    C 2578 0.957    C 2563 0.957    N 2559 0.952
  2562  H   0.992        C 2561 0.958
  2563  C   3.984        C 2566 1.006    H 2564 0.969    H 2565 0.962    C 2561 0.957
  2564  H   0.994        C 2563 0.969
  2565  H   0.995        C 2563 0.962
  2566  C   3.980        C 2567 1.417    C 2576 1.391    C 2563 1.006
  2567  C   3.990        C 2569 1.451    C 2566 1.417    H 2568 0.966    C 2574 0.100
  2568  H   0.998        C 2567 0.966
  2569  C   3.983        C 2567 1.451    C 2571 1.354    H 2570 0.962    C 2576 0.108
  2570  H   0.997        C 2569 0.962
  2571  C   3.944        C 2574 1.354    C 2569 1.354    O 2572 1.102
  2572  O   2.105        C 2571 1.102    H 2573 0.791
  2573  H   0.882        O 2572 0.791
  2574  C   3.984        C 2576 1.454    C 2571 1.354    H 2575 0.962    C 2567 0.100
  2575  H   0.997        C 2574 0.962
  2576  C   3.985        C 2574 1.454    C 2566 1.391    H 2577 0.965    C 2569 0.108
  2577  H   0.998        C 2576 0.965
  2578  C   3.948        O 2579 1.594    N 2580 1.316    C 2561 0.957
  2579  O   1.903        C 2578 1.594    N 2580 0.197
  2580  N   3.463        C 2578 1.316    C 2582 0.937    H 2581 0.926    O 2579 0.197
  2581  H   0.963        N 2580 0.926
  2582  C   3.943        C 2584 0.991    H 2583 0.964    N 2580 0.937    C 2600 0.916
  2583  H   0.997        C 2582 0.964
  2584  C   3.988        C 2587 1.007    C 2582 0.991    H 2586 0.973    H 2585 0.965
  2585  H   0.997        C 2584 0.965
  2586  H   0.998        C 2584 0.973
  2587  C   3.990        C 2584 1.007    C 2590 1.001    H 2589 0.975    H 2588 0.973
  2588  H   0.997        C 2587 0.973
  2589  H   0.998        C 2587 0.975
  2590  C   3.979        C 2593 1.002    C 2587 1.001    H 2591 0.973    H 2592 0.960
  2591  H   0.993        C 2590 0.973
  2592  H   0.989        C 2590 0.960
  2593  C   3.921        C 2590 1.002    N 2596 0.970    H 2594 0.964    H 2595 0.963
  2594  H   0.989        C 2593 0.964
  2595  H   0.990        C 2593 0.963
  2596  N   3.651        C 2593 0.970    H 2598 0.889    H 2599 0.887    H 2597 0.886
  2597  H   0.907        N 2596 0.886
  2598  H   0.912        N 2596 0.889
  2599  H   0.904        N 2596 0.887
  2600  C   3.932        O 2601 1.522    O 2602 1.460    C 2582 0.916
  2601  O   1.824        C 2600 1.522    O 2602 0.224
  2602  O   1.755        C 2600 1.460    O 2601 0.224
  2603  C   3.985        C 2605 1.415    C 2613 1.402    H 2604 0.961
  2604  H   0.999        C 2603 0.961
  2605  C   3.986        C 2607 1.427    C 2603 1.415    H 2606 0.969    C 2611 0.126
  2606  H   0.998        C 2605 0.969
  2607  C   3.988        C 2609 1.438    C 2605 1.427    H 2608 0.964
  2608  H   0.999        C 2607 0.964
  2609  C   3.991        C 2611 1.462    C 2607 1.438    H 2610 0.965
  2610  H   0.999        C 2609 0.965
  2611  C   3.985        C 2609 1.462    C 2613 1.336    H 2612 0.958    C 2605 0.126
  2612  H   0.996        C 2611 0.958
  2613  C   3.942        C 2603 1.402    C 2611 1.336    O 2614 1.089
  2614  O   2.116        C 2613 1.089    H 2615 0.843
  2615  H   0.887        O 2614 0.843

molecular dipole:
                 x           y           z       tot (Debye)
 q only:      578.787     642.662     700.659
   full:      579.746     644.709     707.128    2843.788
molecular quadrupole (traceless):
                xx          xy          yy          xz          yz          zz
 q only:   -14569.392   66187.225     689.030   74343.148   81107.036   13880.361
  q+dip:   -15207.468   66053.326     299.844   74834.598   81824.252   14907.625
   full:   -15196.296   66049.600     281.714   74837.522   81814.146   14914.582


           -------------------------------------------------
          | TOTAL ENERGY            -4105.223879510086 Eh   |
          | GRADIENT NORM               1.340127199182 Eh/α |
          | HOMO-LUMO GAP               1.569733733313 eV   |
           -------------------------------------------------

------------------------------------------------------------------------
 * finished run on 2020/09/07 at 11:14:14.223     
------------------------------------------------------------------------
 total:
 * wall-time:     0 d,  0 h,  7 min,  3.376 sec
 *  cpu-time:     0 d,  5 h, 13 min,  4.253 sec
 * ratio c/w:    44.368 speedup
 SCF:
 * wall-time:     0 d,  0 h,  6 min, 35.702 sec
 *  cpu-time:     0 d,  5 h,  4 min, 42.910 sec
 * ratio c/w:    46.204 speedup

