      -----------------------------------------------------------      
     |                   =====================                   |     
     |                           x T B                           |     
     |                   =====================                   |     
     |                         S. Grimme                         |     
     |          Mulliken Center for Theoretical Chemistry        |     
     |                    University of Bonn                     |     
      -----------------------------------------------------------      

   * xtb version 6.2.3 (d7bf61a) compiled by 'conda@06d140edd85e' on 2020-05-12

   xtb is free software: you can redistribute it and/or modify it under
   the terms of the GNU Lesser General Public License as published by
   the Free Software Foundation, either version 3 of the License, or
   (at your option) any later version.
   
   xtb is distributed in the hope that it will be useful,
   but WITHOUT ANY WARRANTY; without even the implied warranty of
   MERCHANTABILITY or FITNESS FOR A PARTICULAR PURPOSE.  See the
   GNU Lesser General Public License for more details.
   
   Cite this work as:
   * S. Grimme, C. Bannwarth, P. Shushkov, J. Chem. Theory Comput., 2017,
     13, 1989-2009. DOI: 10.1021/acs.jctc.7b00118
   * C. Bannwarth, S. Ehlert and S. Grimme., J. Chem. Theory Comput., 2019,
     15, 1652-1671. DOI: 10.1021/acs.jctc.8b01176
   * P. Pracht, E. Caldeweyher, S. Ehlert, S. Grimme, ChemRxiv, 2019, preprint.
     DOI: 10.26434/chemrxiv.8326202.v1
   
   for DFT-D4:
   * E. Caldeweyher, C. Bannwarth and S. Grimme, J. Chem. Phys., 2017,
     147, 034112. DOI: 10.1063/1.4993215
   * E. Caldeweyher, S. Ehlert, A. Hansen, H. Neugebauer, S. Spicher,
     C. Bannwarth and S. Grimme, J. Chem. Phys., 2019, 150, 154122.
     DOI: 10.1063/1.5090222
   
   for sTDA-xTB:
   * S. Grimme and C. Bannwarth, J. Chem. Phys., 2016, 145, 054103.
     DOI: 10.1063/1.4959605
   
   in the mass-spec context:
   * V. Asgeirsson, C. Bauer and S. Grimme, Chem. Sci., 2017, 8, 4879.
     DOI: 10.1039/c7sc00601b
   
   for metadynamics refer to:
   * S. Grimme, J. Chem. Theory Comput., 2019, 155, 2847-2862
     DOI: 10.1021/acs.jctc.9b00143
   
   with help from (in alphabetical order)
   C. Bannwarth, F. Bohle, G. Brandenburg, E. Caldeweyher, M. Checinski,
   S. Dohm, S. Ehlert, S. Ehrlich, F. März, H. Neugebauer, J. Pisarek,
   P. Pracht, P. Shushkov, and S. Spicher.
   
 * started run on 2020/09/07 at 14:42:44.488     

           -------------------------------------------------
          |                Calculation Setup                |
           -------------------------------------------------

          program call               : xtb complex_11881.xyz --chrg +9 --uhf 0 --gbsa water
          hostname                   : gold56.cluster.local
          coordinate file            : complex_11881.xyz
          omp threads                :                    64
          number of atoms            :                  2615
          number of electrons        :                  7228
          charge                     :                     9
          spin                       :                   0.0
          first test random number   :      0.86538898343292


molecular fragmentation (1/2 indicates fragments):
111111111111111111111111111111111111111111111111111111111111111111111111
111111111111111111111111111111111111111111111111111111111111111111111111
111111111111111111111111111111111111111111111111111111111111111111111111
111111111111111111111111111111111111111111111111111111111111111111111111
111111111111111111111111111111111111111111111111111111111111111111111111
111111111111111111111111111111111111111111111111111111111111111111111111
111111111111111111111111111111111111111111111111111111111111111111111111
111111111111111111111111111111111111111111111111111111111111111111111111
111111111111111111111111111111111111111111111111111111111111111111111111
111111111111111111111111111111111111111111111111111111111111111111111111
111111111111111111111111111111111111111111111111111111111111111111111111
111111111111111111111111111111111111111111111111111111111111111111111111
111111111111111111111111111111111111111111111111111111111111111111111111
111111111111111111111111111111111111111111111111111111111111111111111111
111111111111111111111111111111111111111111111111111111111111111111111111
111111111111111111111111111111111111111111111111111111111111111111111111
111111111111111111111111111111111111111111111111111111111111111111111111
111111111111111111111111111111111111111111111111111111111111111111111111
111111111111111111111111111111111111111111111111111111111111111111111111
111111111111111111111111111111111111111111111111111111111111111111111111
111111111111111111111111111111111111111111111111111111111111111111111111
111111111111111111111111111111111111111111111111111111111111111111111111
111111111111111111111111111111111111111111111111111111111111111111111111
111111111111111111111111111111111111111111111111111111111111111111111111
111111111111111111111111111111111111111111111111111111111111111111111111
111111111111111111111111111111111111111111111111111111111111111111111111
111111111111111111111111111111111111111111111111111111111111111111111111
111111111111111111111111111111111111111111111111111111111111111111111111
111111111111111111111111111111111111111111111111111111111111111111111111
111111111111111111111111111111111111111111111111111111111111111111111111
111111111111111111111111111111111111111111111111111111111111111111111111
111111111111111111111111111111111111111111111111111111111111111111111111
111111111111111111111111111111111111111111111111111111111111111111111111
111111111111111111111111111111111111111111111111111111111111111111111111
111111111111111111111111111111111111111111111111111111111111111111111111
111111111111111111111111111111111111111111111111111111111111111111111111
11111111112222222222222
# atoms in fragment 1/2:  2602    13
 fragment masses (1/2) :    18371.93       94.11
CMA distance (Bohr)    :  20.339
constraining FC (au)   :  0.0500
########################################################################
[WARNING] Please study the warnings concerning your input carefully
-2- prog_main: XTBPATH is not set, using XTBHOME instead
-1- prog_main: XTBHOME is not set, using HOME instead
########################################################################
           ------------------------------------------------- 
          |                 G F N 2 - x T B                 |
          | Geometry, Frequencies, Noncovalent interactions |
          |            JCTC 2019 parametrisation            |
           ------------------------------------------------- 
             k(s)              :                1.8500
             k(p)              :                2.2300
             k(d)              :                2.2300
             k(f)              :                2.0000
             kEN (H0ij)        :               -2.0000
             D4 a1             :                0.5200
             D4 a2             :                5.0000
             D4 s6             :                1.0000
             D4 s8             :                2.7000
             D4 s9             :                5.0000
             alphaj            :                2.0000

  Z AO/shell   Hii/eV     exponent
  1     Wed Apr 25 08:07:45 CEST 2018   EN: 2.200 GM2: 0.406  GM3: 0.0800  RAES: 1.40
     1s    -10.707211    1.230000
  6     Wed Apr 25 08:07:45 CEST 2018   EN: 2.550 GM2: 0.538  GM3: 0.1500  RAES: 3.00
     2s    -13.970922    2.096432
     2p    -10.063292    1.800000
  7     Wed Apr 25 08:07:45 CEST 2018   EN: 3.040 GM2: 0.461  GM3:-0.0640  RAES: 1.90
     2s    -16.686243    2.339881
     2p    -12.523956    2.014332
  8     Wed Apr 25 08:07:45 CEST 2018   EN: 3.440 GM2: 0.452  GM3:-0.0517  RAES: 1.80
     2s    -20.229985    2.439742
     2p    -15.503117    2.137023
 16     Tue Apr 24 11:44:34 CEST 2018   EN: 2.580 GM2: 0.340  GM3:-0.0502  RAES: 3.10
     3s    -20.029654    1.981333
     3p    -11.377694    2.025643
     3d     -0.420282    1.702555

 Solvent             : water
 Using internal parameter file: .param_gbsa2_water
 Gsolv ref. state (COSMO-RS): gsolv [1 M gas/solution]
 temperature (mdtemp)       :    298.14999999999998     
 dielectric constant        :    80.200000000000003     
 rho                        :    1.0000000000000000     
 mass                       :    18.000000000000000     
 surface tension            :    15.568945408385856     
 probe radius               :   0.97531378999999996     
 Gshift (Eh)                :    1.8574431267947933E-003
 c1                         :    1.5524381700000001     
 soset                      :   0.13032636000000000     
 HB correction              :  T
           ------------------------------------------------- 
          |        Self-Consistent Charge Iterations        |
           ------------------------------------------------- 

          ...................................................
          :                      SETUP                      :
          :.................................................:
          :  # basis functions                6545          :
          :  # atomic orbitals                6539          :
          :  # shells                         3919          :
          :  # electrons                      7228          :
          :  max. iterations                   250          :
          :  Hamiltonian                  GFN2-xTB          :
          :  restarted?                      false          :
          :  GBSA solvation                   true          :
          :  PC potential                    false          :
          :  electronic temp.          300.0000000     K    :
          :  accuracy                    1.0000000          :
          :  -> integral cutoff          0.2500000E+02      :
          :  -> integral neglect         0.1000000E-07      :
          :  -> SCF convergence          0.1000000E-05 Eh   :
          :  -> wf. convergence          0.1000000E-03 e    :
          :  Broyden damping             0.4000000          :
          ...................................................

 iter      E             dE          RMSdq      gap      omega  full diag
   1  -4141.1371788 -0.414114E+04  0.426E+00    2.52       0.0  T
   2  -4153.3401093 -0.122029E+02  0.225E+00    2.45       1.0  T
   3  -4153.8211201 -0.481011E+00  0.119E+00    2.26       1.0  T
   4  -4153.8940493 -0.729291E-01  0.289E-01    2.07       1.0  T
   5  -4153.9945544 -0.100505E+00  0.143E-01    1.97       1.0  T
   6  -4154.0090272 -0.144728E-01  0.753E-02    2.04       1.0  T
   7  -4154.0117700 -0.274283E-02  0.395E-02    2.02       1.0  T
   8  -4154.0129874 -0.121745E-02  0.178E-02    2.00       1.0  T
   9  -4154.0131899 -0.202419E-03  0.109E-02    1.99       1.0  T
  10  -4154.0132895 -0.996832E-04  0.573E-03    1.98       1.0  T
  11  -4154.0133170 -0.274697E-04  0.284E-03    1.97       1.0  T
  12  -4154.0133245 -0.744048E-05  0.157E-03    1.96       1.2  T
  13  -4154.0133267 -0.227389E-05  0.844E-04    1.96       2.3  T
  14  -4154.0133274 -0.640447E-06  0.427E-04    1.96       4.6  T
  15  -4154.0133275 -0.174527E-06  0.219E-04    1.96       8.9  T

   *** convergence criteria satisfied after 15 iterations ***

         #    Occupation            Energy/Eh            Energy/eV
      -------------------------------------------------------------
         1        2.0000           -0.7505077             -20.4224
       ...           ...                  ...                  ...
      3608        2.0000           -0.3596656              -9.7870
      3609        2.0000           -0.3588490              -9.7648
      3610        2.0000           -0.3576460              -9.7320
      3611        2.0000           -0.3575960              -9.7307
      3612        2.0000           -0.3554527              -9.6724
      3613        2.0000           -0.3532254              -9.6118
      3614        2.0000           -0.3526278              -9.5955 (HOMO)
      3615                         -0.2806200              -7.6361 (LUMO)
      3616                         -0.2693735              -7.3300
      3617                         -0.2662778              -7.2458
      3618                         -0.2649526              -7.2097
      3619                         -0.2641275              -7.1873
       ...                                ...                  ...
      6539                          0.7907932              21.5186
      -------------------------------------------------------------
                  HL-Gap            0.0720078 Eh            1.9594 eV
             Fermi-level           -0.3166239 Eh           -8.6158 eV

 SCC (total)                   0 d,  0 h,  6 min, 58.553 sec
 SCC setup                      ...        0 min,  3.081 sec (  0.736%)
 Dispersion                     ...        0 min,  1.977 sec (  0.472%)
 integral evaluation            ...        0 min,  8.631 sec (  2.062%)
 zeroth order Hamiltonian       ...        0 min,  0.346 sec (  0.083%)
 iterations                     ...        6 min, 26.237 sec ( 92.279%)
 molecular gradient             ...        0 min, 17.530 sec (  4.188%)
 printout                       ...        0 min,  0.751 sec (  0.179%)

         :::::::::::::::::::::::::::::::::::::::::::::::::::::
         ::                     SUMMARY                     ::
         :::::::::::::::::::::::::::::::::::::::::::::::::::::
         :: total energy           -4105.347151551362 Eh    ::
         :: total w/o Gsasa/hb     -4104.964888971638 Eh    ::
         :: gradient norm              1.305675619615 Eh/a0 ::
         :: HOMO-LUMO gap              1.959432194189 eV    ::
         ::.................................................::
         :: SCC energy             -4154.075196543195 Eh    ::
         :: -> isotropic ES           14.032534615810 Eh    ::
         :: -> anisotropic ES         -0.774974499371 Eh    ::
         :: -> anisotropic XC          1.156723428526 Eh    ::
         :: -> dispersion             -3.946168097550 Eh    ::
         :: -> Gsolv                  -3.977310624532 Eh    ::
         ::    -> Gborn               -3.595048044808 Eh    ::
         ::    -> Gsasa               -0.063726438284 Eh    ::
         ::    -> Ghb                 -0.320393584567 Eh    ::
         ::    -> Gshift               0.001857443127 Eh    ::
         :: repulsion energy          48.169704598495 Eh    ::
         :: add. restraining           0.000000000000 Eh    ::
         :::::::::::::::::::::::::::::::::::::::::::::::::::::

           -------------------------------------------------
          |                Property Printout                |
           -------------------------------------------------

    * Orbital Energies and Occupations

         #    Occupation            Energy/Eh            Energy/eV
      -------------------------------------------------------------
         1        2.0000           -0.7505077             -20.4224
       ...           ...                  ...                  ...
      3602        2.0000           -0.3666819              -9.9779
      3603        2.0000           -0.3661692              -9.9640
      3604        2.0000           -0.3661279              -9.9628
      3605        2.0000           -0.3631325              -9.8813
      3606        2.0000           -0.3622884              -9.8584
      3607        2.0000           -0.3619686              -9.8497
      3608        2.0000           -0.3596656              -9.7870
      3609        2.0000           -0.3588490              -9.7648
      3610        2.0000           -0.3576460              -9.7320
      3611        2.0000           -0.3575960              -9.7307
      3612        2.0000           -0.3554527              -9.6724
      3613        2.0000           -0.3532254              -9.6118
      3614        2.0000           -0.3526278              -9.5955 (HOMO)
      3615                         -0.2806200              -7.6361 (LUMO)
      3616                         -0.2693735              -7.3300
      3617                         -0.2662778              -7.2458
      3618                         -0.2649526              -7.2097
      3619                         -0.2641275              -7.1873
      3620                         -0.2640918              -7.1863
      3621                         -0.2631004              -7.1593
      3622                         -0.2624788              -7.1424
      3623                         -0.2613413              -7.1115
      3624                         -0.2605708              -7.0905
      3625                         -0.2599607              -7.0739
       ...                                ...                  ...
      6539                          0.7907932              21.5186
      -------------------------------------------------------------
                  HL-Gap            0.0720078 Eh            1.9594 eV
             Fermi-level           -0.3166239 Eh           -8.6158 eV

     #   Z        covCN         q      C6AA      α(0)
     1   7 N      3.489    -0.141    24.036     7.282
     2   1 H      0.860     0.314     0.674     1.286
     3   1 H      0.860     0.304     0.700     1.311
     4   1 H      0.860     0.307     0.694     1.305
     5   6 C      3.779    -0.020    20.950     6.521
     6   1 H      0.925     0.106     1.732     2.058
     7   6 C      3.806    -0.097    22.351     6.730
     8   1 H      0.924     0.104     1.748     2.068
     9   1 H      0.925     0.088     1.901     2.156
    10   6 C      3.791    -0.033    21.174     6.553
    11   1 H      0.925     0.077     2.007     2.215
    12   1 H      0.925     0.072     2.061     2.245
    13  16 S      1.945    -0.206   149.805    20.600
    14   6 C      3.744    -0.048    21.498     6.614
    15   1 H      0.925     0.053     2.279     2.361
    16   1 H      0.925     0.051     2.302     2.373
    17   1 H      0.925     0.034     2.531     2.488
    18   6 C      2.741     0.250    22.800     7.818
    19   8 O      0.858    -0.424    22.173     6.313
    20   7 N      2.688    -0.138    23.999     7.276
    21   1 H      0.860     0.202     1.095     1.639
    22   6 C      3.781     0.018    20.292     6.417
    23   1 H      0.925     0.116     1.649     2.008
    24   6 C      3.793    -0.126    22.917     6.817
    25   1 H      0.925     0.103     1.754     2.071
    26   1 H      0.925     0.094     1.844     2.124
    27   6 C      2.737     0.287    22.143     7.704
    28   8 O      0.886    -0.530    24.436     6.628
    29   7 N      2.663    -0.258    26.702     7.674
    30   1 H      0.860     0.244     0.908     1.492
    31   1 H      0.860     0.235     0.943     1.521
    32   6 C      2.745     0.259    22.635     7.790
    33   8 O      0.857    -0.496    23.701     6.527
    34   7 N      2.679    -0.173    24.745     7.388
    35   1 H      0.860     0.225     0.989     1.558
    36   6 C      3.781    -0.011    20.799     6.497
    37   1 H      0.925     0.099     1.795     2.095
    38   6 C      3.843    -0.045    21.346     6.572
    39   1 H      0.925     0.089     1.893     2.152
    40   6 C      3.756    -0.141    23.269     6.878
    41   1 H      0.925     0.051     2.303     2.373
    42   1 H      0.925     0.059     2.212     2.326
    43   1 H      0.925     0.064     2.148     2.292
    44   6 C      3.818    -0.075    21.920     6.663
    45   1 H      0.925     0.050     2.323     2.384
    46   1 H      0.925     0.072     2.065     2.247
    47   6 C      3.752    -0.120    22.853     6.817
    48   1 H      0.925     0.039     2.460     2.453
    49   1 H      0.924     0.042     2.421     2.433
    50   1 H      0.925     0.027     2.633     2.537
    51   6 C      2.745     0.281    22.249     7.723
    52   8 O      0.859    -0.474    23.216     6.460
    53   7 N      2.700    -0.199    25.320     7.473
    54   1 H      0.860     0.211     1.050     1.605
    55   6 C      3.794     0.026    20.150     6.392
    56   1 H      0.925     0.086     1.917     2.165
    57   6 C      3.813    -0.080    22.011     6.678
    58   1 H      0.925     0.061     2.188     2.313
    59   1 H      0.925     0.059     2.211     2.325
    60   6 C      2.956    -0.004    28.122     8.698
    61   6 C      2.901    -0.046    29.143     8.851
    62   1 H      0.926     0.050     2.321     2.382
    63   6 C      2.916    -0.036    28.907     8.817
    64   1 H      0.926     0.060     2.196     2.317
    65   6 C      2.922    -0.035    28.875     8.812
    66   1 H      0.926     0.054     2.276     2.359
    67   6 C      2.911    -0.030    28.738     8.791
    68   1 H      0.926     0.040     2.447     2.446
    69   6 C      2.918    -0.038    28.938     8.821
    70   1 H      0.926     0.032     2.552     2.498
    71   6 C      2.747     0.271    22.420     7.753
    72   8 O      0.859    -0.476    23.265     6.467
    73   7 N      2.681    -0.190    25.123     7.444
    74   1 H      0.860     0.211     1.053     1.608
    75   6 C      3.785     0.019    20.270     6.413
    76   1 H      0.925     0.081     1.968     2.194
    77   6 C      3.809    -0.060    21.649     6.623
    78   1 H      0.925     0.058     2.224     2.332
    79   1 H      0.924     0.078     1.998     2.211
    80   6 C      3.803    -0.079    22.009     6.679
    81   1 H      0.924     0.022     2.698     2.569
    82   1 H      0.925     0.018     2.756     2.596
    83   6 C      2.687     0.365    20.812     7.466
    84   8 O      0.858    -0.653    27.458     7.025
    85   8 O      0.856    -0.659    27.606     7.044
    86   6 C      2.751     0.266    22.519     7.770
    87   8 O      0.858    -0.499    23.757     6.535
    88   7 N      2.691    -0.190    25.112     7.443
    89   1 H      0.860     0.229     0.968     1.541
    90   6 C      3.790     0.031    20.070     6.380
    91   1 H      0.924     0.073     2.055     2.242
    92   6 C      3.852    -0.075    21.901     6.656
    93   1 H      0.924     0.077     2.013     2.219
    94   1 H      0.925     0.085     1.924     2.169
    95   6 C      3.789    -0.025    21.023     6.530
    96   1 H      0.925     0.055     2.263     2.353
    97   1 H      0.925     0.042     2.426     2.436
    98  16 S      1.968    -0.190   149.115    20.553
    99   6 C      3.740    -0.074    21.998     6.692
   100   1 H      0.925     0.070     2.085     2.258
   101   1 H      0.925     0.061     2.184     2.311
   102   1 H      0.925     0.068     2.104     2.268
   103   6 C      2.751     0.267    22.500     7.767
   104   8 O      0.857    -0.480    23.347     6.478
   105   7 N      2.680    -0.200    25.347     7.477
   106   1 H      0.860     0.236     0.941     1.520
   107   6 C      3.781     0.023    20.214     6.405
   108   1 H      0.925     0.077     2.006     2.215
   109   6 C      3.772    -0.081    22.074     6.695
   110   1 H      0.925     0.055     2.264     2.353
   111   1 H      0.925     0.066     2.132     2.284
   112   6 C      3.834    -0.022    20.934     6.510
   113   1 H      0.925     0.056     2.245     2.343
   114   6 C      3.756    -0.125    22.944     6.830
   115   1 H      0.925     0.039     2.458     2.452
   116   1 H      0.925     0.056     2.241     2.341
   117   1 H      0.925     0.054     2.268     2.355
   118   6 C      3.760    -0.106    22.577     6.774
   119   1 H      0.925     0.020     2.726     2.582
   120   1 H      0.924     0.047     2.361     2.403
   121   1 H      0.925     0.026     2.637     2.539
   122   6 C      2.751     0.275    22.342     7.740
   123   8 O      0.861    -0.484    23.431     6.490
   124   7 N      2.679    -0.203    25.406     7.486
   125   1 H      0.860     0.192     1.147     1.678
   126   6 C      3.770     0.011    20.433     6.442
   127   1 H      0.925     0.089     1.888     2.149
   128   6 C      3.790    -0.077    21.980     6.677
   129   1 H      0.925     0.085     1.927     2.171
   130   1 H      0.924     0.065     2.147     2.291
   131   6 C      3.793    -0.087    22.158     6.703
   132   1 H      0.924     0.062     2.181     2.309
   133   1 H      0.924     0.067     2.121     2.277
   134   6 C      3.725    -0.022    21.073     6.555
   135   1 H      0.925     0.087     1.910     2.161
   136   1 H      0.925     0.065     2.143     2.289
   137   7 N      2.710    -0.168    24.624     7.370
   138   1 H      0.860     0.222     1.001     1.567
   139   6 C      2.733     0.245    22.892     7.833
   140   7 N      2.691    -0.257    26.674     7.671
   141   1 H      0.860     0.260     0.847     1.442
   142   1 H      0.860     0.244     0.909     1.493
   143   7 N      2.698    -0.266    26.885     7.701
   144   1 H      0.860     0.256     0.859     1.452
   145   1 H      0.860     0.213     1.040     1.598
   146   6 C      2.738     0.265    22.521     7.770
   147   8 O      0.857    -0.472    23.171     6.454
   148   7 N      2.679    -0.188    25.072     7.437
   149   1 H      0.860     0.197     1.122     1.660
   150   6 C      3.788     0.008    20.449     6.441
   151   1 H      0.925     0.095     1.830     2.116
   152   6 C      3.852    -0.014    20.785     6.484
   153   1 H      0.924     0.053     2.283     2.363
   154   6 C      3.753    -0.120    22.863     6.819
   155   1 H      0.925     0.059     2.212     2.326
   156   1 H      0.925     0.034     2.533     2.489
   157   1 H      0.925     0.060     2.201     2.320
   158   6 C      3.812    -0.066    21.761     6.640
   159   1 H      0.925     0.046     2.377     2.411
   160   1 H      0.925     0.045     2.383     2.414
   161   6 C      3.751    -0.101    22.491     6.763
   162   1 H      0.925     0.031     2.571     2.508
   163   1 H      0.925     0.042     2.420     2.433
   164   1 H      0.925     0.034     2.525     2.485
   165   6 C      2.754     0.269    22.451     7.759
   166   8 O      0.858    -0.472    23.177     6.455
   167   7 N      2.693    -0.195    25.227     7.460
   168   1 H      0.860     0.202     1.097     1.641
   169   6 C      3.797     0.031    20.061     6.378
   170   1 H      0.925     0.107     1.726     2.055
   171   6 C      3.813    -0.088    22.166     6.701
   172   1 H      0.925     0.031     2.579     2.511
   173   1 H      0.925     0.024     2.667     2.554
   174   6 C      2.686     0.364    20.828     7.469
   175   8 O      0.857    -0.607    26.298     6.875
   176   8 O      0.859    -0.550    24.923     6.693
   177   6 C      2.752     0.275    22.344     7.740
   178   8 O      0.861    -0.485    23.452     6.493
   179   7 N      2.683    -0.186    25.037     7.432
   180   1 H      0.860     0.207     1.072     1.622
   181   6 C      3.780     0.025    20.173     6.399
   182   1 H      0.925     0.082     1.960     2.189
   183   6 C      3.805    -0.042    21.326     6.574
   184   1 H      0.925     0.039     2.464     2.455
   185   1 H      0.925     0.038     2.472     2.459
   186   6 C      3.804    -0.074    21.915     6.665
   187   1 H      0.925     0.025     2.655     2.548
   188   1 H      0.924     0.035     2.514     2.480
   189   6 C      2.691     0.355    20.967     7.494
   190   8 O      0.856    -0.621    26.651     6.921
   191   8 O      0.856    -0.653    27.448     7.024
   192   6 C      2.753     0.265    22.534     7.773
   193   8 O      0.861    -0.479    23.326     6.475
   194   7 N      2.683    -0.162    24.504     7.352
   195   1 H      0.860     0.197     1.120     1.658
   196   6 C      3.742    -0.042    21.394     6.599
   197   1 H      0.924     0.109     1.705     2.042
   198   1 H      0.925     0.098     1.801     2.099
   199   6 C      2.740     0.285    22.171     7.709
   200   8 O      0.866    -0.481    23.369     6.482
   201   7 N      2.694    -0.179    24.866     7.406
   202   1 H      0.860     0.207     1.069     1.620
   203   6 C      3.786     0.018    20.285     6.415
   204   1 H      0.925     0.074     2.045     2.236
   205   6 C      3.803    -0.079    22.011     6.679
   206   1 H      0.925     0.066     2.127     2.280
   207   1 H      0.925     0.060     2.203     2.321
   208   6 C      3.848    -0.015    20.810     6.489
   209   1 H      0.925     0.045     2.385     2.415
   210   6 C      3.758    -0.123    22.910     6.824
   211   1 H      0.925     0.049     2.334     2.389
   212   1 H      0.924     0.013     2.835     2.633
   213   1 H      0.925     0.058     2.228     2.334
   214   6 C      3.761    -0.142    23.289     6.879
   215   1 H      0.924     0.055     2.256     2.349
   216   1 H      0.925     0.056     2.249     2.345
   217   1 H      0.925     0.062     2.180     2.309
   218   6 C      2.750     0.264    22.546     7.775
   219   8 O      0.857    -0.485    23.451     6.493
   220   7 N      2.681    -0.172    24.726     7.385
   221   1 H      0.860     0.202     1.097     1.640
   222   6 C      3.791     0.019    20.263     6.411
   223   1 H      0.924     0.090     1.878     2.143
   224   6 C      3.813    -0.076    21.941     6.667
   225   1 H      0.925     0.084     1.937     2.177
   226   1 H      0.925     0.073     2.048     2.238
   227   6 C      3.805    -0.088    22.170     6.703
   228   1 H      0.924     0.060     2.204     2.322
   229   1 H      0.925     0.092     1.863     2.134
   230   6 C      3.725    -0.032    21.255     6.583
   231   1 H      0.925     0.110     1.697     2.037
   232   1 H      0.924     0.068     2.107     2.270
   233   7 N      2.682    -0.167    24.623     7.370
   234   1 H      0.860     0.242     0.914     1.497
   235   6 C      2.731     0.228    23.207     7.887
   236   7 N      2.678    -0.241    26.284     7.614
   237   1 H      0.860     0.259     0.849     1.443
   238   1 H      0.861     0.242     0.916     1.499
   239   7 N      2.673    -0.272    27.029     7.721
   240   1 H      0.860     0.253     0.872     1.463
   241   1 H      0.860     0.258     0.853     1.447
   242   6 C      2.758     0.251    22.780     7.816
   243   8 O      0.857    -0.510    23.997     6.568
   244   7 N      2.688    -0.180    24.888     7.409
   245   1 H      0.860     0.220     1.011     1.575
   246   6 C      3.779     0.012    20.392     6.434
   247   1 H      0.925     0.087     1.907     2.160
   248   6 C      3.816    -0.086    22.118     6.694
   249   1 H      0.924     0.089     1.891     2.150
   250   1 H      0.924     0.070     2.084     2.257
   251   6 C      3.847    -0.016    20.827     6.491
   252   1 H      0.925     0.039     2.460     2.453
   253   6 C      3.766    -0.125    22.933     6.825
   254   1 H      0.924     0.048     2.343     2.394
   255   1 H      0.925     0.040     2.449     2.447
   256   1 H      0.925     0.044     2.398     2.422
   257   6 C      3.750    -0.116    22.793     6.809
   258   1 H      0.924     0.032     2.562     2.503
   259   1 H      0.924     0.041     2.435     2.440
   260   1 H      0.924     0.047     2.356     2.400
   261   6 C      2.744     0.272    22.408     7.751
   262   8 O      0.861    -0.454    22.778     6.399
   263   7 N      2.683    -0.178    24.850     7.404
   264   1 H      0.860     0.188     1.171     1.695
   265   6 C      3.784     0.009    20.436     6.439
   266   1 H      0.925     0.090     1.877     2.142
   267   6 C      3.802    -0.078    21.985     6.676
   268   1 H      0.925     0.073     2.058     2.243
   269   1 H      0.925     0.070     2.084     2.257
   270   6 C      3.802    -0.085    22.129     6.697
   271   1 H      0.925     0.054     2.266     2.354
   272   1 H      0.925     0.068     2.107     2.270
   273   6 C      3.801    -0.105    22.511     6.755
   274   1 H      0.925     0.089     1.885     2.147
   275   1 H      0.925     0.080     1.984     2.203
   276   6 C      3.736    -0.058    21.705     6.649
   277   1 H      0.925     0.109     1.705     2.042
   278   1 H      0.925     0.117     1.639     2.002
   279   7 N      3.488    -0.144    24.107     7.292
   280   1 H      0.860     0.303     0.703     1.314
   281   1 H      0.860     0.294     0.731     1.339
   282   1 H      0.860     0.297     0.722     1.331
   283   6 C      2.747     0.268    22.468     7.761
   284   8 O      0.859    -0.508    23.965     6.564
   285   7 N      2.679    -0.150    24.246     7.313
   286   1 H      0.860     0.232     0.958     1.534
   287   6 C      3.772    -0.002    20.655     6.476
   288   1 H      0.925     0.071     2.072     2.251
   289   6 C      3.851    -0.031    21.092     6.532
   290   1 H      0.924     0.083     1.945     2.181
   291   6 C      3.779    -0.128    22.978     6.829
   292   1 H      0.924     0.034     2.529     2.487
   293   1 H      0.924     0.069     2.092     2.262
   294   1 H      0.925     0.030     2.588     2.516
   295   6 C      3.829    -0.083    22.063     6.683
   296   1 H      0.925     0.059     2.206     2.323
   297   1 H      0.924     0.044     2.401     2.423
   298   6 C      3.749    -0.137    23.209     6.871
   299   1 H      0.925     0.043     2.409     2.427
   300   1 H      0.925     0.072     2.068     2.249
   301   1 H      0.925     0.047     2.357     2.401
   302   6 C      2.742     0.270    22.432     7.755
   303   8 O      0.859    -0.477    23.275     6.468
   304   7 N      2.680    -0.179    24.877     7.408
   305   1 H      0.860     0.212     1.046     1.602
   306   6 C      3.786     0.020    20.245     6.409
   307   1 H      0.924     0.106     1.728     2.055
   308   6 C      3.813    -0.088    22.161     6.700
   309   1 H      0.925     0.099     1.792     2.094
   310   1 H      0.925     0.078     1.997     2.210
   311   6 C      2.982    -0.002    28.076     8.692
   312   6 C      2.906    -0.044    29.082     8.843
   313   1 H      0.926     0.051     2.309     2.376
   314   6 C      2.906    -0.073    29.826     8.955
   315   1 H      0.925     0.007     2.932     2.678
   316   6 C      2.838     0.128    25.196     8.226
   317   8 O      1.659    -0.447    21.780     6.300
   318   1 H      0.805     0.317     0.672     1.288
   319   6 C      2.925    -0.056    29.382     8.889
   320   1 H      0.926     0.039     2.459     2.452
   321   6 C      2.900    -0.048    29.182     8.857
   322   1 H      0.926     0.105     1.742     2.064
   323   6 C      2.758     0.266    22.509     7.769
   324   8 O      0.861    -0.513    24.083     6.580
   325   7 N      2.683    -0.165    24.575     7.363
   326   1 H      0.860     0.226     0.984     1.554
   327   6 C      3.788     0.006    20.483     6.446
   328   1 H      0.924     0.081     1.970     2.195
   329   6 C      3.801    -0.077    21.973     6.674
   330   1 H      0.925     0.046     2.370     2.408
   331   1 H      0.925     0.077     2.011     2.218
   332   6 C      3.805    -0.082    22.063     6.687
   333   1 H      0.925     0.075     2.030     2.228
   334   1 H      0.925     0.052     2.297     2.370
   335   6 C      3.805    -0.102    22.437     6.743
   336   1 H      0.925     0.085     1.923     2.169
   337   1 H      0.924     0.068     2.109     2.271
   338   6 C      3.739    -0.063    21.795     6.661
   339   1 H      0.925     0.120     1.611     1.985
   340   1 H      0.925     0.148     1.406     1.854
   341   7 N      3.491    -0.157    24.383     7.334
   342   1 H      0.860     0.300     0.714     1.324
   343   1 H      0.860     0.292     0.738     1.346
   344   1 H      0.860     0.309     0.688     1.299
   345   6 C      2.745     0.293    22.036     7.686
   346   8 O      0.861    -0.456    22.825     6.406
   347   7 N      2.680    -0.222    25.849     7.551
   348   1 H      0.860     0.213     1.041     1.598
   349   6 C      3.782     0.040    19.915     6.357
   350   1 H      0.925     0.048     2.342     2.393
   351   6 C      3.804    -0.090    22.205     6.709
   352   1 H      0.924     0.035     2.510     2.477
   353   1 H      0.925     0.050     2.323     2.384
   354   6 C      2.689     0.366    20.789     7.462
   355   8 O      0.857    -0.620    26.625     6.918
   356   8 O      0.856    -0.618    26.558     6.909
   357   6 C      2.748     0.271    22.426     7.754
   358   8 O      0.864    -0.481    23.366     6.481
   359   7 N      2.687    -0.189    25.100     7.441
   360   1 H      0.860     0.197     1.123     1.660
   361   6 C      3.804     0.019    20.261     6.408
   362   1 H      0.924     0.098     1.806     2.102
   363   6 C      3.732     0.114    18.805     6.190
   364   1 H      0.925     0.029     2.595     2.519
   365   6 C      3.752    -0.134    23.141     6.860
   366   1 H      0.924     0.069     2.102     2.267
   367   1 H      0.925     0.067     2.116     2.275
   368   1 H      0.925     0.083     1.944     2.181
   369   8 O      1.647    -0.487    22.624     6.421
   370   1 H      0.805     0.310     0.693     1.307
   371   6 C      2.777     0.291    22.071     7.695
   372   8 O      0.865    -0.515    24.124     6.585
   373   7 N      2.693    -0.212    25.615     7.517
   374   1 H      0.860     0.227     0.977     1.548
   375   6 C      3.797     0.031    20.063     6.378
   376   1 H      0.924     0.082     1.957     2.188
   377   6 C      3.807    -0.048    21.420     6.588
   378   1 H      0.925     0.038     2.480     2.462
   379   1 H      0.925     0.056     2.252     2.347
   380   6 C      3.798    -0.095    22.324     6.728
   381   1 H      0.924     0.043     2.409     2.427
   382   1 H      0.924     0.052     2.295     2.369
   383   6 C      2.684     0.355    20.978     7.495
   384   8 O      0.856    -0.620    26.612     6.916
   385   8 O      0.856    -0.565    25.264     6.739
   386   6 C      2.753     0.264    22.545     7.775
   387   8 O      0.860    -0.479    23.324     6.475
   388   7 N      2.684    -0.186    25.029     7.430
   389   1 H      0.860     0.199     1.113     1.653
   390   6 C      3.747    -0.031    21.200     6.568
   391   1 H      0.924     0.105     1.740     2.063
   392   1 H      0.924     0.104     1.750     2.069
   393   6 C      2.744     0.273    22.384     7.747
   394   8 O      0.858    -0.457    22.845     6.408
   395   7 N      2.688    -0.178    24.849     7.404
   396   1 H      0.860     0.177     1.232     1.739
   397   6 C      3.782     0.021    20.236     6.408
   398   1 H      0.924     0.070     2.087     2.259
   399   6 C      3.811    -0.070    21.839     6.652
   400   1 H      0.925     0.073     2.055     2.242
   401   1 H      0.925     0.043     2.404     2.425
   402   6 C      2.957    -0.014    28.358     8.735
   403   6 C      2.905    -0.048    29.198     8.860
   404   1 H      0.926     0.037     2.486     2.466
   405   6 C      2.915    -0.069    29.726     8.941
   406   1 H      0.926     0.055     2.258     2.350
   407   6 C      2.824     0.137    25.001     8.193
   408   8 O      1.660    -0.391    20.668     6.137
   409   1 H      0.806     0.359     0.568     1.184
   410   6 C      2.902    -0.078    29.948     8.973
   411   1 H      0.926     0.053     2.285     2.364
   412   6 C      2.903    -0.046    29.136     8.851
   413   1 H      0.926     0.038     2.478     2.462
   414   6 C      2.748     0.272    22.399     7.749
   415   8 O      0.869    -0.473    23.180     6.455
   416   7 N      2.714    -0.172    24.715     7.383
   417   1 H      0.860     0.206     1.074     1.624
   418   6 C      3.795     0.024    20.182     6.397
   419   1 H      0.925     0.102     1.764     2.077
   420   6 C      3.816    -0.083    22.061     6.685
   421   1 H      0.925     0.074     2.043     2.235
   422   1 H      0.924     0.062     2.174     2.306
   423   6 C      2.957     0.001    28.013     8.681
   424   6 C      2.918    -0.036    28.894     8.815
   425   1 H      0.926     0.037     2.486     2.466
   426   6 C      2.914    -0.079    29.971     8.977
   427   1 H      0.926     0.023     2.689     2.564
   428   6 C      2.839     0.134    25.071     8.206
   429   8 O      1.660    -0.393    20.713     6.144
   430   1 H      0.806     0.339     0.614     1.231
   431   6 C      2.913    -0.074    29.835     8.957
   432   1 H      0.926     0.086     1.918     2.165
   433   6 C      2.921    -0.044    29.095     8.845
   434   1 H      0.926     0.055     2.257     2.349
   435   6 C      2.754     0.268    22.472     7.763
   436   8 O      0.856    -0.498    23.739     6.532
   437   7 N      2.683    -0.172    24.718     7.384
   438   1 H      0.860     0.243     0.911     1.495
   439   6 C      3.774     0.005    20.524     6.455
   440   1 H      0.925     0.072     2.059     2.244
   441   6 C      3.721     0.123    18.675     6.172
   442   1 H      0.924     0.030     2.581     2.512
   443   6 C      3.745    -0.117    22.818     6.814
   444   1 H      0.924     0.051     2.304     2.374
   445   1 H      0.925     0.044     2.401     2.423
   446   1 H      0.925     0.037     2.491     2.468
   447   8 O      1.659    -0.478    22.424     6.393
   448   1 H      0.806     0.322     0.657     1.273
   449   6 C      2.744     0.264    22.551     7.775
   450   8 O      0.866    -0.455    22.816     6.404
   451   7 N      2.688    -0.170    24.687     7.379
   452   1 H      0.860     0.198     1.116     1.655
   453   6 C      3.788     0.010    20.429     6.438
   454   1 H      0.924     0.091     1.873     2.140
   455   6 C      3.847    -0.033    21.132     6.539
   456   1 H      0.924     0.076     2.023     2.224
   457   6 C      3.748    -0.130    23.070     6.851
   458   1 H      0.925     0.075     2.031     2.229
   459   1 H      0.925     0.043     2.403     2.424
   460   1 H      0.925     0.048     2.341     2.393
   461   6 C      3.801    -0.079    22.015     6.680
   462   1 H      0.924     0.043     2.414     2.430
   463   1 H      0.925     0.045     2.383     2.414
   464   6 C      3.750    -0.132    23.103     6.855
   465   1 H      0.925     0.063     2.166     2.302
   466   1 H      0.925     0.051     2.307     2.375
   467   1 H      0.924     0.068     2.108     2.271
   468   6 C      2.755     0.265    22.529     7.773
   469   8 O      0.860    -0.513    24.080     6.579
   470   7 N      2.686    -0.141    24.058     7.285
   471   1 H      0.860     0.244     0.907     1.492
   472   6 C      3.745    -0.028    21.143     6.559
   473   1 H      0.925     0.075     2.026     2.226
   474   1 H      0.925     0.115     1.653     2.011
   475   6 C      2.743     0.253    22.740     7.808
   476   8 O      0.857    -0.484    23.432     6.490
   477   7 N      2.690    -0.171    24.691     7.380
   478   1 H      0.860     0.200     1.108     1.649
   479   6 C      3.795     0.013    20.360     6.425
   480   1 H      0.924     0.091     1.866     2.136
   481   6 C      3.853    -0.015    20.810     6.488
   482   1 H      0.924     0.034     2.532     2.488
   483   6 C      3.755    -0.109    22.640     6.785
   484   1 H      0.924     0.030     2.584     2.514
   485   1 H      0.924     0.028     2.610     2.526
   486   1 H      0.925     0.058     2.225     2.332
   487   6 C      3.798    -0.071    21.857     6.657
   488   1 H      0.924     0.039     2.457     2.451
   489   1 H      0.925     0.061     2.183     2.310
   490   6 C      3.746    -0.121    22.882     6.823
   491   1 H      0.925     0.028     2.615     2.529
   492   1 H      0.924     0.071     2.075     2.253
   493   1 H      0.925     0.051     2.306     2.375
   494   6 C      2.745     0.269    22.449     7.758
   495   8 O      0.857    -0.470    23.127     6.448
   496   7 N      2.686    -0.187    25.053     7.434
   497   1 H      0.860     0.216     1.029     1.589
   498   6 C      3.738    -0.014    20.904     6.524
   499   1 H      0.925     0.068     2.109     2.271
   500   1 H      0.924     0.095     1.836     2.119
   501   6 C      2.758     0.272    22.398     7.750
   502   8 O      0.859    -0.533    24.538     6.641
   503   7 N      2.692    -0.165    24.567     7.361
   504   1 H      0.860     0.241     0.920     1.503
   505   6 C      3.801     0.036    19.968     6.362
   506   1 H      0.925     0.063     2.167     2.302
   507   6 C      3.811    -0.085    22.116     6.694
   508   1 H      0.925     0.117     1.639     2.002
   509   1 H      0.925     0.081     1.971     2.196
   510   6 C      3.067     0.045    26.932     8.510
   511   7 N      2.781    -0.033    21.889     6.949
   512   1 H      0.860     0.260     0.845     1.440
   513   6 C      2.979     0.064    26.559     8.454
   514   1 H      0.926     0.137     1.479     1.902
   515   7 N      2.804    -0.011    21.463     6.881
   516   1 H      0.860     0.262     0.839     1.435
   517   6 C      2.977    -0.004    28.115     8.698
   518   1 H      0.926     0.136     1.491     1.910
   519   6 C      2.746     0.262    22.583     7.781
   520   8 O      0.857    -0.448    22.671     6.384
   521   7 N      2.688    -0.166    24.598     7.366
   522   1 H      0.860     0.196     1.126     1.662
   523   6 C      3.780     0.023    20.212     6.405
   524   1 H      0.925     0.068     2.103     2.268
   525   6 C      3.800    -0.078    21.986     6.676
   526   1 H      0.924     0.050     2.315     2.379
   527   1 H      0.924     0.044     2.393     2.419
   528   6 C      3.851    -0.012    20.755     6.480
   529   1 H      0.924     0.028     2.619     2.531
   530   6 C      3.755    -0.126    22.984     6.836
   531   1 H      0.924     0.063     2.159     2.298
   532   1 H      0.925     0.050     2.319     2.382
   533   1 H      0.925     0.034     2.527     2.486
   534   6 C      3.757    -0.127    22.991     6.837
   535   1 H      0.924     0.045     2.377     2.411
   536   1 H      0.925     0.051     2.314     2.379
   537   1 H      0.925     0.064     2.153     2.295
   538   6 C      2.749     0.274    22.365     7.744
   539   8 O      0.858    -0.488    23.525     6.503
   540   7 N      2.685    -0.189    25.095     7.440
   541   1 H      0.860     0.224     0.991     1.560
   542   6 C      3.773     0.011    20.428     6.440
   543   1 H      0.925     0.073     2.048     2.238
   544   6 C      3.802    -0.078    21.984     6.675
   545   1 H      0.925     0.054     2.267     2.355
   546   1 H      0.924     0.048     2.349     2.397
   547   6 C      3.848    -0.014    20.788     6.485
   548   1 H      0.925     0.035     2.514     2.480
   549   6 C      3.752    -0.130    23.058     6.848
   550   1 H      0.925     0.041     2.436     2.441
   551   1 H      0.924     0.072     2.058     2.244
   552   1 H      0.925     0.069     2.093     2.263
   553   6 C      3.763    -0.132    23.085     6.849
   554   1 H      0.924     0.067     2.117     2.275
   555   1 H      0.925     0.017     2.779     2.607
   556   1 H      0.925     0.054     2.265     2.353
   557   6 C      2.742     0.276    22.333     7.738
   558   8 O      0.859    -0.472    23.170     6.454
   559   7 N      2.683    -0.186    25.024     7.430
   560   1 H      0.860     0.214     1.036     1.594
   561   6 C      3.780     0.006    20.496     6.449
   562   1 H      0.925     0.060     2.194     2.316
   563   6 C      3.717     0.108    18.915     6.213
   564   1 H      0.925     0.030     2.581     2.512
   565   6 C      3.754    -0.123    22.912     6.825
   566   1 H      0.924     0.060     2.205     2.322
   567   1 H      0.925     0.059     2.216     2.328
   568   1 H      0.925     0.080     1.976     2.198
   569   8 O      1.653    -0.476    22.375     6.386
   570   1 H      0.806     0.328     0.642     1.259
   571   6 C      2.748     0.265    22.520     7.771
   572   8 O      0.858    -0.462    22.957     6.424
   573   7 N      2.682    -0.183    24.957     7.420
   574   1 H      0.860     0.210     1.057     1.611
   575   6 C      3.774     0.016    20.329     6.424
   576   1 H      0.924     0.092     1.859     2.132
   577   6 C      3.799    -0.085    22.129     6.698
   578   1 H      0.924     0.078     1.996     2.209
   579   1 H      0.925     0.065     2.144     2.290
   580   6 C      3.798    -0.081    22.042     6.685
   581   1 H      0.925     0.056     2.241     2.341
   582   1 H      0.924     0.048     2.344     2.394
   583   6 C      3.804    -0.092    22.260     6.717
   584   1 H      0.924     0.077     2.009     2.217
   585   1 H      0.924     0.086     1.914     2.164
   586   6 C      3.732    -0.046    21.489     6.617
   587   1 H      0.924     0.111     1.688     2.032
   588   1 H      0.925     0.110     1.694     2.035
   589   7 N      3.484    -0.153    24.292     7.320
   590   1 H      0.860     0.300     0.714     1.324
   591   1 H      0.860     0.302     0.708     1.318
   592   1 H      0.860     0.301     0.711     1.321
   593   6 C      2.737     0.272    22.404     7.750
   594   8 O      0.868    -0.498    23.738     6.533
   595   7 N      2.689    -0.142    24.084     7.289
   596   1 H      0.860     0.212     1.046     1.602
   597   6 C      3.778     0.017    20.306     6.420
   598   1 H      0.924     0.080     1.975     2.198
   599   6 C      3.679     0.075    19.538     6.332
   600   1 H      0.925     0.041     2.431     2.438
   601   1 H      0.925     0.045     2.378     2.412
   602   8 O      1.657    -0.470    22.261     6.369
   603   1 H      0.806     0.345     0.599     1.215
   604   6 C      2.744     0.246    22.875     7.831
   605   8 O      0.859    -0.479    23.330     6.476
   606   7 N      2.737    -0.098    23.158     7.147
   607   6 C      3.751    -0.019    20.970     6.531
   608   1 H      0.925     0.071     2.069     2.250
   609   1 H      0.925     0.071     2.072     2.251
   610   6 C      3.812    -0.080    22.023     6.680
   611   1 H      0.925     0.077     2.007     2.216
   612   1 H      0.924     0.070     2.088     2.260
   613   6 C      3.821    -0.073    21.879     6.657
   614   1 H      0.925     0.060     2.203     2.321
   615   1 H      0.924     0.085     1.927     2.171
   616   6 C      3.797     0.022    20.214     6.402
   617   1 H      0.924     0.093     1.853     2.129
   618   6 C      2.749     0.278    22.294     7.731
   619   8 O      0.867    -0.480    23.339     6.477
   620   7 N      2.700    -0.185    24.999     7.426
   621   1 H      0.860     0.209     1.063     1.615
   622   6 C      3.792     0.014    20.351     6.424
   623   1 H      0.925     0.086     1.922     2.168
   624   6 C      3.673     0.064    19.728     6.366
   625   1 H      0.924     0.051     2.301     2.372
   626   1 H      0.925     0.061     2.183     2.311
   627   8 O      1.648    -0.483    22.543     6.409
   628   1 H      0.805     0.340     0.612     1.228
   629   6 C      2.757     0.271    22.428     7.755
   630   8 O      0.860    -0.453    22.765     6.397
   631   7 N      2.688    -0.181    24.917     7.414
   632   1 H      0.860     0.215     1.033     1.592
   633   6 C      3.785     0.004    20.527     6.453
   634   1 H      0.924     0.102     1.769     2.080
   635   6 C      3.801    -0.087    22.168     6.704
   636   1 H      0.925     0.058     2.218     2.329
   637   1 H      0.925     0.083     1.943     2.180
   638   6 C      3.844    -0.030    21.069     6.529
   639   1 H      0.924     0.053     2.280     2.361
   640   6 C      3.748    -0.137    23.202     6.870
   641   1 H      0.924     0.062     2.173     2.306
   642   1 H      0.925     0.055     2.263     2.352
   643   1 H      0.925     0.045     2.379     2.412
   644   6 C      3.754    -0.135    23.146     6.860
   645   1 H      0.925     0.037     2.492     2.469
   646   1 H      0.925     0.053     2.285     2.364
   647   1 H      0.925     0.064     2.157     2.297
   648   6 C      2.746     0.264    22.546     7.775
   649   8 O      0.863    -0.453    22.773     6.398
   650   7 N      2.688    -0.178    24.857     7.405
   651   1 H      0.860     0.214     1.035     1.594
   652   6 C      3.785     0.010    20.430     6.438
   653   1 H      0.925     0.111     1.685     2.030
   654   6 C      3.808    -0.119    22.771     6.793
   655   1 H      0.925     0.087     1.905     2.158
   656   1 H      0.924     0.103     1.760     2.075
   657   6 C      2.744     0.287    22.131     7.703
   658   8 O      0.873    -0.519    24.191     6.595
   659   7 N      2.649    -0.287    27.395     7.773
   660   1 H      0.860     0.239     0.928     1.509
   661   1 H      0.860     0.243     0.910     1.494
   662   6 C      2.742     0.265    22.523     7.771
   663   8 O      0.858    -0.482    23.392     6.485
   664   7 N      2.685    -0.176    24.818     7.399
   665   1 H      0.860     0.236     0.940     1.519
   666   6 C      3.794     0.024    20.170     6.395
   667   1 H      0.924     0.068     2.110     2.271
   668   6 C      3.752    -0.133    23.127     6.858
   669   1 H      0.924     0.081     1.967     2.193
   670   1 H      0.924     0.076     2.025     2.226
   671   1 H      0.925     0.063     2.163     2.300
   672   6 C      2.753     0.257    22.679     7.798
   673   8 O      0.857    -0.530    24.462     6.631
   674   7 N      2.690    -0.165    24.566     7.361
   675   1 H      0.860     0.236     0.942     1.520
   676   6 C      3.804     0.014    20.339     6.420
   677   1 H      0.924     0.074     2.043     2.235
   678   6 C      3.756    -0.152    23.495     6.911
   679   1 H      0.925     0.089     1.891     2.151
   680   1 H      0.924     0.082     1.961     2.190
   681   1 H      0.925     0.082     1.962     2.191
   682   6 C      2.753     0.266    22.515     7.770
   683   8 O      0.858    -0.519    24.219     6.598
   684   7 N      2.694    -0.173    24.740     7.387
   685   1 H      0.860     0.249     0.889     1.477
   686   6 C      3.803     0.014    20.336     6.420
   687   1 H      0.925     0.113     1.671     2.022
   688   6 C      3.841    -0.084    22.064     6.682
   689   1 H      0.924     0.069     2.093     2.262
   690   1 H      0.925     0.073     2.054     2.241
   691   6 C      3.815    -0.101    22.419     6.739
   692   1 H      0.925     0.096     1.819     2.109
   693   1 H      0.924     0.084     1.936     2.176
   694   6 C      3.810    -0.109    22.577     6.764
   695   1 H      0.925     0.061     2.182     2.310
   696   1 H      0.925     0.078     1.998     2.211
   697   6 C      3.734    -0.062    21.781     6.661
   698   1 H      0.924     0.117     1.639     2.002
   699   1 H      0.925     0.122     1.595     1.975
   700   7 N      3.494    -0.139    23.990     7.275
   701   1 H      0.860     0.296     0.725     1.334
   702   1 H      0.860     0.293     0.734     1.342
   703   1 H      0.860     0.308     0.689     1.300
   704   6 C      2.771     0.270    22.439     7.758
   705   8 O      0.860    -0.510    24.017     6.571
   706   7 N      2.685    -0.194    25.218     7.458
   707   1 H      0.860     0.216     1.030     1.590
   708   6 C      3.784     0.018    20.282     6.415
   709   1 H      0.924     0.074     2.045     2.237
   710   6 C      3.681     0.065    19.693     6.356
   711   1 H      0.924     0.070     2.083     2.257
   712   1 H      0.925     0.058     2.228     2.334
   713   8 O      1.655    -0.476    22.384     6.387
   714   1 H      0.805     0.339     0.615     1.232
   715   6 C      2.760     0.260    22.621     7.789
   716   8 O      0.858    -0.543    24.769     6.673
   717   7 N      2.682    -0.189    25.094     7.440
   718   1 H      0.860     0.228     0.974     1.546
   719   6 C      3.775     0.037    19.980     6.369
   720   1 H      0.925     0.065     2.138     2.286
   721   6 C      3.795    -0.049    21.462     6.597
   722   1 H      0.925     0.045     2.385     2.415
   723   1 H      0.924     0.058     2.219     2.330
   724   6 C      3.791    -0.099    22.402     6.741
   725   1 H      0.925     0.032     2.553     2.498
   726   1 H      0.925     0.038     2.479     2.462
   727   6 C      2.683     0.369    20.751     7.455
   728   8 O      0.856    -0.645    27.262     7.000
   729   8 O      0.857    -0.613    26.433     6.893
   730   6 C      2.745     0.251    22.782     7.815
   731   8 O      0.856    -0.507    23.931     6.559
   732   7 N      2.679    -0.187    25.049     7.433
   733   1 H      0.860     0.218     1.018     1.580
   734   6 C      3.783     0.016    20.318     6.421
   735   1 H      0.925     0.091     1.866     2.136
   736   6 C      3.802    -0.088    22.178     6.705
   737   1 H      0.924     0.060     2.204     2.322
   738   1 H      0.925     0.087     1.910     2.161
   739   6 C      3.843    -0.020    20.909     6.505
   740   1 H      0.924     0.037     2.493     2.469
   741   6 C      3.758    -0.136    23.173     6.863
   742   1 H      0.925     0.062     2.176     2.307
   743   1 H      0.925     0.075     2.034     2.230
   744   1 H      0.924     0.036     2.497     2.471
   745   6 C      3.757    -0.142    23.285     6.880
   746   1 H      0.925     0.049     2.336     2.390
   747   1 H      0.925     0.071     2.072     2.251
   748   1 H      0.924     0.066     2.134     2.284
   749   6 C      2.740     0.282    22.218     7.718
   750   8 O      0.857    -0.449    22.677     6.385
   751   7 N      2.684    -0.221    25.823     7.547
   752   1 H      0.860     0.210     1.057     1.610
   753   6 C      3.790     0.049    19.771     6.333
   754   1 H      0.925     0.070     2.090     2.261
   755   6 C      3.809    -0.084    22.099     6.692
   756   1 H      0.924     0.026     2.639     2.540
   757   1 H      0.924     0.043     2.415     2.430
   758   6 C      2.687     0.375    20.646     7.436
   759   8 O      0.857    -0.665    27.762     7.064
   760   8 O      0.857    -0.630    26.866     6.949
   761   6 C      2.751     0.285    22.176     7.711
   762   8 O      0.862    -0.537    24.628     6.654
   763   7 N      2.688    -0.182    24.934     7.416
   764   1 H      0.860     0.196     1.127     1.663
   765   6 C      3.795     0.030    20.076     6.380
   766   1 H      0.924     0.075     2.036     2.231
   767   6 C      3.818    -0.065    21.740     6.636
   768   1 H      0.925     0.067     2.122     2.278
   769   1 H      0.925     0.056     2.248     2.345
   770   6 C      3.798    -0.063    21.721     6.636
   771   1 H      0.925     0.040     2.444     2.445
   772   1 H      0.924     0.050     2.320     2.382
   773   6 C      3.802    -0.076    21.953     6.671
   774   1 H      0.925     0.069     2.098     2.265
   775   1 H      0.925     0.055     2.254     2.348
   776   6 C      3.730    -0.046    21.488     6.617
   777   1 H      0.925     0.104     1.749     2.068
   778   1 H      0.925     0.119     1.622     1.992
   779   7 N      3.487    -0.161    24.465     7.346
   780   1 H      0.860     0.299     0.716     1.326
   781   1 H      0.860     0.307     0.694     1.305
   782   1 H      0.860     0.302     0.707     1.317
   783   6 C      2.769     0.266    22.511     7.770
   784   8 O      0.857    -0.544    24.773     6.673
   785   7 N      2.687    -0.170    24.676     7.378
   786   1 H      0.860     0.226     0.982     1.553
   787   6 C      3.790     0.011    20.405     6.433
   788   1 H      0.924     0.090     1.882     2.146
   789   6 C      3.750    -0.139    23.237     6.875
   790   1 H      0.924     0.075     2.036     2.231
   791   1 H      0.925     0.075     2.030     2.228
   792   1 H      0.925     0.090     1.881     2.145
   793   6 C      2.747     0.270    22.443     7.757
   794   8 O      0.858    -0.470    23.131     6.448
   795   7 N      2.685    -0.163    24.522     7.355
   796   1 H      0.860     0.182     1.200     1.716
   797   6 C      3.792     0.009    20.430     6.437
   798   1 H      0.925     0.107     1.720     2.051
   799   6 C      3.839    -0.027    21.026     6.523
   800   1 H      0.924     0.071     2.075     2.253
   801   6 C      3.742    -0.129    23.059     6.851
   802   1 H      0.925     0.064     2.152     2.294
   803   1 H      0.925     0.048     2.340     2.392
   804   1 H      0.925     0.055     2.258     2.350
   805   6 C      3.799    -0.059    21.642     6.624
   806   1 H      0.925     0.003     2.999     2.708
   807   1 H      0.925     0.048     2.340     2.392
   808   6 C      3.750    -0.119    22.846     6.817
   809   1 H      0.925     0.035     2.511     2.478
   810   1 H      0.924     0.060     2.204     2.322
   811   1 H      0.925     0.065     2.143     2.289
   812   6 C      2.745     0.265    22.521     7.770
   813   8 O      0.864    -0.480    23.351     6.479
   814   7 N      2.683    -0.180    24.898     7.411
   815   1 H      0.860     0.178     1.227     1.735
   816   6 C      3.729    -0.024    21.097     6.557
   817   1 H      0.924     0.104     1.748     2.067
   818   1 H      0.925     0.085     1.924     2.169
   819   6 C      2.753     0.286    22.145     7.706
   820   8 O      0.858    -0.517    24.162     6.590
   821   7 N      2.685    -0.140    24.044     7.283
   822   1 H      0.860     0.210     1.058     1.611
   823   6 C      3.787     0.022    20.215     6.404
   824   1 H      0.924     0.071     2.077     2.254
   825   6 C      3.797    -0.084    22.105     6.695
   826   1 H      0.925     0.071     2.074     2.252
   827   1 H      0.925     0.069     2.093     2.262
   828   6 C      3.795    -0.071    21.870     6.659
   829   1 H      0.925     0.060     2.203     2.321
   830   1 H      0.925     0.058     2.228     2.334
   831   6 C      3.734    -0.019    20.999     6.540
   832   1 H      0.925     0.082     1.957     2.188
   833   1 H      0.924     0.075     2.030     2.228
   834   7 N      2.711    -0.146    24.168     7.301
   835   1 H      0.860     0.228     0.975     1.547
   836   6 C      2.737     0.245    22.892     7.834
   837   7 N      2.687    -0.281    27.256     7.754
   838   1 H      0.860     0.238     0.932     1.512
   839   1 H      0.860     0.224     0.992     1.560
   840   7 N      2.693    -0.261    26.756     7.682
   841   1 H      0.860     0.247     0.894     1.481
   842   1 H      0.861     0.261     0.844     1.439
   843   6 C      2.751     0.282    22.222     7.719
   844   8 O      0.863    -0.490    23.559     6.508
   845   7 N      2.685    -0.183    24.957     7.420
   846   1 H      0.860     0.203     1.091     1.637
   847   6 C      3.771     0.030    20.095     6.388
   848   1 H      0.925     0.053     2.281     2.362
   849   6 C      3.799    -0.108    22.558     6.762
   850   1 H      0.924     0.099     1.791     2.093
   851   1 H      0.925     0.069     2.097     2.264
   852   6 C      2.742     0.288    22.125     7.702
   853   8 O      0.877    -0.501    23.786     6.539
   854   7 N      2.656    -0.278    27.184     7.743
   855   1 H      0.860     0.269     0.813     1.413
   856   1 H      0.860     0.222     0.999     1.566
   857   6 C      2.741     0.267    22.499     7.766
   858   8 O      0.858    -0.477    23.281     6.469
   859   7 N      2.695    -0.147    24.189     7.305
   860   1 H      0.860     0.196     1.127     1.663
   861   6 C      3.800    -0.000    20.591     6.461
   862   1 H      0.925     0.111     1.686     2.031
   863   6 C      3.792    -0.032    21.151     6.549
   864   1 H      0.925     0.070     2.088     2.259
   865   1 H      0.925     0.126     1.562     1.955
   866  16 S      1.922    -0.293   153.747    20.869
   867   1 H      0.923     0.163     1.310     1.790
   868   6 C      2.739     0.260    22.609     7.785
   869   8 O      0.859    -0.457    22.853     6.409
   870   7 N      2.685    -0.155    24.360     7.330
   871   1 H      0.860     0.190     1.158     1.685
   872   6 C      3.791     0.020    20.246     6.408
   873   1 H      0.925     0.090     1.883     2.146
   874   6 C      3.803    -0.108    22.556     6.762
   875   1 H      0.925     0.095     1.827     2.114
   876   1 H      0.924     0.069     2.098     2.265
   877   6 C      2.738     0.292    22.040     7.686
   878   8 O      0.868    -0.453    22.773     6.398
   879   7 N      2.645    -0.287    27.415     7.776
   880   1 H      0.860     0.249     0.885     1.474
   881   1 H      0.860     0.212     1.048     1.604
   882   6 C      2.745     0.275    22.351     7.741
   883   8 O      0.868    -0.447    22.639     6.380
   884   7 N      2.685    -0.167    24.621     7.370
   885   1 H      0.860     0.184     1.193     1.711
   886   6 C      3.735    -0.061    21.755     6.657
   887   1 H      0.924     0.135     1.496     1.913
   888   1 H      0.925     0.113     1.674     2.023
   889   6 C      2.754     0.276    22.324     7.737
   890   8 O      0.865    -0.478    23.296     6.471
   891   7 N      2.686    -0.158    24.417     7.339
   892   1 H      0.860     0.211     1.050     1.605
   893   6 C      3.794     0.003    20.531     6.452
   894   1 H      0.924     0.094     1.838     2.120
   895   6 C      3.855    -0.024    20.966     6.512
   896   1 H      0.925     0.068     2.110     2.272
   897   6 C      3.753    -0.127    22.996     6.838
   898   1 H      0.925     0.028     2.610     2.527
   899   1 H      0.925     0.061     2.192     2.315
   900   1 H      0.925     0.060     2.199     2.319
   901   6 C      3.756    -0.134    23.122     6.856
   902   1 H      0.925     0.063     2.161     2.299
   903   1 H      0.924     0.067     2.118     2.276
   904   1 H      0.924     0.023     2.689     2.564
   905   6 C      2.754     0.271    22.428     7.755
   906   8 O      0.860    -0.499    23.764     6.536
   907   7 N      2.687    -0.161    24.486     7.349
   908   1 H      0.860     0.223     0.997     1.564
   909   6 C      3.797     0.014    20.351     6.423
   910   1 H      0.925     0.067     2.121     2.277
   911   6 C      3.858    -0.031    21.093     6.532
   912   1 H      0.925     0.046     2.371     2.408
   913   6 C      3.757    -0.126    22.965     6.833
   914   1 H      0.925     0.064     2.155     2.296
   915   1 H      0.925     0.050     2.325     2.385
   916   1 H      0.924     0.054     2.270     2.356
   917   6 C      3.808    -0.070    21.824     6.650
   918   1 H      0.924     0.040     2.455     2.450
   919   1 H      0.925     0.060     2.201     2.320
   920   6 C      3.752    -0.118    22.813     6.811
   921   1 H      0.924     0.024     2.678     2.559
   922   1 H      0.924     0.044     2.402     2.424
   923   1 H      0.925     0.052     2.301     2.372
   924   6 C      2.749     0.261    22.601     7.784
   925   8 O      0.856    -0.470    23.122     6.447
   926   7 N      2.684    -0.156    24.384     7.334
   927   1 H      0.860     0.212     1.046     1.602
   928   6 C      3.778     0.011    20.408     6.436
   929   1 H      0.925     0.101     1.780     2.086
   930   6 C      3.710     0.100    19.058     6.239
   931   1 H      0.924     0.049     2.331     2.388
   932   6 C      3.748    -0.137    23.196     6.869
   933   1 H      0.925     0.072     2.063     2.246
   934   1 H      0.925     0.055     2.253     2.347
   935   1 H      0.924     0.069     2.097     2.264
   936   8 O      1.650    -0.491    22.699     6.431
   937   1 H      0.805     0.303     0.712     1.325
   938   6 C      2.740     0.269    22.456     7.759
   939   8 O      0.862    -0.447    22.638     6.379
   940   7 N      2.687    -0.199    25.327     7.474
   941   1 H      0.860     0.199     1.109     1.650
   942   6 C      3.786     0.008    20.456     6.442
   943   1 H      0.924     0.110     1.698     2.038
   944   6 C      3.802    -0.085    22.118     6.696
   945   1 H      0.924     0.056     2.249     2.345
   946   1 H      0.925     0.091     1.868     2.137
   947   6 C      3.802    -0.090    22.219     6.711
   948   1 H      0.924     0.074     2.044     2.236
   949   1 H      0.925     0.054     2.274     2.358
   950   6 C      3.799    -0.103    22.470     6.749
   951   1 H      0.925     0.083     1.950     2.184
   952   1 H      0.925     0.101     1.776     2.084
   953   6 C      3.735    -0.064    21.827     6.668
   954   1 H      0.924     0.134     1.505     1.918
   955   1 H      0.925     0.119     1.619     1.990
   956   7 N      3.488    -0.139    23.991     7.275
   957   1 H      0.860     0.291     0.742     1.349
   958   1 H      0.860     0.305     0.699     1.310
   959   1 H      0.860     0.287     0.752     1.358
   960   6 C      2.753     0.279    22.270     7.728
   961   8 O      0.862    -0.465    23.027     6.434
   962   7 N      2.692    -0.190    25.129     7.445
   963   1 H      0.860     0.207     1.070     1.620
   964   6 C      3.785     0.036    19.977     6.366
   965   1 H      0.925     0.064     2.152     2.294
   966   6 C      3.788    -0.100    22.419     6.744
   967   1 H      0.925     0.039     2.462     2.454
   968   1 H      0.924     0.059     2.206     2.323
   969   6 C      2.689     0.367    20.782     7.461
   970   8 O      0.857    -0.649    27.345     7.011
   971   8 O      0.857    -0.662    27.680     7.054
   972   6 C      2.753     0.272    22.400     7.750
   973   8 O      0.859    -0.519    24.204     6.596
   974   7 N      2.689    -0.182    24.953     7.419
   975   1 H      0.860     0.218     1.017     1.580
   976   6 C      3.776     0.012    20.401     6.435
   977   1 H      0.925     0.069     2.101     2.267
   978   6 C      3.802    -0.070    21.840     6.654
   979   1 H      0.924     0.060     2.203     2.321
   980   1 H      0.925     0.067     2.117     2.275
   981   6 C      3.803    -0.093    22.272     6.719
   982   1 H      0.925     0.041     2.431     2.438
   983   1 H      0.924     0.037     2.491     2.468
   984   6 C      2.690     0.375    20.649     7.437
   985   8 O      0.857    -0.585    25.747     6.803
   986   8 O      0.860    -0.638    27.068     6.975
   987   6 C      2.733     0.261    22.594     7.782
   988   8 O      0.858    -0.465    23.018     6.432
   989   7 N      2.680    -0.173    24.742     7.388
   990   1 H      0.860     0.228     0.973     1.545
   991   6 C      3.778     0.012    20.390     6.433
   992   1 H      0.924     0.088     1.898     2.154
   993   6 C      3.748    -0.139    23.248     6.877
   994   1 H      0.925     0.102     1.768     2.079
   995   1 H      0.925     0.070     2.083     2.257
   996   1 H      0.925     0.073     2.053     2.241
   997   6 C      2.739     0.267    22.496     7.766
   998   8 O      0.859    -0.504    23.866     6.550
   999   7 N      2.680    -0.188    25.077     7.437
  1000   1 H      0.860     0.228     0.973     1.545
  1001   6 C      3.770     0.031    20.080     6.386
  1002   1 H      0.924     0.072     2.063     2.246
  1003   6 C      3.795    -0.055    21.564     6.613
  1004   1 H      0.925     0.032     2.561     2.502
  1005   1 H      0.925     0.091     1.869     2.138
  1006   6 C      3.804    -0.085    22.118     6.695
  1007   1 H      0.924     0.012     2.857     2.643
  1008   1 H      0.925     0.042     2.425     2.435
  1009   6 C      2.691     0.356    20.964     7.493
  1010   8 O      0.856    -0.637    27.034     6.971
  1011   8 O      0.857    -0.576    25.546     6.776
  1012   6 C      2.739     0.256    22.683     7.798
  1013   8 O      0.855    -0.550    24.926     6.694
  1014   7 N      2.679    -0.165    24.581     7.363
  1015   1 H      0.860     0.218     1.017     1.580
  1016   6 C      3.785     0.009    20.446     6.441
  1017   1 H      0.925     0.071     2.078     2.254
  1018   6 C      3.805    -0.080    22.026     6.681
  1019   1 H      0.925     0.070     2.081     2.256
  1020   1 H      0.925     0.067     2.119     2.277
  1021   6 C      3.809    -0.081    22.035     6.682
  1022   1 H      0.924     0.059     2.216     2.328
  1023   1 H      0.924     0.059     2.216     2.328
  1024   6 C      3.811    -0.100    22.393     6.736
  1025   1 H      0.925     0.085     1.926     2.170
  1026   1 H      0.925     0.080     1.982     2.202
  1027   6 C      3.739    -0.058    21.706     6.648
  1028   1 H      0.925     0.120     1.612     1.985
  1029   1 H      0.925     0.118     1.630     1.997
  1030   7 N      3.488    -0.150    24.224     7.310
  1031   1 H      0.860     0.310     0.685     1.297
  1032   1 H      0.860     0.300     0.713     1.323
  1033   1 H      0.860     0.293     0.736     1.343
  1034   6 C      2.754     0.275    22.349     7.741
  1035   8 O      0.863    -0.494    23.649     6.520
  1036   7 N      2.695    -0.194    25.217     7.458
  1037   1 H      0.860     0.244     0.906     1.491
  1038   6 C      3.809     0.023    20.179     6.394
  1039   1 H      0.924     0.080     1.978     2.199
  1040   6 C      3.813    -0.088    22.162     6.701
  1041   1 H      0.925     0.064     2.154     2.295
  1042   1 H      0.925     0.066     2.125     2.280
  1043   6 C      3.846    -0.032    21.106     6.535
  1044   1 H      0.925     0.048     2.343     2.394
  1045   6 C      3.750    -0.139    23.242     6.876
  1046   1 H      0.925     0.071     2.077     2.254
  1047   1 H      0.925     0.054     2.272     2.357
  1048   1 H      0.924     0.066     2.131     2.283
  1049   6 C      3.749    -0.125    22.957     6.834
  1050   1 H      0.924     0.060     2.194     2.316
  1051   1 H      0.925     0.042     2.428     2.437
  1052   1 H      0.924     0.029     2.602     2.523
  1053   6 C      2.759     0.287    22.145     7.706
  1054   8 O      0.864    -0.475    23.242     6.464
  1055   7 N      2.690    -0.213    25.645     7.521
  1056   1 H      0.860     0.213     1.043     1.600
  1057   6 C      3.789     0.035    20.000     6.369
  1058   1 H      0.925     0.066     2.127     2.281
  1059   6 C      3.808    -0.074    21.905     6.662
  1060   1 H      0.925     0.043     2.411     2.428
  1061   1 H      0.925     0.079     1.994     2.208
  1062   6 C      2.979     0.011    27.767     8.644
  1063   6 C      2.919    -0.035    28.877     8.812
  1064   1 H      0.926     0.017     2.781     2.608
  1065   6 C      2.914    -0.026    28.643     8.776
  1066   1 H      0.926     0.032     2.563     2.504
  1067   6 C      2.914    -0.038    28.950     8.823
  1068   1 H      0.926     0.048     2.348     2.396
  1069   6 C      2.917    -0.043    29.080     8.843
  1070   1 H      0.926     0.065     2.146     2.291
  1071   6 C      2.907    -0.046    29.135     8.851
  1072   1 H      0.926     0.049     2.331     2.388
  1073   6 C      2.761     0.270    22.439     7.757
  1074   8 O      0.858    -0.536    24.589     6.648
  1075   7 N      2.692    -0.164    24.548     7.359
  1076   1 H      0.860     0.229     0.970     1.543
  1077   6 C      3.805     0.034    20.002     6.367
  1078   1 H      0.925     0.085     1.929     2.172
  1079   6 C      3.808    -0.103    22.463     6.747
  1080   1 H      0.925     0.060     2.197     2.318
  1081   1 H      0.924     0.087     1.906     2.159
  1082   6 C      2.741     0.294    22.011     7.682
  1083   8 O      0.863    -0.471    23.159     6.452
  1084   7 N      2.639    -0.294    27.587     7.801
  1085   1 H      0.860     0.250     0.882     1.471
  1086   1 H      0.860     0.222     0.999     1.566
  1087   6 C      2.749     0.283    22.213     7.717
  1088   8 O      0.863    -0.517    24.170     6.592
  1089   7 N      2.688    -0.164    24.555     7.360
  1090   1 H      0.860     0.202     1.098     1.641
  1091   6 C      3.764     0.009    20.473     6.449
  1092   1 H      0.924     0.096     1.820     2.110
  1093   6 C      3.801    -0.057    21.602     6.617
  1094   1 H      0.925     0.066     2.129     2.282
  1095   1 H      0.925     0.049     2.335     2.390
  1096   6 C      3.800    -0.110    22.608     6.770
  1097   1 H      0.925     0.077     2.010     2.217
  1098   1 H      0.925     0.077     2.014     2.220
  1099   6 C      2.742     0.295    21.998     7.679
  1100   8 O      0.865    -0.475    23.235     6.463
  1101   7 N      2.643    -0.292    27.535     7.793
  1102   1 H      0.860     0.242     0.917     1.500
  1103   1 H      0.860     0.224     0.992     1.561
  1104   6 C      2.729     0.264    22.548     7.774
  1105   8 O      0.857    -0.500    23.777     6.538
  1106   7 N      2.682    -0.191    25.149     7.448
  1107   1 H      0.860     0.212     1.045     1.601
  1108   6 C      3.786     0.043    19.868     6.349
  1109   1 H      0.924     0.085     1.932     2.173
  1110   6 C      3.807    -0.079    22.007     6.678
  1111   1 H      0.924     0.051     2.310     2.377
  1112   1 H      0.925     0.049     2.328     2.386
  1113   6 C      2.687     0.355    20.971     7.494
  1114   8 O      0.856    -0.622    26.676     6.925
  1115   8 O      0.856    -0.608    26.311     6.877
  1116   6 C      2.755     0.273    22.389     7.748
  1117   8 O      0.864    -0.464    23.007     6.431
  1118   7 N      2.684    -0.198    25.309     7.472
  1119   1 H      0.860     0.198     1.115     1.654
  1120   6 C      3.768     0.003    20.569     6.464
  1121   1 H      0.924     0.091     1.870     2.139
  1122   6 C      3.836    -0.024    20.973     6.515
  1123   1 H      0.924     0.073     2.050     2.239
  1124   6 C      3.758    -0.118    22.806     6.808
  1125   1 H      0.925     0.066     2.132     2.284
  1126   1 H      0.924     0.032     2.551     2.498
  1127   1 H      0.924     0.056     2.247     2.344
  1128   6 C      3.758    -0.118    22.816     6.810
  1129   1 H      0.924     0.052     2.297     2.370
  1130   1 H      0.925     0.023     2.695     2.567
  1131   1 H      0.925     0.068     2.112     2.273
  1132   6 C      2.739     0.263    22.558     7.776
  1133   8 O      0.858    -0.456    22.829     6.406
  1134   7 N      2.704    -0.178    24.850     7.404
  1135   1 H      0.860     0.183     1.196     1.713
  1136   6 C      3.796     0.041    19.898     6.352
  1137   1 H      0.924     0.077     2.010     2.217
  1138   6 C      3.826    -0.087    22.138     6.695
  1139   1 H      0.925     0.026     2.637     2.540
  1140   1 H      0.925     0.044     2.391     2.418
  1141   6 C      2.694     0.364    20.819     7.468
  1142   8 O      0.856    -0.605    26.236     6.867
  1143   8 O      0.857    -0.661    27.676     7.053
  1144   6 C      2.752     0.271    22.423     7.754
  1145   8 O      0.860    -0.458    22.875     6.412
  1146   7 N      2.689    -0.167    24.618     7.369
  1147   1 H      0.860     0.176     1.235     1.741
  1148   6 C      3.790     0.019    20.272     6.412
  1149   1 H      0.925     0.098     1.808     2.103
  1150   6 C      3.751    -0.137    23.193     6.868
  1151   1 H      0.924     0.077     2.016     2.220
  1152   1 H      0.925     0.088     1.896     2.153
  1153   1 H      0.925     0.047     2.363     2.404
  1154   6 C      2.746     0.273    22.379     7.746
  1155   8 O      0.859    -0.440    22.500     6.360
  1156   7 N      2.680    -0.222    25.849     7.551
  1157   1 H      0.860     0.211     1.052     1.606
  1158   6 C      3.790     0.020    20.241     6.407
  1159   1 H      0.924     0.064     2.158     2.297
  1160   6 C      3.753    -0.129    23.027     6.843
  1161   1 H      0.924     0.069     2.097     2.265
  1162   1 H      0.925     0.053     2.277     2.360
[...]
  2291  N   3.462        C 2289 1.291    C 2293 0.978    H 2292 0.924    O 2290 0.192
  2292  H   0.960        N 2291 0.924
  2293  C   3.958        C 2295 0.980    N 2291 0.978    H 2294 0.951    C 2313 0.912
  2294  H   0.991        C 2293 0.951
  2295  C   3.989        C 2298 1.021    C 2293 0.980    H 2297 0.967    H 2296 0.952
  2296  H   0.994        C 2295 0.952
  2297  H   0.994        C 2295 0.967
  2298  C   3.990        C 2295 1.021    C 2301 0.993    H 2299 0.970    H 2300 0.966
  2299  H   0.995        C 2298 0.970
  2300  H   0.996        C 2298 0.966
  2301  C   3.931        C 2298 0.993    H 2303 0.968    H 2302 0.967    N 2304 0.942
  2302  H   0.994        C 2301 0.967
  2303  H   0.991        C 2301 0.968
  2304  N   3.438        C 2306 1.330    C 2301 0.942    H 2305 0.909    N 2307 0.107
  2305  H   0.944        N 2304 0.909
  2306  C   3.974        N 2307 1.341    N 2304 1.330    N 2310 1.272
  2307  N   3.395        C 2306 1.341    H 2309 0.920    H 2308 0.854    N 2304 0.107
  2308  H   0.935        N 2307 0.854
  2309  H   0.946        N 2307 0.920
  2310  N   3.335        C 2306 1.272    H 2311 0.900    H 2312 0.888
  2311  H   0.950        N 2310 0.900
  2312  H   0.940        N 2310 0.888
  2313  C   3.952        O 2314 1.647    N 2315 1.310    C 2293 0.912
  2314  O   1.995        C 2313 1.647    N 2315 0.205
  2315  N   3.471        C 2313 1.310    C 2317 0.974    H 2316 0.880    O 2314 0.205
  2316  H   0.947        N 2315 0.880
  2317  C   3.959        C 2319 0.998    N 2315 0.974    H 2318 0.956    C 2323 0.927
  2318  H   0.993        C 2317 0.956
  2319  C   3.975        C 2317 0.998    H 2320 0.977    H 2322 0.976    H 2321 0.970
  2320  H   0.996        C 2319 0.977
  2321  H   0.993        C 2319 0.970
  2322  H   0.994        C 2319 0.976
  2323  C   3.949        O 2324 1.551    N 2325 1.384    C 2317 0.927
  2324  O   1.922        C 2323 1.551    N 2325 0.196
  2325  N   3.519        C 2323 1.384    C 2327 0.964    H 2326 0.889    O 2324 0.196
  2326  H   0.943        N 2325 0.889
  2327  C   3.955        C 2329 0.975    N 2325 0.964    C 2345 0.955    H 2328 0.941
  2328  H   0.989        C 2327 0.941
  2329  C   3.978        C 2332 1.001    C 2327 0.975    H 2330 0.974    H 2331 0.963
  2330  H   0.995        C 2329 0.974
  2331  H   0.991        C 2329 0.963
  2332  C   3.989        C 2335 1.006    C 2329 1.001    H 2334 0.974    H 2333 0.972
  2333  H   0.994        C 2332 0.972
  2334  H   0.997        C 2332 0.974
  2335  C   3.982        C 2338 1.009    C 2332 1.006    H 2337 0.971    H 2336 0.964
  2336  H   0.992        C 2335 0.964
  2337  H   0.994        C 2335 0.971
  2338  C   3.900        C 2335 1.009    H 2339 0.965    H 2340 0.961    N 2341 0.945
  2339  H   0.985        C 2338 0.965
  2340  H   0.983        C 2338 0.961
  2341  N   3.648        C 2338 0.945    H 2343 0.895    H 2342 0.894    H 2344 0.894
  2342  H   0.910        N 2341 0.894
  2343  H   0.912        N 2341 0.895
  2344  H   0.914        N 2341 0.894
  2345  C   3.942        O 2346 1.570    N 2347 1.317    C 2327 0.955
  2346  O   1.937        C 2345 1.570    N 2347 0.186
  2347  N   3.489        C 2345 1.317    C 2349 0.985    H 2348 0.914    O 2346 0.186
  2348  H   0.950        N 2347 0.914
  2349  C   3.965        N 2347 0.985    C 2351 0.974    H 2350 0.950    C 2369 0.942
  2350  H   0.993        C 2349 0.950
  2351  C   3.983        C 2354 1.006    C 2349 0.974    H 2352 0.973    H 2353 0.969
  2352  H   0.995        C 2351 0.973
  2353  H   0.993        C 2351 0.969
  2354  C   3.986        C 2351 1.006    C 2357 1.002    H 2356 0.974    H 2355 0.959
  2355  H   0.994        C 2354 0.959
  2356  H   0.996        C 2354 0.974
  2357  C   3.945        C 2354 1.002    H 2358 0.964    H 2359 0.963    N 2360 0.962
  2358  H   0.991        C 2357 0.964
  2359  H   0.994        C 2357 0.963
  2360  N   3.452        C 2362 1.313    C 2357 0.962    H 2361 0.911    N 2366 0.106
  2361  H   0.950        N 2360 0.911
  2362  C   3.978        N 2366 1.323    N 2360 1.313    N 2363 1.312
  2363  N   3.371        C 2362 1.312    H 2365 0.911    H 2364 0.910
  2364  H   0.935        N 2363 0.910
  2365  H   0.941        N 2363 0.911
  2366  N   3.393        C 2362 1.323    H 2367 0.914    H 2368 0.880    N 2360 0.106
  2367  H   0.937        N 2366 0.914
  2368  H   0.942        N 2366 0.880
  2369  C   3.948        O 2370 1.575    N 2371 1.339    C 2349 0.942
  2370  O   1.924        C 2369 1.575    N 2371 0.195
  2371  N   3.509        C 2369 1.339    C 2373 0.999    H 2372 0.896    O 2370 0.195
  2372  H   0.947        N 2371 0.896
  2373  C   3.957        N 2371 0.999    C 2375 0.956    H 2374 0.950    C 2385 0.904
  2374  H   0.995        C 2373 0.950
  2375  C   3.987        C 2377 1.024    C 2381 0.996    H 2376 0.962    C 2373 0.956
  2376  H   0.996        C 2375 0.962
  2377  C   3.990        C 2375 1.024    H 2378 0.979    H 2379 0.978    H 2380 0.975
  2378  H   0.996        C 2377 0.979
  2379  H   0.998        C 2377 0.978
  2380  H   0.998        C 2377 0.975
  2381  C   3.990        C 2375 0.996    H 2383 0.985    H 2384 0.985    H 2382 0.980
  2382  H   0.997        C 2381 0.980
  2383  H   0.998        C 2381 0.985
  2384  H   0.997        C 2381 0.985
  2385  C   3.948        O 2386 1.592    N 2387 1.374    C 2373 0.904
  2386  O   1.924        C 2385 1.592    N 2387 0.199
  2387  N   3.480        C 2385 1.374    C 2389 0.931    H 2388 0.874    O 2386 0.199
  2388  H   0.943        N 2387 0.874
  2389  C   3.948        C 2391 0.971    C 2404 0.948    H 2390 0.946    N 2387 0.931
  2390  H   0.992        C 2389 0.946
  2391  C   3.985        C 2393 1.001    C 2397 0.998    C 2389 0.971    H 2392 0.962
  2392  H   0.996        C 2391 0.962
  2393  C   3.983        C 2391 1.001    H 2395 0.983    H 2396 0.982    H 2394 0.973
  2394  H   0.995        C 2393 0.973
  2395  H   0.998        C 2393 0.983
  2396  H   0.998        C 2393 0.982
  2397  C   3.990        C 2400 1.009    C 2391 0.998    H 2399 0.972    H 2398 0.971
  2398  H   0.997        C 2397 0.971
  2399  H   0.997        C 2397 0.972
  2400  C   3.990        C 2397 1.009    H 2403 0.986    H 2401 0.986    H 2402 0.985
  2401  H   0.998        C 2400 0.986
  2402  H   0.998        C 2400 0.985
  2403  H   0.998        C 2400 0.986
  2404  C   3.947        O 2405 1.616    N 2406 1.312    C 2389 0.948
  2405  O   1.953        C 2404 1.616    N 2406 0.195
  2406  N   3.455        C 2404 1.312    C 2408 0.964    H 2407 0.899    O 2405 0.195
  2407  H   0.946        N 2406 0.899
  2408  C   3.963        N 2406 0.964    H 2409 0.954    C 2410 0.949    C 2418 0.934
  2409  H   0.991        C 2408 0.954
  2410  C   3.963        C 2412 1.005    O 2416 0.996    H 2411 0.964    C 2408 0.949
  2411  H   0.998        C 2410 0.964
  2412  C   3.988        C 2410 1.005    H 2415 0.984    H 2414 0.980    H 2413 0.978
  2413  H   1.000        C 2412 0.978
  2414  H   0.995        C 2412 0.980
  2415  H   0.997        C 2412 0.984
  2416  O   1.929        C 2410 0.996    H 2417 0.832
  2417  H   0.879        O 2416 0.832
  2418  C   3.948        O 2419 1.602    N 2420 1.344    C 2408 0.934
  2419  O   1.945        C 2418 1.602    N 2420 0.196
  2420  N   3.477        C 2418 1.344    C 2422 0.943    H 2421 0.903    O 2419 0.196
  2421  H   0.952        N 2420 0.903
  2422  C   3.957        C 2424 0.999    H 2423 0.950    N 2420 0.943    C 2432 0.912
  2423  H   0.992        C 2422 0.950
  2424  C   3.958        C 2422 0.999    C 2426 0.997    O 2430 0.966    H 2425 0.961
  2425  H   0.999        C 2424 0.961
  2426  C   3.983        C 2424 0.997    H 2428 0.981    H 2427 0.979    H 2429 0.979
  2427  H   0.996        C 2426 0.979
  2428  H   0.996        C 2426 0.981
  2429  H   0.997        C 2426 0.979
  2430  O   1.924        C 2424 0.966    H 2431 0.867
  2431  H   0.902        O 2430 0.867
  2432  C   3.952        O 2433 1.630    N 2434 1.333    C 2422 0.912
  2433  O   1.960        C 2432 1.630    N 2434 0.200
  2434  N   3.480        C 2432 1.333    C 2436 0.952    H 2435 0.899    O 2433 0.200
  2435  H   0.948        N 2434 0.899
  2436  C   3.950        C 2438 0.969    N 2434 0.952    H 2437 0.948    C 2452 0.936
  2437  H   0.992        C 2436 0.948
  2438  C   3.979        C 2441 1.009    C 2436 0.969    H 2440 0.966    H 2439 0.952
  2439  H   0.992        C 2438 0.952
  2440  H   0.995        C 2438 0.966
  2441  C   3.985        C 2442 1.462    C 2450 1.363    C 2438 1.009    C 2446 0.105
  2442  C   3.989        C 2441 1.462    C 2444 1.407    H 2443 0.957
  2443  H   0.998        C 2442 0.957
  2444  C   3.991        C 2446 1.451    C 2442 1.407    H 2445 0.972    C 2450 0.129
  2445  H   0.999        C 2444 0.972
  2446  C   3.990        C 2444 1.451    C 2448 1.433    H 2447 0.967    C 2441 0.105
  2447  H   0.998        C 2446 0.967
  2448  C   3.990        C 2450 1.464    C 2446 1.433    H 2449 0.964
  2449  H   0.997        C 2448 0.964
  2450  C   3.986        C 2448 1.464    C 2441 1.363    H 2451 0.970    C 2444 0.129
  2451  H   0.998        C 2450 0.970
  2452  C   3.953        O 2453 1.593    N 2454 1.340    C 2436 0.936
  2453  O   1.931        C 2452 1.593    N 2454 0.195
  2454  N   3.493        C 2452 1.340    C 2456 0.971    H 2455 0.905    O 2453 0.195
  2455  H   0.954        N 2454 0.905
  2456  C   3.953        C 2458 0.980    N 2454 0.971    H 2457 0.946    C 2476 0.923
  2457  H   0.989        C 2456 0.946
  2458  C   3.983        C 2461 1.002    C 2456 0.980    H 2460 0.970    H 2459 0.964
  2459  H   0.995        C 2458 0.964
  2460  H   0.995        C 2458 0.970
  2461  C   3.981        C 2464 1.003    C 2458 1.002    H 2463 0.972    H 2462 0.968
  2462  H   0.990        C 2461 0.968
  2463  H   0.993        C 2461 0.972
  2464  C   3.938        C 2461 1.003    H 2465 0.967    H 2466 0.959    N 2467 0.956
  2465  H   0.992        C 2464 0.967
  2466  H   0.988        C 2464 0.959
  2467  N   3.447        C 2469 1.319    C 2464 0.956    H 2468 0.910    N 2473 0.105
  2468  H   0.954        N 2467 0.910
  2469  C   3.978        N 2473 1.328    N 2467 1.319    N 2470 1.306
  2470  N   3.378        C 2469 1.306    H 2471 0.917    H 2472 0.909    N 2473 0.101
  2471  H   0.936        N 2470 0.917
  2472  H   0.932        N 2470 0.909
  2473  N   3.406        C 2469 1.328    H 2475 0.923    H 2474 0.910    N 2467 0.105    N 2470 0.101
  2474  H   0.933        N 2473 0.910
  2475  H   0.948        N 2473 0.923
  2476  C   3.946        O 2477 1.638    N 2478 1.306    C 2456 0.923
  2477  O   1.959        C 2476 1.638    N 2478 0.191
  2478  N   3.464        C 2476 1.306    C 2480 0.987    H 2479 0.892    O 2477 0.191
  2479  H   0.944        N 2478 0.892
  2480  C   3.971        N 2478 0.987    C 2490 0.957    C 2482 0.955    H 2481 0.947
  2481  H   0.992        C 2480 0.947
  2482  C   3.956        O 2488 0.995    C 2484 0.986    H 2483 0.961    C 2480 0.955
  2483  H   0.998        C 2482 0.961
  2484  C   3.985        C 2482 0.986    H 2486 0.984    H 2487 0.983    H 2485 0.974
  2485  H   0.993        C 2484 0.974
  2486  H   0.996        C 2484 0.984
  2487  H   0.997        C 2484 0.983
  2488  O   1.968        C 2482 0.995    H 2489 0.878
  2489  H   0.902        O 2488 0.878
  2490  C   3.951        O 2491 1.608    N 2492 1.290    C 2480 0.957
  2491  O   1.907        C 2490 1.608    N 2492 0.189
  2492  N   3.467        C 2490 1.290    C 2494 1.006    H 2493 0.907    O 2491 0.189
  2493  H   0.950        N 2492 0.907
  2494  C   3.958        N 2492 1.006    H 2495 0.946    C 2497 0.944    H 2496 0.942
  2495  H   0.989        C 2494 0.946
  2496  H   0.990        C 2494 0.942
  2497  C   3.955        O 2498 1.612    N 2499 1.334    C 2494 0.944
  2498  O   1.931        C 2497 1.612    N 2499 0.194
  2499  N   3.486        C 2497 1.334    C 2501 0.968    H 2500 0.907    O 2498 0.194
  2500  H   0.955        N 2499 0.907
  2501  C   3.972        N 2499 0.968    C 2503 0.966    C 2511 0.949    H 2502 0.945
  2502  H   0.991        C 2501 0.945
  2503  C   3.955        C 2505 1.004    O 2509 0.968    C 2501 0.966    H 2504 0.962
  2504  H   0.998        C 2503 0.962
  2505  C   3.989        C 2503 1.004    H 2506 0.983    H 2508 0.983    H 2507 0.979
  2506  H   0.997        C 2505 0.983
  2507  H   0.995        C 2505 0.979
  2508  H   0.996        C 2505 0.983
  2509  O   1.917        C 2503 0.968    H 2510 0.874
  2510  H   0.890        O 2509 0.874
  2511  C   3.955        O 2512 1.681    N 2513 1.242    C 2501 0.949
  2512  O   2.005        C 2511 1.681    N 2513 0.201
  2513  N   3.425        C 2511 1.242    C 2515 0.978    H 2514 0.927    O 2512 0.201
  2514  H   0.957        N 2513 0.927
  2515  C   3.952        N 2513 0.978    C 2517 0.956    C 2535 0.935    H 2516 0.934
  2516  H   0.992        C 2515 0.934
  2517  C   3.979        C 2520 1.038    H 2519 0.969    C 2515 0.956    H 2518 0.949
  2518  H   0.995        C 2517 0.949
  2519  H   0.996        C 2517 0.969
  2520  C   3.976        C 2521 1.589    C 2534 1.170    C 2517 1.038
  2521  C   3.953        C 2520 1.589    N 2523 1.191    H 2522 0.966
  2522  H   0.996        C 2521 0.966
  2523  N   3.542        C 2525 1.193    C 2521 1.191    H 2524 0.928
  2524  H   0.959        N 2523 0.928
  2525  C   3.964        C 2526 1.340    C 2534 1.242    N 2523 1.193
  2526  C   3.981        C 2528 1.462    C 2525 1.340    H 2527 0.965    C 2532 0.118
  2527  H   0.995        C 2526 0.965
  2528  C   3.986        C 2526 1.462    C 2530 1.395    H 2529 0.971
  2529  H   0.997        C 2528 0.971
  2530  C   3.986        C 2532 1.468    C 2528 1.395    H 2531 0.968
  2531  H   0.999        C 2530 0.968
  2532  C   3.991        C 2530 1.468    C 2534 1.360    H 2533 0.966    C 2526 0.118
  2533  H   1.000        C 2532 0.966
  2534  C   3.982        C 2532 1.360    C 2525 1.242    C 2520 1.170
  2535  C   3.937        O 2536 1.653    N 2537 1.252    C 2515 0.935
  2536  O   1.998        C 2535 1.653    N 2537 0.191
  2537  N   3.438        C 2535 1.252    C 2539 0.990    H 2538 0.915    O 2536 0.191
  2538  H   0.960        N 2537 0.915
  2539  C   3.963        N 2537 0.990    C 2541 0.980    H 2540 0.940    C 2547 0.935
  2540  H   0.994        C 2539 0.940
  2541  C   3.973        C 2539 0.980    H 2542 0.973    H 2543 0.960    C 2544 0.894
  2542  H   1.000        C 2541 0.973
  2543  H   0.998        C 2541 0.960
  2544  C   3.942        O 2545 1.521    O 2546 1.509    C 2541 0.894
  2545  O   1.821        C 2544 1.521    O 2546 0.224
  2546  O   1.810        C 2544 1.509    O 2545 0.224
  2547  C   3.943        O 2548 1.635    N 2549 1.279    C 2539 0.935
  2548  O   1.948        C 2547 1.635    N 2549 0.186
  2549  N   3.459        C 2547 1.279    C 2551 0.980    H 2550 0.930    O 2548 0.186
  2550  H   0.964        N 2549 0.930
  2551  C   3.947        C 2553 1.000    N 2549 0.980    H 2552 0.949    C 2557 0.889
  2552  H   0.992        C 2551 0.949
  2553  C   3.981        C 2551 1.000    H 2554 0.980    H 2556 0.968    H 2555 0.967
  2554  H   0.995        C 2553 0.980
  2555  H   0.994        C 2553 0.967
  2556  H   0.993        C 2553 0.968
  2557  C   3.944        O 2558 1.653    N 2559 1.319    C 2551 0.889
  2558  O   1.974        C 2557 1.653    N 2559 0.199
  2559  N   3.474        C 2557 1.319    C 2561 0.958    H 2560 0.897    O 2558 0.199
  2560  H   0.959        N 2559 0.897
  2561  C   3.955        C 2563 0.975    N 2559 0.958    H 2562 0.951    C 2578 0.924
  2562  H   0.994        C 2561 0.951
  2563  C   3.987        C 2566 1.001    C 2561 0.975    H 2565 0.967    H 2564 0.964
  2564  H   0.996        C 2563 0.964
  2565  H   0.996        C 2563 0.967
  2566  C   3.986        C 2576 1.446    C 2567 1.376    C 2563 1.001
  2567  C   3.990        C 2569 1.482    C 2566 1.376    H 2568 0.967    C 2574 0.107
  2568  H   0.999        C 2567 0.967
  2569  C   3.983        C 2567 1.482    C 2571 1.321    H 2570 0.967    C 2576 0.105
  2570  H   0.996        C 2569 0.967
  2571  C   3.945        C 2574 1.376    C 2569 1.321    O 2572 1.118
  2572  O   2.126        C 2571 1.118    H 2573 0.784
  2573  H   0.878        O 2572 0.784
  2574  C   3.987        C 2576 1.422    C 2571 1.376    H 2575 0.966    C 2567 0.107
  2575  H   0.998        C 2574 0.966
  2576  C   3.992        C 2566 1.446    C 2574 1.422    H 2577 0.962    C 2569 0.105
  2577  H   0.999        C 2576 0.962
  2578  C   3.945        O 2579 1.620    N 2580 1.329    C 2561 0.924
  2579  O   1.939        C 2578 1.620    N 2580 0.202
  2580  N   3.489        C 2578 1.329    C 2582 0.966    H 2581 0.921    O 2579 0.202
  2581  H   0.960        N 2580 0.921
  2582  C   3.952        C 2584 0.970    N 2580 0.966    H 2583 0.952    C 2600 0.938
  2583  H   0.998        C 2582 0.952
  2584  C   3.990        C 2587 0.998    H 2586 0.975    H 2585 0.974    C 2582 0.970
  2585  H   0.997        C 2584 0.974
  2586  H   0.997        C 2584 0.975
  2587  C   3.995        C 2590 1.001    C 2584 0.998    H 2589 0.977    H 2588 0.975
  2588  H   0.998        C 2587 0.975
  2589  H   0.998        C 2587 0.977
  2590  C   3.987        C 2593 1.019    C 2587 1.001    H 2591 0.972    H 2592 0.966
  2591  H   0.995        C 2590 0.972
  2592  H   0.994        C 2590 0.966
  2593  C   3.909        C 2590 1.019    H 2595 0.969    H 2594 0.954    N 2596 0.935
  2594  H   0.987        C 2593 0.954
  2595  H   0.990        C 2593 0.969
  2596  N   3.659        C 2593 0.935    H 2598 0.902    H 2597 0.899    H 2599 0.898
  2597  H   0.913        N 2596 0.899
  2598  H   0.913        N 2596 0.902
  2599  H   0.908        N 2596 0.898
  2600  C   3.942        O 2602 1.487    O 2601 1.480    C 2582 0.938
  2601  O   1.775        C 2600 1.480    O 2602 0.220
  2602  O   1.793        C 2600 1.487    O 2601 0.220
  2603  C   3.987        C 2605 1.448    C 2613 1.368    H 2604 0.964    C 2609 0.102
  2604  H   0.999        C 2603 0.964
  2605  C   3.992        C 2603 1.448    C 2607 1.428    H 2606 0.967    C 2611 0.114
  2606  H   0.999        C 2605 0.967
  2607  C   3.989        C 2609 1.437    C 2605 1.428    H 2608 0.963
  2608  H   0.998        C 2607 0.963
  2609  C   3.991        C 2611 1.453    C 2607 1.437    H 2610 0.967    C 2603 0.102
  2610  H   0.999        C 2609 0.967
  2611  C   3.984        C 2609 1.453    C 2613 1.342    H 2612 0.963    C 2605 0.114
  2612  H   0.997        C 2611 0.963
  2613  C   3.943        C 2603 1.368    C 2611 1.342    O 2614 1.113
  2614  O   2.139        C 2613 1.113    H 2615 0.837
  2615  H   0.881        O 2614 0.837

molecular dipole:
                 x           y           z       tot (Debye)
 q only:      600.584     685.761     669.817
   full:      601.253     686.618     678.167    2890.067
molecular quadrupole (traceless):
                xx          xy          yy          xz          yz          zz
 q only:   -11558.326   72721.478    7486.921   71503.962   80582.517    4071.405
  q+dip:   -12278.687   72455.154    6791.426   72319.975   81471.792    5487.261
   full:   -12266.927   72453.845    6767.846   72323.563   81468.342    5499.081


           -------------------------------------------------
          | TOTAL ENERGY            -4105.347151551362 Eh   |
          | GRADIENT NORM               1.305675619615 Eh/α |
          | HOMO-LUMO GAP               1.959432194189 eV   |
           -------------------------------------------------

------------------------------------------------------------------------
 * finished run on 2020/09/07 at 14:50:11.638     
------------------------------------------------------------------------
 total:
 * wall-time:     0 d,  0 h,  7 min, 27.150 sec
 *  cpu-time:     0 d,  5 h, 36 min, 38.534 sec
 * ratio c/w:    45.172 speedup
 SCF:
 * wall-time:     0 d,  0 h,  6 min, 58.614 sec
 *  cpu-time:     0 d,  5 h, 27 min, 36.855 sec
 * ratio c/w:    46.957 speedup

