      -----------------------------------------------------------      
     |                   =====================                   |     
     |                           x T B                           |     
     |                   =====================                   |     
     |                         S. Grimme                         |     
     |          Mulliken Center for Theoretical Chemistry        |     
     |                    University of Bonn                     |     
      -----------------------------------------------------------      

   * xtb version 6.2.3 (d7bf61a) compiled by 'conda@06d140edd85e' on 2020-05-12

   xtb is free software: you can redistribute it and/or modify it under
   the terms of the GNU Lesser General Public License as published by
   the Free Software Foundation, either version 3 of the License, or
   (at your option) any later version.
   
   xtb is distributed in the hope that it will be useful,
   but WITHOUT ANY WARRANTY; without even the implied warranty of
   MERCHANTABILITY or FITNESS FOR A PARTICULAR PURPOSE.  See the
   GNU Lesser General Public License for more details.
   
   Cite this work as:
   * S. Grimme, C. Bannwarth, P. Shushkov, J. Chem. Theory Comput., 2017,
     13, 1989-2009. DOI: 10.1021/acs.jctc.7b00118
   * C. Bannwarth, S. Ehlert and S. Grimme., J. Chem. Theory Comput., 2019,
     15, 1652-1671. DOI: 10.1021/acs.jctc.8b01176
   * P. Pracht, E. Caldeweyher, S. Ehlert, S. Grimme, ChemRxiv, 2019, preprint.
     DOI: 10.26434/chemrxiv.8326202.v1
   
   for DFT-D4:
   * E. Caldeweyher, C. Bannwarth and S. Grimme, J. Chem. Phys., 2017,
     147, 034112. DOI: 10.1063/1.4993215
   * E. Caldeweyher, S. Ehlert, A. Hansen, H. Neugebauer, S. Spicher,
     C. Bannwarth and S. Grimme, J. Chem. Phys., 2019, 150, 154122.
     DOI: 10.1063/1.5090222
   
   for sTDA-xTB:
   * S. Grimme and C. Bannwarth, J. Chem. Phys., 2016, 145, 054103.
     DOI: 10.1063/1.4959605
   
   in the mass-spec context:
   * V. Asgeirsson, C. Bauer and S. Grimme, Chem. Sci., 2017, 8, 4879.
     DOI: 10.1039/c7sc00601b
   
   for metadynamics refer to:
   * S. Grimme, J. Chem. Theory Comput., 2019, 155, 2847-2862
     DOI: 10.1021/acs.jctc.9b00143
   
   with help from (in alphabetical order)
   C. Bannwarth, F. Bohle, G. Brandenburg, E. Caldeweyher, M. Checinski,
   S. Dohm, S. Ehlert, S. Ehrlich, F. März, H. Neugebauer, J. Pisarek,
   P. Pracht, P. Shushkov, and S. Spicher.
   
 * started run on 2020/09/07 at 18:24:43.553     

           -------------------------------------------------
          |                Calculation Setup                |
           -------------------------------------------------

          program call               : xtb complex_25561.xyz --chrg +9 --uhf 0 --gbsa water
          hostname                   : gold56.cluster.local
          coordinate file            : complex_25561.xyz
          omp threads                :                    64
          number of atoms            :                  2615
          number of electrons        :                  7228
          charge                     :                     9
          spin                       :                   0.0
          first test random number   :      0.95402519185358


molecular fragmentation (1/2 indicates fragments):
111111111111111111111111111111111111111111111111111111111111111111111111
111111111111111111111111111111111111111111111111111111111111111111111111
111111111111111111111111111111111111111111111111111111111111111111111111
111111111111111111111111111111111111111111111111111111111111111111111111
111111111111111111111111111111111111111111111111111111111111111111111111
111111111111111111111111111111111111111111111111111111111111111111111111
111111111111111111111111111111111111111111111111111111111111111111111111
111111111111111111111111111111111111111111111111111111111111111111111111
111111111111111111111111111111111111111111111111111111111111111111111111
111111111111111111111111111111111111111111111111111111111111111111111111
111111111111111111111111111111111111111111111111111111111111111111111111
111111111111111111111111111111111111111111111111111111111111111111111111
111111111111111111111111111111111111111111111111111111111111111111111111
111111111111111111111111111111111111111111111111111111111111111111111111
111111111111111111111111111111111111111111111111111111111111111111111111
111111111111111111111111111111111111111111111111111111111111111111111111
111111111111111111111111111111111111111111111111111111111111111111111111
111111111111111111111111111111111111111111111111111111111111111111111111
111111111111111111111111111111111111111111111111111111111111111111111111
111111111111111111111111111111111111111111111111111111111111111111111111
111111111111111111111111111111111111111111111111111111111111111111111111
111111111111111111111111111111111111111111111111111111111111111111111111
111111111111111111111111111111111111111111111111111111111111111111111111
111111111111111111111111111111111111111111111111111111111111111111111111
111111111111111111111111111111111111111111111111111111111111111111111111
111111111111111111111111111111111111111111111111111111111111111111111111
111111111111111111111111111111111111111111111111111111111111111111111111
111111111111111111111111111111111111111111111111111111111111111111111111
111111111111111111111111111111111111111111111111111111111111111111111111
111111111111111111111111111111111111111111111111111111111111111111111111
111111111111111111111111111111111111111111111111111111111111111111111111
111111111111111111111111111111111111111111111111111111111111111111111111
111111111111111111111111111111111111111111111111111111111111111111111111
111111111111111111111111111111111111111111111111111111111111111111111111
111111111111111111111111111111111111111111111111111111111111111111111111
111111111111111111111111111111111111111111111111111111111111111111111111
11111111112222222222222
# atoms in fragment 1/2:  2602    13
 fragment masses (1/2) :    18371.93       94.11
CMA distance (Bohr)    :  21.857
constraining FC (au)   :  0.0500
########################################################################
[WARNING] Please study the warnings concerning your input carefully
-2- prog_main: XTBPATH is not set, using XTBHOME instead
-1- prog_main: XTBHOME is not set, using HOME instead
########################################################################
           ------------------------------------------------- 
          |                 G F N 2 - x T B                 |
          | Geometry, Frequencies, Noncovalent interactions |
          |            JCTC 2019 parametrisation            |
           ------------------------------------------------- 
             k(s)              :                1.8500
             k(p)              :                2.2300
             k(d)              :                2.2300
             k(f)              :                2.0000
             kEN (H0ij)        :               -2.0000
             D4 a1             :                0.5200
             D4 a2             :                5.0000
             D4 s6             :                1.0000
             D4 s8             :                2.7000
             D4 s9             :                5.0000
             alphaj            :                2.0000

  Z AO/shell   Hii/eV     exponent
  1     Wed Apr 25 08:07:45 CEST 2018   EN: 2.200 GM2: 0.406  GM3: 0.0800  RAES: 1.40
     1s    -10.707211    1.230000
  6     Wed Apr 25 08:07:45 CEST 2018   EN: 2.550 GM2: 0.538  GM3: 0.1500  RAES: 3.00
     2s    -13.970922    2.096432
     2p    -10.063292    1.800000
  7     Wed Apr 25 08:07:45 CEST 2018   EN: 3.040 GM2: 0.461  GM3:-0.0640  RAES: 1.90
     2s    -16.686243    2.339881
     2p    -12.523956    2.014332
  8     Wed Apr 25 08:07:45 CEST 2018   EN: 3.440 GM2: 0.452  GM3:-0.0517  RAES: 1.80
     2s    -20.229985    2.439742
     2p    -15.503117    2.137023
 16     Tue Apr 24 11:44:34 CEST 2018   EN: 2.580 GM2: 0.340  GM3:-0.0502  RAES: 3.10
     3s    -20.029654    1.981333
     3p    -11.377694    2.025643
     3d     -0.420282    1.702555

 Solvent             : water
 Using internal parameter file: .param_gbsa2_water
 Gsolv ref. state (COSMO-RS): gsolv [1 M gas/solution]
 temperature (mdtemp)       :    298.14999999999998     
 dielectric constant        :    80.200000000000003     
 rho                        :    1.0000000000000000     
 mass                       :    18.000000000000000     
 surface tension            :    15.568945408385856     
 probe radius               :   0.97531378999999996     
 Gshift (Eh)                :    1.8574431267947933E-003
 c1                         :    1.5524381700000001     
 soset                      :   0.13032636000000000     
 HB correction              :  T
           ------------------------------------------------- 
          |        Self-Consistent Charge Iterations        |
           ------------------------------------------------- 

          ...................................................
          :                      SETUP                      :
          :.................................................:
          :  # basis functions                6545          :
          :  # atomic orbitals                6539          :
          :  # shells                         3919          :
          :  # electrons                      7228          :
          :  max. iterations                   250          :
          :  Hamiltonian                  GFN2-xTB          :
          :  restarted?                      false          :
          :  GBSA solvation                   true          :
          :  PC potential                    false          :
          :  electronic temp.          300.0000000     K    :
          :  accuracy                    1.0000000          :
          :  -> integral cutoff          0.2500000E+02      :
          :  -> integral neglect         0.1000000E-07      :
          :  -> SCF convergence          0.1000000E-05 Eh   :
          :  -> wf. convergence          0.1000000E-03 e    :
          :  Broyden damping             0.4000000          :
          ...................................................

 iter      E             dE          RMSdq      gap      omega  full diag
   1  -4141.2755273 -0.414128E+04  0.428E+00    2.50       0.0  T
   2  -4153.5396488 -0.122641E+02  0.227E+00    2.47       1.0  T
   3  -4154.0165293 -0.476881E+00  0.120E+00    2.48       1.0  T
   4  -4154.0892847 -0.727554E-01  0.288E-01    1.92       1.0  T
   5  -4154.1923931 -0.103108E+00  0.142E-01    1.93       1.0  T
   6  -4154.2064923 -0.140991E-01  0.739E-02    1.96       1.0  T
   7  -4154.2089503 -0.245799E-02  0.387E-02    1.93       1.0  T
   8  -4154.2101657 -0.121543E-02  0.175E-02    1.90       1.0  T
   9  -4154.2103540 -0.188317E-03  0.108E-02    1.87       1.0  T
  10  -4154.2104523 -0.982856E-04  0.575E-03    1.85       1.0  T
  11  -4154.2104809 -0.286301E-04  0.288E-03    1.84       1.0  T
  12  -4154.2104884 -0.744437E-05  0.157E-03    1.83       1.2  T
  13  -4154.2104906 -0.219521E-05  0.847E-04    1.83       2.3  T
  14  -4154.2104912 -0.620294E-06  0.422E-04    1.82       4.6  T
  15  -4154.2104913 -0.159815E-06  0.211E-04    1.82       9.3  T

   *** convergence criteria satisfied after 15 iterations ***

         #    Occupation            Energy/Eh            Energy/eV
      -------------------------------------------------------------
         1        2.0000           -0.7691260             -20.9290
       ...           ...                  ...                  ...
      3608        2.0000           -0.3638754              -9.9016
      3609        2.0000           -0.3602840              -9.8038
      3610        2.0000           -0.3586051              -9.7581
      3611        2.0000           -0.3571398              -9.7183
      3612        2.0000           -0.3569115              -9.7121
      3613        2.0000           -0.3521694              -9.5830
      3614        2.0000           -0.3485626              -9.4849 (HOMO)
      3615                         -0.2815737              -7.6620 (LUMO)
      3616                         -0.2713337              -7.3834
      3617                         -0.2697306              -7.3397
      3618                         -0.2690154              -7.3203
      3619                         -0.2668462              -7.2613
       ...                                ...                  ...
      6539                          0.8429052              22.9366
      -------------------------------------------------------------
                  HL-Gap            0.0669889 Eh            1.8229 eV
             Fermi-level           -0.3150681 Eh           -8.5734 eV

 SCC (total)                   0 d,  0 h,  6 min, 51.204 sec
 SCC setup                      ...        0 min,  3.170 sec (  0.771%)
 Dispersion                     ...        0 min,  1.970 sec (  0.479%)
 integral evaluation            ...        0 min, 11.817 sec (  2.874%)
 zeroth order Hamiltonian       ...        0 min,  0.344 sec (  0.084%)
 iterations                     ...        6 min, 15.774 sec ( 91.384%)
 molecular gradient             ...        0 min, 17.353 sec (  4.220%)
 printout                       ...        0 min,  0.776 sec (  0.189%)

         :::::::::::::::::::::::::::::::::::::::::::::::::::::
         ::                     SUMMARY                     ::
         :::::::::::::::::::::::::::::::::::::::::::::::::::::
         :: total energy           -4105.367516949810 Eh    ::
         :: total w/o Gsasa/hb     -4104.987867727185 Eh    ::
         :: gradient norm              1.366703504315 Eh/a0 ::
         :: HOMO-LUMO gap              1.822860634058 eV    ::
         ::.................................................::
         :: SCC energy             -4154.276870736408 Eh    ::
         :: -> isotropic ES           13.876347844989 Eh    ::
         :: -> anisotropic ES         -0.804286916494 Eh    ::
         :: -> anisotropic XC          1.144467006956 Eh    ::
         :: -> dispersion             -3.938776480365 Eh    ::
         :: -> Gsolv                  -3.779119175986 Eh    ::
         ::    -> Gborn               -3.399469953362 Eh    ::
         ::    -> Gsasa               -0.068236847105 Eh    ::
         ::    -> Ghb                 -0.313269818646 Eh    ::
         ::    -> Gshift               0.001857443127 Eh    ::
         :: repulsion energy          48.361997289695 Eh    ::
         :: add. restraining           0.000000000000 Eh    ::
         :::::::::::::::::::::::::::::::::::::::::::::::::::::

           -------------------------------------------------
          |                Property Printout                |
           -------------------------------------------------

    * Orbital Energies and Occupations

         #    Occupation            Energy/Eh            Energy/eV
      -------------------------------------------------------------
         1        2.0000           -0.7691260             -20.9290
       ...           ...                  ...                  ...
      3602        2.0000           -0.3712700             -10.1028
      3603        2.0000           -0.3704680             -10.0809
      3604        2.0000           -0.3702316             -10.0745
      3605        2.0000           -0.3695437             -10.0558
      3606        2.0000           -0.3675977             -10.0028
      3607        2.0000           -0.3644865              -9.9182
      3608        2.0000           -0.3638754              -9.9016
      3609        2.0000           -0.3602840              -9.8038
      3610        2.0000           -0.3586051              -9.7581
      3611        2.0000           -0.3571398              -9.7183
      3612        2.0000           -0.3569115              -9.7121
      3613        2.0000           -0.3521694              -9.5830
      3614        2.0000           -0.3485626              -9.4849 (HOMO)
      3615                         -0.2815737              -7.6620 (LUMO)
      3616                         -0.2713337              -7.3834
      3617                         -0.2697306              -7.3397
      3618                         -0.2690154              -7.3203
      3619                         -0.2668462              -7.2613
      3620                         -0.2642049              -7.1894
      3621                         -0.2633915              -7.1672
      3622                         -0.2619692              -7.1285
      3623                         -0.2610288              -7.1030
      3624                         -0.2606309              -7.0921
      3625                         -0.2604359              -7.0868
       ...                                ...                  ...
      6539                          0.8429052              22.9366
      -------------------------------------------------------------
                  HL-Gap            0.0669889 Eh            1.8229 eV
             Fermi-level           -0.3150681 Eh           -8.5734 eV

     #   Z        covCN         q      C6AA      α(0)
     1   7 N      3.488    -0.146    24.147     7.298
     2   1 H      0.860     0.301     0.709     1.319
     3   1 H      0.860     0.314     0.674     1.286
     4   1 H      0.860     0.299     0.717     1.326
     5   6 C      3.780    -0.017    20.902     6.513
     6   1 H      0.924     0.112     1.678     2.026
     7   6 C      3.823    -0.090    22.206     6.706
     8   1 H      0.925     0.107     1.720     2.051
     9   1 H      0.925     0.095     1.833     2.117
    10   6 C      3.797    -0.012    20.794     6.493
    11   1 H      0.925     0.062     2.177     2.308
    12   1 H      0.926     0.068     2.103     2.268
    13  16 S      1.966    -0.239   151.303    20.703
    14   6 C      3.737    -0.058    21.704     6.648
    15   1 H      0.925     0.059     2.210     2.325
    16   1 H      0.924     0.066     2.128     2.281
    17   1 H      0.925     0.045     2.384     2.414
    18   6 C      2.752     0.262    22.590     7.783
    19   8 O      0.858    -0.448    22.653     6.381
    20   7 N      2.690    -0.151    24.259     7.315
    21   1 H      0.860     0.211     1.053     1.607
    22   6 C      3.792     0.008    20.454     6.441
    23   1 H      0.925     0.108     1.717     2.049
    24   6 C      3.817    -0.116    22.706     6.782
    25   1 H      0.924     0.095     1.829     2.115
    26   1 H      0.925     0.093     1.846     2.125
    27   6 C      2.745     0.287    22.139     7.704
    28   8 O      0.864    -0.503    23.847     6.547
    29   7 N      2.641    -0.285    27.363     7.769
    30   1 H      0.860     0.212     1.046     1.602
    31   1 H      0.860     0.235     0.946     1.523
    32   6 C      2.747     0.275    22.341     7.740
    33   8 O      0.863    -0.476    23.267     6.467
    34   7 N      2.689    -0.178    24.863     7.406
    35   1 H      0.860     0.218     1.020     1.582
    36   6 C      3.791     0.021    20.239     6.407
    37   1 H      0.924     0.083     1.948     2.183
    38   6 C      3.843    -0.038    21.229     6.554
    39   1 H      0.924     0.073     2.049     2.238
    40   6 C      3.748    -0.134    23.154     6.863
    41   1 H      0.924     0.070     2.083     2.257
    42   1 H      0.924     0.044     2.394     2.420
    43   1 H      0.924     0.062     2.171     2.304
    44   6 C      3.803    -0.060    21.655     6.625
    45   1 H      0.925     0.025     2.658     2.549
    46   1 H      0.925     0.060     2.203     2.321
    47   6 C      3.754    -0.116    22.769     6.804
    48   1 H      0.925     0.045     2.385     2.415
    49   1 H      0.925     0.048     2.345     2.395
    50   1 H      0.925     0.045     2.386     2.416
    51   6 C      2.754     0.273    22.394     7.749
    52   8 O      0.859    -0.525    24.337     6.614
    53   7 N      2.678    -0.179    24.884     7.409
    54   1 H      0.860     0.222     1.001     1.568
    55   6 C      3.805     0.015    20.314     6.416
    56   1 H      0.924     0.089     1.890     2.150
    57   6 C      3.818    -0.082    22.050     6.683
    58   1 H      0.925     0.074     2.037     2.232
    59   1 H      0.924     0.083     1.951     2.184
    60   6 C      2.962     0.004    27.943     8.670
    61   6 C      2.904    -0.055    29.368     8.886
    62   1 H      0.926     0.038     2.469     2.457
    63   6 C      2.896    -0.035    28.859     8.808
    64   1 H      0.926     0.011     2.868     2.648
    65   6 C      2.899    -0.035    28.870     8.810
    66   1 H      0.926     0.033     2.542     2.493
    67   6 C      2.900    -0.034    28.849     8.807
    68   1 H      0.926     0.056     2.241     2.341
    69   6 C      2.907    -0.049    29.228     8.865
    70   1 H      0.926     0.065     2.136     2.285
    71   6 C      2.761     0.268    22.477     7.764
    72   8 O      0.858    -0.496    23.706     6.528
    73   7 N      2.696    -0.168    24.636     7.372
    74   1 H      0.860     0.213     1.043     1.599
    75   6 C      3.805     0.027    20.121     6.386
    76   1 H      0.924     0.081     1.968     2.194
    77   6 C      3.828    -0.060    21.630     6.618
    78   1 H      0.925     0.051     2.312     2.378
    79   1 H      0.925     0.060     2.201     2.320
    80   6 C      3.804    -0.102    22.439     6.744
    81   1 H      0.925     0.028     2.619     2.531
    82   1 H      0.925     0.033     2.551     2.498
    83   6 C      2.687     0.363    20.844     7.472
    84   8 O      0.856    -0.596    26.023     6.839
    85   8 O      0.857    -0.655    27.502     7.031
    86   6 C      2.773     0.280    22.259     7.727
    87   8 O      0.860    -0.507    23.942     6.560
    88   7 N      2.689    -0.164    24.556     7.360
    89   1 H      0.860     0.229     0.967     1.541
    90   6 C      3.796     0.024    20.177     6.396
    91   1 H      0.924     0.069     2.100     2.266
    92   6 C      3.818    -0.079    21.987     6.673
    93   1 H      0.924     0.066     2.130     2.282
    94   1 H      0.925     0.071     2.077     2.254
    95   6 C      3.790    -0.022    20.981     6.523
    96   1 H      0.925     0.050     2.325     2.385
    97   1 H      0.924     0.033     2.545     2.495
    98  16 S      1.952    -0.176   148.521    20.512
    99   6 C      3.746    -0.065    21.820     6.663
   100   1 H      0.925     0.065     2.140     2.288
   101   1 H      0.924     0.059     2.207     2.323
   102   1 H      0.925     0.063     2.161     2.299
   103   6 C      2.744     0.264    22.546     7.775
   104   8 O      0.857    -0.491    23.589     6.512
   105   7 N      2.699    -0.180    24.908     7.412
   106   1 H      0.860     0.227     0.979     1.550
   107   6 C      3.786     0.031    20.065     6.380
   108   1 H      0.925     0.062     2.176     2.307
   109   6 C      3.815    -0.089    22.181     6.703
   110   1 H      0.924     0.057     2.240     2.341
   111   1 H      0.925     0.086     1.918     2.166
   112   6 C      3.843    -0.022    20.943     6.510
   113   1 H      0.924     0.047     2.359     2.402
   114   6 C      3.754    -0.123    22.913     6.825
   115   1 H      0.925     0.049     2.330     2.387
   116   1 H      0.924     0.032     2.562     2.503
   117   1 H      0.925     0.057     2.232     2.336
   118   6 C      3.760    -0.107    22.584     6.775
   119   1 H      0.925     0.042     2.417     2.431
   120   1 H      0.925     0.024     2.679     2.560
   121   1 H      0.925     0.020     2.728     2.583
   122   6 C      2.745     0.271    22.412     7.752
   123   8 O      0.867    -0.529    24.442     6.629
   124   7 N      2.693    -0.173    24.740     7.387
   125   1 H      0.860     0.229     0.970     1.543
   126   6 C      3.788     0.025    20.173     6.397
   127   1 H      0.924     0.077     2.008     2.216
   128   6 C      3.787    -0.084    22.119     6.699
   129   1 H      0.924     0.064     2.157     2.297
   130   1 H      0.924     0.078     2.004     2.214
   131   6 C      3.776    -0.085    22.146     6.705
   132   1 H      0.925     0.067     2.120     2.277
   133   1 H      0.925     0.077     2.014     2.219
   134   6 C      3.722    -0.030    21.223     6.579
   135   1 H      0.925     0.098     1.800     2.098
   136   1 H      0.924     0.091     1.865     2.136
   137   7 N      2.691    -0.169    24.657     7.375
   138   1 H      0.860     0.213     1.042     1.599
   139   6 C      2.732     0.240    22.978     7.848
   140   7 N      2.651    -0.238    26.235     7.607
   141   1 H      0.860     0.248     0.893     1.480
   142   1 H      0.860     0.241     0.917     1.500
   143   7 N      2.657    -0.275    27.121     7.735
   144   1 H      0.860     0.246     0.900     1.486
   145   1 H      0.860     0.223     0.998     1.565
   146   6 C      2.745     0.279    22.274     7.728
   147   8 O      0.863    -0.483    23.404     6.486
   148   7 N      2.687    -0.172    24.718     7.384
   149   1 H      0.860     0.196     1.125     1.662
   150   6 C      3.783     0.011    20.408     6.435
   151   1 H      0.924     0.091     1.867     2.137
   152   6 C      3.834    -0.030    21.089     6.534
   153   1 H      0.925     0.056     2.245     2.343
   154   6 C      3.736    -0.113    22.757     6.808
   155   1 H      0.925     0.048     2.344     2.394
   156   1 H      0.925     0.037     2.492     2.469
   157   1 H      0.925     0.037     2.483     2.464
   158   6 C      3.793    -0.071    21.871     6.660
   159   1 H      0.924     0.052     2.301     2.372
   160   1 H      0.925     0.052     2.290     2.366
   161   6 C      3.746    -0.119    22.851     6.819
   162   1 H      0.924     0.056     2.242     2.342
   163   1 H      0.925     0.040     2.444     2.445
   164   1 H      0.924     0.042     2.429     2.437
   165   6 C      2.737     0.272    22.406     7.750
   166   8 O      0.858    -0.463    22.987     6.428
   167   7 N      2.679    -0.195    25.233     7.460
   168   1 H      0.860     0.198     1.118     1.656
   169   6 C      3.784     0.027    20.133     6.391
   170   1 H      0.924     0.107     1.719     2.051
   171   6 C      3.814    -0.081    22.036     6.681
   172   1 H      0.925     0.050     2.318     2.381
   173   1 H      0.924     0.040     2.454     2.450
   174   6 C      2.695     0.365    20.814     7.467
   175   8 O      0.856    -0.636    27.019     6.969
   176   8 O      0.859    -0.565    25.274     6.740
   177   6 C      2.748     0.270    22.434     7.756
   178   8 O      0.861    -0.508    23.967     6.564
   179   7 N      2.683    -0.182    24.933     7.416
   180   1 H      0.860     0.205     1.083     1.630
   181   6 C      3.790     0.031    20.064     6.379
   182   1 H      0.924     0.085     1.924     2.169
   183   6 C      3.814    -0.043    21.333     6.574
   184   1 H      0.925     0.037     2.485     2.465
   185   1 H      0.925     0.037     2.495     2.470
   186   6 C      3.813    -0.078    21.974     6.672
   187   1 H      0.925     0.018     2.764     2.600
   188   1 H      0.925     0.027     2.628     2.535
   189   6 C      2.691     0.375    20.650     7.437
   190   8 O      0.859    -0.599    26.097     6.849
   191   8 O      0.857    -0.674    28.002     7.095
   192   6 C      2.751     0.252    22.757     7.811
   193   8 O      0.856    -0.504    23.875     6.551
   194   7 N      2.667    -0.146    24.156     7.300
   195   1 H      0.860     0.206     1.074     1.623
   196   6 C      3.723    -0.048    21.536     6.627
   197   1 H      0.925     0.110     1.697     2.037
   198   1 H      0.924     0.113     1.669     2.020
   199   6 C      2.745     0.276    22.329     7.737
   200   8 O      0.864    -0.513    24.074     6.579
   201   7 N      2.687    -0.164    24.549     7.359
   202   1 H      0.860     0.221     1.003     1.569
   203   6 C      3.788     0.012    20.385     6.431
   204   1 H      0.924     0.086     1.917     2.165
   205   6 C      3.798    -0.081    22.051     6.686
   206   1 H      0.925     0.070     2.084     2.258
   207   1 H      0.925     0.056     2.241     2.341
   208   6 C      3.838    -0.025    20.989     6.518
   209   1 H      0.925     0.053     2.280     2.361
   210   6 C      3.744    -0.125    22.969     6.837
   211   1 H      0.924     0.052     2.300     2.371
   212   1 H      0.925     0.053     2.280     2.361
   213   1 H      0.924     0.026     2.637     2.539
   214   6 C      3.752    -0.130    23.057     6.848
   215   1 H      0.925     0.058     2.225     2.333
   216   1 H      0.925     0.042     2.419     2.432
   217   1 H      0.925     0.058     2.221     2.330
   218   6 C      2.745     0.266    22.519     7.770
   219   8 O      0.862    -0.454    22.798     6.402
   220   7 N      2.695    -0.177    24.835     7.401
   221   1 H      0.860     0.191     1.155     1.684
   222   6 C      3.793     0.018    20.286     6.414
   223   1 H      0.925     0.093     1.850     2.127
   224   6 C      3.807    -0.086    22.138     6.698
   225   1 H      0.925     0.107     1.725     2.054
   226   1 H      0.925     0.062     2.171     2.304
   227   6 C      3.806    -0.096    22.318     6.725
   228   1 H      0.925     0.074     2.040     2.234
   229   1 H      0.925     0.106     1.732     2.058
   230   6 C      3.735    -0.042    21.409     6.603
   231   1 H      0.925     0.115     1.651     2.009
   232   1 H      0.925     0.104     1.752     2.070
   233   7 N      2.764    -0.161    24.485     7.349
   234   1 H      0.860     0.210     1.059     1.612
   235   6 C      2.737     0.258    22.658     7.793
   236   7 N      2.698    -0.261    26.762     7.683
   237   1 H      0.860     0.243     0.913     1.497
   238   1 H      0.860     0.258     0.852     1.446
   239   7 N      2.746    -0.269    26.944     7.709
   240   1 H      0.860     0.231     0.962     1.536
   241   1 H      0.860     0.228     0.974     1.546
   242   6 C      2.752     0.256    22.696     7.801
   243   8 O      0.860    -0.492    23.610     6.515
   244   7 N      2.685    -0.182    24.938     7.417
   245   1 H      0.860     0.223     0.997     1.564
   246   6 C      3.775     0.015    20.347     6.427
   247   1 H      0.925     0.075     2.032     2.229
   248   6 C      3.805    -0.081    22.045     6.684
   249   1 H      0.925     0.074     2.047     2.237
   250   1 H      0.925     0.065     2.141     2.288
   251   6 C      3.849    -0.019    20.880     6.499
   252   1 H      0.924     0.048     2.343     2.394
   253   6 C      3.760    -0.125    22.955     6.830
   254   1 H      0.925     0.054     2.270     2.356
   255   1 H      0.925     0.046     2.373     2.409
   256   1 H      0.925     0.051     2.310     2.377
   257   6 C      3.750    -0.119    22.848     6.817
   258   1 H      0.924     0.036     2.506     2.475
   259   1 H      0.924     0.047     2.353     2.399
   260   1 H      0.925     0.022     2.700     2.569
   261   6 C      2.740     0.252    22.761     7.811
   262   8 O      0.859    -0.515    24.129     6.586
   263   7 N      2.683    -0.149    24.234     7.311
   264   1 H      0.860     0.200     1.107     1.648
   265   6 C      3.781    -0.001    20.615     6.468
   266   1 H      0.925     0.096     1.822     2.111
   267   6 C      3.807    -0.087    22.152     6.700
   268   1 H      0.925     0.062     2.177     2.308
   269   1 H      0.925     0.061     2.184     2.311
   270   6 C      3.815    -0.094    22.273     6.717
   271   1 H      0.924     0.066     2.127     2.281
   272   1 H      0.925     0.071     2.077     2.254
   273   6 C      3.801    -0.094    22.291     6.722
   274   1 H      0.924     0.080     1.977     2.199
   275   1 H      0.925     0.077     2.011     2.218
   276   6 C      3.737    -0.068    21.891     6.677
   277   1 H      0.924     0.112     1.678     2.026
   278   1 H      0.925     0.128     1.548     1.946
   279   7 N      3.486    -0.154    24.320     7.324
   280   1 H      0.860     0.306     0.695     1.306
   281   1 H      0.860     0.301     0.710     1.320
   282   1 H      0.860     0.291     0.741     1.349
   283   6 C      2.742     0.274    22.360     7.742
   284   8 O      0.859    -0.485    23.460     6.494
   285   7 N      2.686    -0.182    24.933     7.416
   286   1 H      0.860     0.243     0.913     1.497
   287   6 C      3.790     0.006    20.489     6.447
   288   1 H      0.925     0.050     2.321     2.383
   289   6 C      3.864    -0.039    21.236     6.553
   290   1 H      0.925     0.055     2.258     2.350
   291   6 C      3.749    -0.152    23.499     6.914
   292   1 H      0.924     0.067     2.122     2.278
   293   1 H      0.925     0.090     1.881     2.145
   294   1 H      0.925     0.073     2.051     2.239
   295   6 C      3.803    -0.078    21.985     6.675
   296   1 H      0.924     0.028     2.617     2.530
   297   1 H      0.925     0.065     2.140     2.288
   298   6 C      3.747    -0.136    23.189     6.868
   299   1 H      0.925     0.079     1.992     2.207
   300   1 H      0.925     0.037     2.494     2.470
   301   1 H      0.924     0.041     2.435     2.440
   302   6 C      2.745     0.264    22.548     7.775
   303   8 O      0.857    -0.451    22.721     6.391
   304   7 N      2.680    -0.162    24.499     7.351
   305   1 H      0.860     0.211     1.051     1.606
   306   6 C      3.775    -0.005    20.697     6.482
   307   1 H      0.924     0.119     1.623     1.992
   308   6 C      3.804    -0.101    22.420     6.741
   309   1 H      0.925     0.106     1.730     2.057
   310   1 H      0.925     0.085     1.926     2.171
   311   6 C      2.958    -0.010    28.266     8.720
   312   6 C      2.910    -0.050    29.233     8.866
   313   1 H      0.926     0.047     2.358     2.401
   314   6 C      2.899    -0.084    30.112     8.997
   315   1 H      0.926     0.021     2.717     2.578
   316   6 C      2.856     0.132    25.103     8.212
   317   8 O      1.662    -0.422    21.275     6.227
   318   1 H      0.806     0.306     0.703     1.317
   319   6 C      2.904    -0.070    29.736     8.941
   320   1 H      0.926     0.052     2.297     2.370
   321   6 C      2.921    -0.047    29.165     8.856
   322   1 H      0.926     0.086     1.923     2.168
   323   6 C      2.742     0.277    22.309     7.734
   324   8 O      0.863    -0.480    23.346     6.478
   325   7 N      2.687    -0.166    24.595     7.366
   326   1 H      0.860     0.228     0.975     1.547
   327   6 C      3.782     0.012    20.389     6.432
   328   1 H      0.924     0.068     2.113     2.273
   329   6 C      3.795    -0.086    22.145     6.701
   330   1 H      0.924     0.050     2.317     2.380
   331   1 H      0.925     0.094     1.842     2.123
   332   6 C      3.814    -0.086    22.129     6.695
   333   1 H      0.925     0.078     1.995     2.209
   334   1 H      0.925     0.048     2.340     2.392
   335   6 C      3.810    -0.100    22.398     6.737
   336   1 H      0.924     0.097     1.816     2.107
   337   1 H      0.924     0.071     2.070     2.250
   338   6 C      3.750    -0.067    21.842     6.665
   339   1 H      0.924     0.112     1.677     2.025
   340   1 H      0.925     0.137     1.485     1.906
   341   7 N      3.495    -0.139    23.997     7.276
   342   1 H      0.860     0.308     0.690     1.301
   343   1 H      0.860     0.288     0.749     1.356
   344   1 H      0.860     0.300     0.713     1.323
   345   6 C      2.748     0.269    22.459     7.760
   346   8 O      0.860    -0.487    23.507     6.500
   347   7 N      2.691    -0.188    25.074     7.437
   348   1 H      0.860     0.213     1.044     1.600
   349   6 C      3.781     0.035    20.001     6.371
   350   1 H      0.925     0.055     2.253     2.347
   351   6 C      3.814    -0.086    22.137     6.697
   352   1 H      0.925     0.025     2.660     2.551
   353   1 H      0.925     0.061     2.189     2.314
   354   6 C      2.696     0.367    20.777     7.460
   355   8 O      0.859    -0.645    27.238     6.997
   356   8 O      0.857    -0.632    26.914     6.956
   357   6 C      2.744     0.276    22.332     7.738
   358   8 O      0.859    -0.457    22.850     6.409
   359   7 N      2.686    -0.189    25.102     7.441
   360   1 H      0.860     0.186     1.181     1.702
   361   6 C      3.788     0.009    20.435     6.438
   362   1 H      0.924     0.104     1.749     2.068
   363   6 C      3.731     0.106    18.928     6.210
   364   1 H      0.924     0.064     2.147     2.292
   365   6 C      3.752    -0.146    23.385     6.896
   366   1 H      0.924     0.058     2.225     2.333
   367   1 H      0.925     0.063     2.164     2.301
   368   1 H      0.925     0.084     1.934     2.175
   369   8 O      1.657    -0.467    22.203     6.361
   370   1 H      0.806     0.316     0.674     1.289
   371   6 C      2.751     0.274    22.360     7.743
   372   8 O      0.862    -0.509    23.992     6.567
   373   7 N      2.687    -0.195    25.228     7.460
   374   1 H      0.860     0.219     1.013     1.577
   375   6 C      3.794     0.031    20.052     6.377
   376   1 H      0.925     0.085     1.927     2.171
   377   6 C      3.809    -0.045    21.364     6.579
   378   1 H      0.924     0.053     2.278     2.360
   379   1 H      0.925     0.038     2.469     2.457
   380   6 C      3.793    -0.096    22.346     6.732
   381   1 H      0.925     0.030     2.589     2.516
   382   1 H      0.924     0.033     2.546     2.495
   383   6 C      2.683     0.352    21.015     7.502
   384   8 O      0.856    -0.620    26.617     6.917
   385   8 O      0.856    -0.625    26.746     6.934
   386   6 C      2.749     0.260    22.618     7.787
   387   8 O      0.860    -0.510    24.003     6.569
   388   7 N      2.689    -0.182    24.935     7.416
   389   1 H      0.860     0.201     1.099     1.642
   390   6 C      3.732    -0.032    21.243     6.579
   391   1 H      0.924     0.110     1.694     2.035
   392   1 H      0.925     0.115     1.658     2.014
   393   6 C      2.746     0.269    22.462     7.760
   394   8 O      0.858    -0.470    23.133     6.449
   395   7 N      2.685    -0.156    24.367     7.331
   396   1 H      0.860     0.177     1.231     1.738
   397   6 C      3.793     0.024    20.186     6.398
   398   1 H      0.925     0.074     2.046     2.237
   399   6 C      3.813    -0.077    21.951     6.669
   400   1 H      0.924     0.069     2.093     2.262
   401   1 H      0.925     0.046     2.376     2.411
   402   6 C      2.980    -0.009    28.228     8.715
   403   6 C      2.905    -0.045    29.111     8.847
   404   1 H      0.926     0.029     2.600     2.521
   405   6 C      2.916    -0.065    29.619     8.924
   406   1 H      0.926     0.043     2.409     2.427
   407   6 C      2.829     0.143    24.869     8.172
   408   8 O      1.661    -0.412    21.076     6.197
   409   1 H      0.806     0.363     0.559     1.174
   410   6 C      2.926    -0.070    29.738     8.943
   411   1 H      0.926     0.046     2.367     2.406
   412   6 C      2.896    -0.038    28.947     8.821
   413   1 H      0.926     0.050     2.315     2.379
   414   6 C      2.748     0.270    22.434     7.756
   415   8 O      0.859    -0.492    23.615     6.515
   416   7 N      2.688    -0.156    24.366     7.331
   417   1 H      0.860     0.217     1.023     1.584
   418   6 C      3.797     0.008    20.441     6.438
   419   1 H      0.924     0.103     1.760     2.075
   420   6 C      3.807    -0.080    22.030     6.682
   421   1 H      0.925     0.070     2.088     2.260
   422   1 H      0.925     0.053     2.287     2.365
   423   6 C      2.960    -0.006    28.171     8.706
   424   6 C      2.911    -0.040    28.983     8.828
   425   1 H      0.926     0.019     2.748     2.592
   426   6 C      2.913    -0.074    29.844     8.958
   427   1 H      0.926     0.040     2.442     2.444
   428   6 C      2.835     0.145    24.849     8.169
   429   8 O      1.660    -0.407    20.981     6.183
   430   1 H      0.805     0.334     0.626     1.243
   431   6 C      2.905    -0.065    29.606     8.922
   432   1 H      0.926     0.100     1.788     2.091
   433   6 C      2.909    -0.050    29.239     8.867
   434   1 H      0.926     0.071     2.078     2.254
   435   6 C      2.746     0.282    22.228     7.720
   436   8 O      0.863    -0.480    23.343     6.478
   437   7 N      2.699    -0.178    24.846     7.403
   438   1 H      0.860     0.237     0.937     1.516
   439   6 C      3.786     0.002    20.565     6.459
   440   1 H      0.925     0.073     2.049     2.238
   441   6 C      3.726     0.120    18.715     6.177
   442   1 H      0.924     0.036     2.497     2.471
   443   6 C      3.753    -0.119    22.831     6.814
   444   1 H      0.925     0.047     2.354     2.399
   445   1 H      0.925     0.057     2.236     2.338
   446   1 H      0.925     0.045     2.386     2.416
   447   8 O      1.652    -0.494    22.766     6.441
   448   1 H      0.805     0.321     0.661     1.277
   449   6 C      2.749     0.258    22.662     7.795
   450   8 O      0.860    -0.438    22.464     6.355
   451   7 N      2.684    -0.166    24.599     7.366
   452   1 H      0.860     0.197     1.120     1.657
   453   6 C      3.784     0.008    20.465     6.444
   454   1 H      0.925     0.094     1.845     2.124
   455   6 C      3.846    -0.030    21.077     6.531
   456   1 H      0.925     0.083     1.945     2.181
   457   6 C      3.750    -0.123    22.931     6.829
   458   1 H      0.925     0.041     2.439     2.442
   459   1 H      0.924     0.042     2.421     2.433
   460   1 H      0.925     0.060     2.199     2.319
   461   6 C      3.800    -0.077    21.968     6.673
   462   1 H      0.925     0.051     2.302     2.373
   463   1 H      0.925     0.034     2.530     2.487
   464   6 C      3.748    -0.125    22.966     6.835
   465   1 H      0.925     0.058     2.217     2.328
   466   1 H      0.925     0.047     2.359     2.402
   467   1 H      0.925     0.050     2.321     2.382
   468   6 C      2.746     0.273    22.387     7.747
   469   8 O      0.863    -0.502    23.829     6.545
   470   7 N      2.690    -0.161    24.474     7.347
   471   1 H      0.860     0.235     0.946     1.523
   472   6 C      3.741    -0.013    20.878     6.519
   473   1 H      0.924     0.056     2.247     2.344
   474   1 H      0.925     0.101     1.771     2.081
   475   6 C      2.750     0.276    22.335     7.739
   476   8 O      0.862    -0.475    23.237     6.463
   477   7 N      2.691    -0.166    24.596     7.366
   478   1 H      0.860     0.188     1.169     1.694
   479   6 C      3.780     0.010    20.433     6.440
   480   1 H      0.925     0.106     1.735     2.060
   481   6 C      3.849    -0.010    20.715     6.474
   482   1 H      0.925     0.034     2.531     2.488
   483   6 C      3.754    -0.113    22.714     6.796
   484   1 H      0.925     0.059     2.208     2.324
   485   1 H      0.925     0.019     2.749     2.593
   486   1 H      0.925     0.048     2.341     2.393
   487   6 C      3.799    -0.071    21.862     6.657
   488   1 H      0.924     0.029     2.601     2.522
   489   1 H      0.924     0.072     2.059     2.244
   490   6 C      3.741    -0.121    22.893     6.827
   491   1 H      0.925     0.048     2.339     2.392
   492   1 H      0.924     0.028     2.611     2.527
   493   1 H      0.925     0.065     2.143     2.290
   494   6 C      2.744     0.258    22.664     7.795
   495   8 O      0.857    -0.493    23.621     6.516
   496   7 N      2.685    -0.178    24.864     7.406
   497   1 H      0.860     0.211     1.053     1.608
   498   6 C      3.744    -0.008    20.784     6.504
   499   1 H      0.924     0.070     2.091     2.261
   500   1 H      0.925     0.093     1.854     2.129
   501   6 C      2.758     0.278    22.295     7.732
   502   8 O      0.859    -0.538    24.637     6.655
   503   7 N      2.689    -0.159    24.435     7.342
   504   1 H      0.860     0.238     0.931     1.512
   505   6 C      3.799     0.027    20.121     6.387
   506   1 H      0.925     0.060     2.203     2.321
   507   6 C      3.811    -0.088    22.171     6.702
   508   1 H      0.924     0.122     1.597     1.976
   509   1 H      0.924     0.080     1.979     2.200
   510   6 C      3.175     0.054    26.412     8.393
   511   7 N      2.791    -0.042    22.047     6.974
   512   1 H      0.860     0.259     0.851     1.445
   513   6 C      3.178     0.081    25.804     8.294
   514   1 H      0.926     0.124     1.580     1.966
   515   7 N      2.799    -0.017    21.583     6.900
   516   1 H      0.860     0.271     0.807     1.407
   517   6 C      3.081    -0.014    28.265     8.716
   518   1 H      0.926     0.137     1.481     1.903
   519   6 C      2.749     0.260    22.620     7.788
   520   8 O      0.860    -0.477    23.277     6.469
   521   7 N      2.694    -0.157    24.406     7.337
   522   1 H      0.860     0.195     1.130     1.665
   523   6 C      3.792     0.025    20.169     6.396
   524   1 H      0.924     0.072     2.068     2.249
   525   6 C      3.815    -0.083    22.076     6.687
   526   1 H      0.924     0.055     2.254     2.348
   527   1 H      0.924     0.074     2.044     2.236
   528   6 C      3.853    -0.018    20.866     6.497
   529   1 H      0.924     0.031     2.571     2.508
   530   6 C      3.758    -0.129    23.034     6.842
   531   1 H      0.925     0.054     2.275     2.358
   532   1 H      0.925     0.056     2.247     2.344
   533   1 H      0.925     0.040     2.453     2.449
   534   6 C      3.767    -0.131    23.053     6.843
   535   1 H      0.924     0.050     2.321     2.382
   536   1 H      0.924     0.063     2.159     2.298
   537   1 H      0.925     0.040     2.455     2.450
   538   6 C      2.747     0.274    22.368     7.744
   539   8 O      0.859    -0.499    23.760     6.535
   540   7 N      2.685    -0.181    24.931     7.416
   541   1 H      0.860     0.236     0.941     1.519
   542   6 C      3.803     0.021    20.225     6.403
   543   1 H      0.925     0.084     1.937     2.177
   544   6 C      3.817    -0.078    21.972     6.671
   545   1 H      0.924     0.053     2.280     2.361
   546   1 H      0.925     0.080     1.982     2.202
   547   6 C      3.860    -0.022    20.924     6.505
   548   1 H      0.925     0.045     2.390     2.417
   549   6 C      3.773    -0.128    22.990     6.832
   550   1 H      0.924     0.046     2.376     2.410
   551   1 H      0.924     0.059     2.208     2.324
   552   1 H      0.924     0.055     2.255     2.348
   553   6 C      3.774    -0.120    22.834     6.809
   554   1 H      0.924     0.018     2.768     2.602
   555   1 H      0.925     0.040     2.449     2.447
   556   1 H      0.925     0.062     2.176     2.307
   557   6 C      2.755     0.268    22.467     7.762
   558   8 O      0.859    -0.504    23.876     6.551
   559   7 N      2.693    -0.173    24.742     7.388
   560   1 H      0.860     0.225     0.989     1.558
   561   6 C      3.795     0.022    20.213     6.402
   562   1 H      0.925     0.065     2.136     2.286
   563   6 C      3.727     0.111    18.850     6.199
   564   1 H      0.925     0.029     2.605     2.524
   565   6 C      3.751    -0.126    22.978     6.836
   566   1 H      0.924     0.036     2.505     2.475
   567   1 H      0.924     0.062     2.171     2.304
   568   1 H      0.925     0.085     1.933     2.174
   569   8 O      1.656    -0.489    22.651     6.425
   570   1 H      0.805     0.339     0.615     1.231
   571   6 C      2.752     0.261    22.600     7.785
   572   8 O      0.859    -0.486    23.469     6.495
   573   7 N      2.696    -0.155    24.348     7.328
   574   1 H      0.860     0.213     1.042     1.599
   575   6 C      3.796     0.015    20.330     6.420
   576   1 H      0.925     0.102     1.763     2.077
   577   6 C      3.814    -0.085    22.112     6.693
   578   1 H      0.925     0.084     1.936     2.176
   579   1 H      0.924     0.068     2.103     2.268
   580   6 C      3.807    -0.080    22.018     6.680
   581   1 H      0.924     0.053     2.285     2.364
   582   1 H      0.925     0.054     2.275     2.359
   583   6 C      3.796    -0.090    22.213     6.711
   584   1 H      0.925     0.081     1.971     2.196
   585   1 H      0.925     0.093     1.853     2.129
   586   6 C      3.729    -0.052    21.603     6.635
   587   1 H      0.924     0.111     1.684     2.029
   588   1 H      0.925     0.104     1.751     2.069
   589   7 N      3.487    -0.142    24.061     7.285
   590   1 H      0.860     0.292     0.738     1.346
   591   1 H      0.860     0.287     0.754     1.360
   592   1 H      0.860     0.305     0.698     1.308
   593   6 C      2.745     0.265    22.531     7.772
   594   8 O      0.864    -0.483    23.398     6.485
   595   7 N      2.690    -0.161    24.476     7.348
   596   1 H      0.860     0.209     1.062     1.614
   597   6 C      3.784     0.012    20.399     6.434
   598   1 H      0.925     0.090     1.877     2.143
   599   6 C      3.679     0.084    19.388     6.307
   600   1 H      0.924     0.034     2.532     2.488
   601   1 H      0.925     0.036     2.497     2.471
   602   8 O      1.658    -0.473    22.320     6.378
   603   1 H      0.805     0.348     0.593     1.209
   604   6 C      2.758     0.244    22.921     7.840
   605   8 O      0.857    -0.470    23.128     6.448
   606   7 N      2.745    -0.099    23.171     7.149
   607   6 C      3.805    -0.007    20.703     6.477
   608   1 H      0.925     0.066     2.126     2.280
   609   1 H      0.924     0.063     2.161     2.299
   610   6 C      3.815    -0.083    22.079     6.688
   611   1 H      0.925     0.078     1.996     2.209
   612   1 H      0.925     0.063     2.162     2.299
   613   6 C      3.836    -0.075    21.906     6.659
   614   1 H      0.925     0.068     2.106     2.269
   615   1 H      0.925     0.076     2.016     2.220
   616   6 C      3.843     0.022    20.174     6.389
   617   1 H      0.925     0.084     1.941     2.179
   618   6 C      2.751     0.278    22.291     7.731
   619   8 O      0.861    -0.453    22.776     6.399
   620   7 N      2.687    -0.186    25.033     7.431
   621   1 H      0.860     0.183     1.199     1.715
   622   6 C      3.783     0.010    20.420     6.437
   623   1 H      0.925     0.094     1.844     2.124
   624   6 C      3.689     0.069    19.604     6.337
   625   1 H      0.924     0.045     2.387     2.416
   626   1 H      0.924     0.048     2.347     2.396
   627   8 O      1.657    -0.471    22.275     6.371
   628   1 H      0.806     0.354     0.580     1.196
   629   6 C      2.747     0.266    22.505     7.768
   630   8 O      0.858    -0.492    23.617     6.516
   631   7 N      2.680    -0.163    24.524     7.355
   632   1 H      0.860     0.222     1.000     1.567
   633   6 C      3.783     0.005    20.511     6.451
   634   1 H      0.924     0.111     1.688     2.032
   635   6 C      3.811    -0.090    22.213     6.709
   636   1 H      0.925     0.051     2.302     2.373
   637   1 H      0.925     0.083     1.952     2.185
   638   6 C      3.849    -0.014    20.783     6.484
   639   1 H      0.925     0.050     2.321     2.383
   640   6 C      3.756    -0.142    23.296     6.882
   641   1 H      0.925     0.070     2.085     2.258
   642   1 H      0.924     0.055     2.257     2.350
   643   1 H      0.924     0.034     2.530     2.487
   644   6 C      3.757    -0.142    23.293     6.881
   645   1 H      0.925     0.045     2.387     2.416
   646   1 H      0.924     0.069     2.093     2.262
   647   1 H      0.924     0.071     2.077     2.254
   648   6 C      2.749     0.272    22.403     7.750
   649   8 O      0.859    -0.461    22.943     6.422
   650   7 N      2.682    -0.172    24.715     7.384
   651   1 H      0.860     0.225     0.987     1.556
   652   6 C      3.788     0.016    20.311     6.419
   653   1 H      0.925     0.107     1.724     2.053
   654   6 C      3.805    -0.119    22.773     6.794
   655   1 H      0.925     0.090     1.878     2.143
   656   1 H      0.925     0.115     1.652     2.010
   657   6 C      2.742     0.280    22.260     7.725
   658   8 O      0.858    -0.527    24.390     6.621
   659   7 N      2.635    -0.281    27.257     7.754
   660   1 H      0.860     0.225     0.985     1.555
   661   1 H      0.860     0.245     0.901     1.487
   662   6 C      2.745     0.267    22.501     7.767
   663   8 O      0.857    -0.511    24.030     6.572
   664   7 N      2.682    -0.190    25.128     7.445
   665   1 H      0.860     0.235     0.944     1.522
   666   6 C      3.790     0.022    20.207     6.402
   667   1 H      0.924     0.066     2.126     2.280
   668   6 C      3.752    -0.132    23.095     6.853
   669   1 H      0.925     0.059     2.211     2.325
   670   1 H      0.924     0.073     2.050     2.239
   671   1 H      0.925     0.081     1.965     2.192
   672   6 C      2.758     0.266    22.519     7.771
   673   8 O      0.858    -0.507    23.931     6.559
   674   7 N      2.700    -0.181    24.919     7.414
   675   1 H      0.860     0.238     0.933     1.513
   676   6 C      3.795     0.034    20.008     6.369
   677   1 H      0.925     0.058     2.228     2.334
   678   6 C      3.763    -0.140    23.250     6.873
   679   1 H      0.925     0.077     2.011     2.218
   680   1 H      0.924     0.073     2.048     2.238
   681   1 H      0.925     0.086     1.922     2.168
   682   6 C      2.744     0.261    22.594     7.783
   683   8 O      0.858    -0.506    23.912     6.556
   684   7 N      2.680    -0.190    25.124     7.444
   685   1 H      0.860     0.261     0.842     1.437
   686   6 C      3.792     0.014    20.349     6.424
   687   1 H      0.924     0.102     1.770     2.081
   688   6 C      3.800    -0.087    22.165     6.703
   689   1 H      0.925     0.062     2.181     2.310
   690   1 H      0.924     0.071     2.077     2.254
   691   6 C      3.792    -0.090    22.219     6.713
   692   1 H      0.924     0.094     1.842     2.122
   693   1 H      0.924     0.073     2.058     2.243
   694   6 C      3.799    -0.094    22.304     6.724
   695   1 H      0.924     0.073     2.050     2.239
   696   1 H      0.924     0.079     1.984     2.203
   697   6 C      3.728    -0.052    21.617     6.638
   698   1 H      0.924     0.129     1.540     1.940
   699   1 H      0.924     0.132     1.517     1.926
   700   7 N      3.485    -0.155    24.340     7.327
   701   1 H      0.860     0.267     0.821     1.419
   702   1 H      0.860     0.293     0.733     1.341
   703   1 H      0.860     0.310     0.684     1.296
   704   6 C      2.757     0.276    22.337     7.739
   705   8 O      0.858    -0.519    24.201     6.596
   706   7 N      2.690    -0.178    24.857     7.405
   707   1 H      0.860     0.222     0.999     1.566
   708   6 C      3.793     0.013    20.366     6.427
   709   1 H      0.925     0.077     2.008     2.216
   710   6 C      3.682     0.081    19.423     6.311
   711   1 H      0.924     0.039     2.469     2.457
   712   1 H      0.925     0.051     2.312     2.378
   713   8 O      1.658    -0.470    22.256     6.369
   714   1 H      0.806     0.352     0.584     1.200
   715   6 C      2.747     0.278    22.287     7.730
   716   8 O      0.861    -0.476    23.258     6.466
   717   7 N      2.685    -0.209    25.540     7.506
   718   1 H      0.860     0.218     1.020     1.582
   719   6 C      3.782     0.031    20.078     6.383
   720   1 H      0.925     0.076     2.026     2.226
   721   6 C      3.800    -0.044    21.361     6.581
   722   1 H      0.925     0.040     2.451     2.448
   723   1 H      0.924     0.049     2.334     2.389
   724   6 C      3.798    -0.102    22.441     6.745
   725   1 H      0.925     0.025     2.661     2.551
   726   1 H      0.925     0.028     2.622     2.532
   727   6 C      2.687     0.386    20.477     7.406
   728   8 O      0.861    -0.638    27.081     6.977
   729   8 O      0.860    -0.615    26.490     6.901
   730   6 C      2.746     0.261    22.609     7.786
   731   8 O      0.858    -0.503    23.846     6.547
   732   7 N      2.684    -0.203    25.405     7.486
   733   1 H      0.860     0.223     0.994     1.562
   734   6 C      3.785     0.023    20.197     6.401
   735   1 H      0.925     0.086     1.922     2.168
   736   6 C      3.804    -0.087    22.150     6.700
   737   1 H      0.925     0.062     2.173     2.305
   738   1 H      0.924     0.083     1.944     2.180
   739   6 C      3.851    -0.014    20.796     6.486
   740   1 H      0.924     0.023     2.685     2.563
   741   6 C      3.755    -0.129    23.034     6.843
   742   1 H      0.925     0.046     2.368     2.407
   743   1 H      0.925     0.055     2.262     2.352
   744   1 H      0.925     0.030     2.580     2.512
   745   6 C      3.763    -0.140    23.239     6.872
   746   1 H      0.924     0.070     2.089     2.260
   747   1 H      0.925     0.062     2.179     2.309
   748   1 H      0.924     0.073     2.049     2.239
   749   6 C      2.750     0.280    22.259     7.725
   750   8 O      0.862    -0.498    23.735     6.532
   751   7 N      2.682    -0.233    26.103     7.588
   752   1 H      0.860     0.220     1.008     1.573
   753   6 C      3.774     0.049    19.780     6.337
   754   1 H      0.924     0.056     2.246     2.344
   755   6 C      3.804    -0.094    22.281     6.720
   756   1 H      0.925     0.021     2.717     2.577
   757   1 H      0.924     0.052     2.295     2.369
   758   6 C      2.686     0.378    20.599     7.427
   759   8 O      0.857    -0.608    26.313     6.877
   760   8 O      0.857    -0.678    28.103     7.107
   761   6 C      2.744     0.282    22.225     7.719
   762   8 O      0.858    -0.532    24.500     6.636
   763   7 N      2.685    -0.177    24.828     7.400
   764   1 H      0.860     0.213     1.040     1.597
   765   6 C      3.780     0.025    20.176     6.399
   766   1 H      0.925     0.062     2.176     2.307
   767   6 C      3.804    -0.081    22.046     6.684
   768   1 H      0.924     0.063     2.165     2.301
   769   1 H      0.925     0.078     2.000     2.211
   770   6 C      3.799    -0.073    21.902     6.664
   771   1 H      0.925     0.063     2.167     2.302
   772   1 H      0.924     0.052     2.298     2.371
   773   6 C      3.795    -0.094    22.298     6.724
   774   1 H      0.924     0.076     2.017     2.221
   775   1 H      0.925     0.076     2.022     2.224
   776   6 C      3.724    -0.041    21.420     6.609
   777   1 H      0.924     0.099     1.792     2.093
   778   1 H      0.925     0.122     1.599     1.977
   779   7 N      3.485    -0.155    24.349     7.329
   780   1 H      0.860     0.289     0.748     1.355
   781   1 H      0.860     0.292     0.739     1.346
   782   1 H      0.860     0.293     0.735     1.343
   783   6 C      2.738     0.270    22.437     7.755
   784   8 O      0.857    -0.509    23.984     6.566
   785   7 N      2.688    -0.177    24.832     7.401
   786   1 H      0.860     0.225     0.985     1.555
   787   6 C      3.790     0.034    20.017     6.372
   788   1 H      0.924     0.072     2.062     2.245
   789   6 C      3.755    -0.131    23.082     6.850
   790   1 H      0.924     0.067     2.115     2.274
   791   1 H      0.924     0.081     1.968     2.194
   792   1 H      0.925     0.078     1.995     2.209
   793   6 C      2.751     0.285    22.165     7.709
   794   8 O      0.867    -0.480    23.339     6.477
   795   7 N      2.688    -0.203    25.420     7.488
   796   1 H      0.860     0.204     1.086     1.632
   797   6 C      3.778     0.020    20.256     6.412
   798   1 H      0.925     0.092     1.862     2.134
   799   6 C      3.849    -0.022    20.937     6.508
   800   1 H      0.925     0.057     2.236     2.338
   801   6 C      3.753    -0.122    22.890     6.822
   802   1 H      0.925     0.042     2.417     2.431
   803   1 H      0.925     0.070     2.089     2.261
   804   1 H      0.924     0.053     2.282     2.363
   805   6 C      3.799    -0.054    21.555     6.610
   806   1 H      0.924     0.010     2.898     2.662
   807   1 H      0.925     0.035     2.521     2.483
   808   6 C      3.750    -0.108    22.624     6.783
   809   1 H      0.925     0.038     2.478     2.462
   810   1 H      0.925     0.061     2.184     2.311
   811   1 H      0.924     0.050     2.325     2.384
   812   6 C      2.744     0.275    22.352     7.741
   813   8 O      0.861    -0.497    23.718     6.530
   814   7 N      2.682    -0.172    24.717     7.384
   815   1 H      0.860     0.193     1.145     1.676
   816   6 C      3.737    -0.025    21.101     6.555
   817   1 H      0.925     0.105     1.739     2.062
   818   1 H      0.925     0.089     1.891     2.150
   819   6 C      2.746     0.269    22.450     7.758
   820   8 O      0.858    -0.543    24.758     6.671
   821   7 N      2.689    -0.145    24.137     7.297
   822   1 H      0.860     0.201     1.101     1.643
   823   6 C      3.789     0.023    20.199     6.401
   824   1 H      0.925     0.073     2.057     2.243
   825   6 C      3.804    -0.075    21.934     6.667
   826   1 H      0.925     0.075     2.033     2.230
   827   1 H      0.925     0.080     1.974     2.197
   828   6 C      3.799    -0.072    21.878     6.660
   829   1 H      0.925     0.063     2.159     2.298
   830   1 H      0.925     0.077     2.012     2.218
   831   6 C      3.727    -0.011    20.872     6.523
   832   1 H      0.924     0.074     2.038     2.233
   833   1 H      0.925     0.056     2.252     2.347
   834   7 N      2.678    -0.190    25.130     7.445
   835   1 H      0.860     0.238     0.931     1.511
   836   6 C      2.731     0.242    22.955     7.844
   837   7 N      2.672    -0.270    26.979     7.714
   838   1 H      0.860     0.240     0.924     1.506
   839   1 H      0.860     0.243     0.910     1.494
   840   7 N      2.673    -0.280    27.225     7.749
   841   1 H      0.860     0.237     0.937     1.516
   842   1 H      0.860     0.248     0.889     1.477
   843   6 C      2.752     0.260    22.619     7.788
   844   8 O      0.859    -0.493    23.629     6.517
   845   7 N      2.694    -0.175    24.787     7.394
   846   1 H      0.860     0.215     1.030     1.590
   847   6 C      3.790     0.041    19.903     6.354
   848   1 H      0.925     0.083     1.952     2.185
   849   6 C      3.800    -0.108    22.557     6.762
   850   1 H      0.925     0.090     1.878     2.143
   851   1 H      0.925     0.081     1.972     2.196
   852   6 C      2.734     0.282    22.227     7.719
   853   8 O      0.864    -0.489    23.530     6.504
   854   7 N      2.639    -0.284    27.328     7.764
   855   1 H      0.860     0.258     0.854     1.448
   856   1 H      0.860     0.229     0.971     1.544
   857   6 C      2.745     0.274    22.365     7.744
   858   8 O      0.858    -0.483    23.416     6.488
   859   7 N      2.680    -0.176    24.821     7.399
   860   1 H      0.860     0.201     1.103     1.645
   861   6 C      3.802     0.017    20.283     6.412
   862   1 H      0.925     0.105     1.740     2.063
   863   6 C      3.806    -0.023    20.978     6.520
   864   1 H      0.925     0.054     2.277     2.360
   865   1 H      0.924     0.111     1.686     2.030
   866  16 S      1.911    -0.229   150.831    20.671
   867   1 H      0.922     0.162     1.312     1.791
   868   6 C      2.768     0.271    22.431     7.756
   869   8 O      0.859    -0.458    22.884     6.414
   870   7 N      2.683    -0.185    25.014     7.428
   871   1 H      0.860     0.189     1.161     1.688
   872   6 C      3.784     0.026    20.159     6.396
   873   1 H      0.925     0.099     1.791     2.093
   874   6 C      3.796    -0.101    22.439     6.745
   875   1 H      0.925     0.089     1.892     2.151
   876   1 H      0.924     0.078     2.000     2.212
   877   6 C      2.735     0.276    22.333     7.737
   878   8 O      0.860    -0.504    23.866     6.550
   879   7 N      2.637    -0.270    26.994     7.716
   880   1 H      0.860     0.252     0.874     1.465
   881   1 H      0.860     0.239     0.929     1.510
   882   6 C      2.744     0.260    22.612     7.786
   883   8 O      0.857    -0.462    22.968     6.425
   884   7 N      2.675    -0.160    24.458     7.345
   885   1 H      0.861     0.184     1.189     1.708
   886   6 C      3.732    -0.063    21.807     6.665
   887   1 H      0.924     0.148     1.408     1.855
   888   1 H      0.924     0.121     1.601     1.979
   889   6 C      2.743     0.267    22.496     7.766
   890   8 O      0.858    -0.450    22.710     6.389
   891   7 N      2.679    -0.160    24.463     7.346
   892   1 H      0.860     0.195     1.132     1.666
   893   6 C      3.779     0.011    20.421     6.438
   894   1 H      0.924     0.082     1.957     2.188
   895   6 C      3.852    -0.018    20.864     6.497
   896   1 H      0.925     0.041     2.432     2.439
   897   6 C      3.751    -0.117    22.799     6.809
   898   1 H      0.925     0.017     2.775     2.605
   899   1 H      0.924     0.065     2.142     2.289
   900   1 H      0.925     0.052     2.297     2.370
   901   6 C      3.755    -0.129    23.042     6.844
   902   1 H      0.924     0.053     2.282     2.363
   903   1 H      0.925     0.054     2.275     2.359
   904   1 H      0.925     0.067     2.116     2.275
   905   6 C      2.747     0.258    22.649     7.793
   906   8 O      0.857    -0.516    24.140     6.587
   907   7 N      2.682    -0.153    24.317     7.324
   908   1 H      0.860     0.229     0.971     1.543
   909   6 C      3.777     0.007    20.492     6.450
   910   1 H      0.924     0.076     2.019     2.222
   911   6 C      3.834    -0.024    20.974     6.516
   912   1 H      0.924     0.037     2.485     2.465
   913   6 C      3.750    -0.118    22.825     6.813
   914   1 H      0.924     0.040     2.453     2.449
   915   1 H      0.925     0.039     2.462     2.454
   916   1 H      0.925     0.062     2.175     2.306
   917   6 C      3.788    -0.073    21.912     6.667
   918   1 H      0.925     0.040     2.451     2.448
   919   1 H      0.925     0.069     2.093     2.262
   920   6 C      3.743    -0.115    22.776     6.808
   921   1 H      0.925     0.021     2.725     2.581
   922   1 H      0.925     0.038     2.470     2.458
   923   1 H      0.924     0.056     2.251     2.346
   924   6 C      2.742     0.269    22.462     7.760
   925   8 O      0.858    -0.457    22.850     6.409
   926   7 N      2.682    -0.184    24.982     7.423
   927   1 H      0.860     0.206     1.077     1.626
   928   6 C      3.785     0.002    20.563     6.459
   929   1 H      0.925     0.098     1.803     2.100
   930   6 C      3.754     0.103    18.941     6.206
   931   1 H      0.925     0.059     2.207     2.323
   932   6 C      3.747    -0.143    23.323     6.888
   933   1 H      0.925     0.055     2.253     2.347
   934   1 H      0.924     0.068     2.112     2.273
   935   1 H      0.925     0.067     2.115     2.274
   936   8 O      1.652    -0.489    22.664     6.427
   937   1 H      0.805     0.326     0.647     1.263
   938   6 C      2.777     0.275    22.358     7.745
   939   8 O      0.861    -0.470    23.128     6.448
   940   7 N      2.685    -0.195    25.234     7.461
   941   1 H      0.860     0.216     1.029     1.589
   942   6 C      3.782     0.013    20.385     6.432
   943   1 H      0.924     0.101     1.777     2.085
   944   6 C      3.801    -0.095    22.305     6.724
   945   1 H      0.925     0.091     1.867     2.137
   946   1 H      0.924     0.082     1.962     2.191
   947   6 C      3.803    -0.082    22.071     6.688
   948   1 H      0.925     0.055     2.261     2.352
   949   1 H      0.924     0.065     2.145     2.290
   950   6 C      3.798    -0.098    22.375     6.735
   951   1 H      0.925     0.095     1.832     2.117
   952   1 H      0.925     0.082     1.960     2.189
   953   6 C      3.738    -0.065    21.833     6.668
   954   1 H      0.924     0.114     1.662     2.016
   955   1 H      0.924     0.126     1.569     1.959
   956   7 N      3.489    -0.138    23.977     7.273
   957   1 H      0.860     0.294     0.730     1.339
   958   1 H      0.860     0.304     0.702     1.312
   959   1 H      0.860     0.301     0.709     1.319
   960   6 C      2.755     0.275    22.351     7.742
   961   8 O      0.860    -0.498    23.738     6.532
   962   7 N      2.685    -0.188    25.075     7.437
   963   1 H      0.860     0.210     1.054     1.608
   964   6 C      3.781     0.027    20.144     6.394
   965   1 H      0.925     0.074     2.043     2.235
   966   6 C      3.809    -0.091    22.218     6.710
   967   1 H      0.925     0.053     2.282     2.362
   968   1 H      0.924     0.065     2.147     2.291
   969   6 C      2.692     0.370    20.728     7.451
   970   8 O      0.859    -0.653    27.455     7.025
   971   8 O      0.861    -0.634    26.978     6.964
   972   6 C      2.747     0.271    22.420     7.753
   973   8 O      0.863    -0.514    24.095     6.581
   974   7 N      2.682    -0.187    25.046     7.433
   975   1 H      0.860     0.215     1.033     1.592
   976   6 C      3.775     0.029    20.108     6.389
   977   1 H      0.925     0.083     1.947     2.182
   978   6 C      3.803    -0.058    21.612     6.619
   979   1 H      0.925     0.056     2.250     2.346
   980   1 H      0.925     0.066     2.129     2.282
   981   6 C      3.807    -0.099    22.379     6.734
   982   1 H      0.924     0.053     2.289     2.366
   983   1 H      0.925     0.030     2.585     2.514
   984   6 C      2.689     0.373    20.674     7.441
   985   8 O      0.858    -0.589    25.843     6.816
   986   8 O      0.858    -0.596    26.024     6.840
   987   6 C      2.738     0.254    22.724     7.805
   988   8 O      0.857    -0.489    23.550     6.506
   989   7 N      2.679    -0.172    24.728     7.385
   990   1 H      0.860     0.216     1.027     1.587
   991   6 C      3.779     0.025    20.181     6.400
   992   1 H      0.924     0.085     1.931     2.173
   993   6 C      3.752    -0.133    23.125     6.858
   994   1 H      0.924     0.075     2.030     2.228
   995   1 H      0.925     0.068     2.108     2.271
   996   1 H      0.925     0.085     1.933     2.174
   997   6 C      2.745     0.258    22.649     7.792
   998   8 O      0.860    -0.528    24.422     6.626
   999   7 N      2.689    -0.196    25.254     7.464
  1000   1 H      0.860     0.242     0.915     1.498
  1001   6 C      3.793     0.047    19.789     6.335
  1002   1 H      0.925     0.065     2.143     2.289
  1003   6 C      3.808    -0.059    21.627     6.620
  1004   1 H      0.925     0.037     2.489     2.467
  1005   1 H      0.924     0.089     1.892     2.151
  1006   6 C      3.799    -0.088    22.184     6.706
  1007   1 H      0.924     0.020     2.727     2.583
  1008   1 H      0.924     0.044     2.395     2.420
  1009   6 C      2.685     0.347    21.104     7.518
  1010   8 O      0.856    -0.584    25.721     6.800
  1011   8 O      0.855    -0.631    26.889     6.952
  1012   6 C      2.750     0.267    22.491     7.766
  1013   8 O      0.857    -0.535    24.574     6.646
  1014   7 N      2.684    -0.174    24.771     7.392
  1015   1 H      0.860     0.228     0.973     1.545
  1016   6 C      3.792     0.024    20.183     6.398
  1017   1 H      0.924     0.086     1.915     2.164
  1018   6 C      3.797    -0.084    22.107     6.695
  1019   1 H      0.924     0.068     2.108     2.271
  1020   1 H      0.925     0.067     2.116     2.275
  1021   6 C      3.795    -0.077    21.981     6.676
  1022   1 H      0.924     0.061     2.192     2.315
  1023   1 H      0.925     0.070     2.086     2.259
  1024   6 C      3.804    -0.089    22.203     6.708
  1025   1 H      0.924     0.085     1.929     2.172
  1026   1 H      0.924     0.075     2.030     2.228
  1027   6 C      3.734    -0.035    21.287     6.585
  1028   1 H      0.924     0.092     1.860     2.133
  1029   1 H      0.925     0.096     1.819     2.109
  1030   7 N      3.488    -0.158    24.399     7.336
  1031   1 H      0.860     0.294     0.731     1.339
  1032   1 H      0.860     0.301     0.710     1.320
  1033   1 H      0.861     0.297     0.723     1.332
  1034   6 C      2.760     0.265    22.534     7.774
  1035   8 O      0.861    -0.509    23.981     6.566
  1036   7 N      2.693    -0.167    24.621     7.370
  1037   1 H      0.860     0.203     1.091     1.636
  1038   6 C      3.797     0.031    20.054     6.377
  1039   1 H      0.924     0.085     1.928     2.172
  1040   6 C      3.805    -0.081    22.046     6.684
  1041   1 H      0.925     0.049     2.327     2.385
  1042   1 H      0.924     0.058     2.224     2.332
  1043   6 C      3.847    -0.018    20.864     6.497
  1044   1 H      0.925     0.057     2.229     2.335
  1045   6 C      3.768    -0.125    22.943     6.826
  1046   1 H      0.924     0.048     2.344     2.394
  1047   1 H      0.925     0.045     2.390     2.417
  1048   1 H      0.925     0.068     2.106     2.270
  1049   6 C      3.762    -0.127    22.983     6.834
  1050   1 H      0.924     0.062     2.170     2.304
  1051   1 H      0.925     0.028     2.611     2.527
  1052   1 H      0.924     0.039     2.456     2.451
  1053   6 C      2.748     0.266    22.502     7.767
  1054   8 O      0.858    -0.554    25.008     6.705
  1055   7 N      2.686    -0.163    24.521     7.354
  1056   1 H      0.860     0.226     0.982     1.553
  1057   6 C      3.781     0.033    20.038     6.377
  1058   1 H      0.925     0.064     2.151     2.294
  1059   6 C      3.804    -0.073    21.890     6.661
  1060   1 H      0.925     0.055     2.256     2.349
  1061   1 H      0.925     0.065     2.146     2.291
  1062   6 C      2.957     0.003    27.959     8.673
  1063   6 C      2.918    -0.028    28.691     8.784
  1064   1 H      0.926     0.017     2.785     2.610
  1065   6 C      2.905    -0.028    28.690     8.783
  1066   1 H      0.926     0.026     2.639     2.540
  1067   6 C      2.922    -0.040    28.983     8.828
  1068   1 H      0.926     0.055     2.260     2.351
  1069   6 C      2.916    -0.035    28.861     8.810
  1070   1 H      0.926     0.054     2.268     2.355
  1071   6 C      2.919    -0.036    28.905     8.816
  1072   1 H      0.926     0.054     2.274     2.358
  1073   6 C      2.750     0.276    22.324     7.737
  1074   8 O      0.856    -0.476    23.266     6.467
  1075   7 N      2.688    -0.200    25.338     7.476
  1076   1 H      0.860     0.232     0.958     1.533
  1077   6 C      3.797     0.041    19.891     6.351
  1078   1 H      0.925     0.083     1.953     2.185
  1079   6 C      3.810    -0.106    22.523     6.755
  1080   1 H      0.925     0.052     2.290     2.366
  1081   1 H      0.925     0.094     1.843     2.123
  1082   6 C      2.745     0.301    21.895     7.662
  1083   8 O      0.878    -0.506    23.911     6.556
  1084   7 N      2.658    -0.271    27.005     7.718
  1085   1 H      0.860     0.253     0.871     1.462
  1086   1 H      0.860     0.231     0.963     1.537
  1087   6 C      2.744     0.281    22.236     7.721
  1088   8 O      0.860    -0.517    24.171     6.592
  1089   7 N      2.681    -0.174    24.764     7.391
  1090   1 H      0.860     0.213     1.041     1.598
  1091   6 C      3.779     0.026    20.151     6.395
  1092   1 H      0.925     0.073     2.048     2.238
  1093   6 C      3.809    -0.068    21.794     6.645
  1094   1 H      0.925     0.072     2.064     2.247
  1095   1 H      0.925     0.060     2.203     2.321
  1096   6 C      3.794    -0.106    22.533     6.760
  1097   1 H      0.924     0.081     1.971     2.196
  1098   1 H      0.925     0.077     2.010     2.217
  1099   6 C      2.737     0.287    22.133     7.703
  1100   8 O      0.897    -0.542    24.709     6.666
  1101   7 N      2.673    -0.263    26.809     7.690
  1102   1 H      0.860     0.252     0.874     1.464
  1103   1 H      0.860     0.227     0.978     1.549
  1104   6 C      2.749     0.283    22.214     7.718
  1105   8 O      0.858    -0.447    22.639     6.379
  1106   7 N      2.685    -0.189    25.100     7.441
  1107   1 H      0.860     0.199     1.109     1.650
  1108   6 C      3.784     0.035    19.995     6.369
  1109   1 H      0.924     0.073     2.053     2.241
  1110   6 C      3.804    -0.081    22.052     6.685
  1111   1 H      0.924     0.046     2.375     2.410
  1112   1 H      0.925     0.038     2.475     2.460
  1113   6 C      2.688     0.363    20.845     7.472
  1114   8 O      0.857    -0.616    26.515     6.904
  1115   8 O      0.857    -0.617    26.538     6.907
  1116   6 C      2.745     0.268    22.469     7.761
  1117   8 O      0.862    -0.464    23.009     6.431
  1118   7 N      2.688    -0.192    25.174     7.452
  1119   1 H      0.860     0.200     1.106     1.647
  1120   6 C      3.786     0.021    20.235     6.407
  1121   1 H      0.925     0.084     1.938     2.177
  1122   6 C      3.848    -0.016    20.832     6.492
  1123   1 H      0.925     0.041     2.436     2.441
  1124   6 C      3.758    -0.121    22.879     6.820
  1125   1 H      0.924     0.059     2.214     2.327
  1126   1 H      0.925     0.044     2.397     2.421
  1127   1 H      0.925     0.061     2.189     2.314
  1128   6 C      3.759    -0.122    22.881     6.819
  1129   1 H      0.925     0.037     2.485     2.465
  1130   1 H      0.925     0.065     2.146     2.291
  1131   1 H      0.925     0.058     2.219     2.329
  1132   6 C      2.749     0.276    22.335     7.738
  1133   8 O      0.857    -0.474    23.221     6.461
  1134   7 N      2.688    -0.203    25.422     7.488
  1135   1 H      0.860     0.208     1.067     1.618
  1136   6 C      3.781     0.035    20.011     6.373
  1137   1 H      0.925     0.079     1.988     2.205
  1138   6 C      3.805    -0.087    22.157     6.701
  1139   1 H      0.924     0.018     2.768     2.602
  1140   1 H      0.925     0.033     2.539     2.492
  1141   6 C      2.690     0.362    20.858     7.474
  1142   8 O      0.857    -0.624    26.721     6.931
  1143   8 O      0.857    -0.614    26.453     6.896
  1144   6 C      2.743     0.280    22.267     7.726
  1145   8 O      0.860    -0.450    22.708     6.389
  1146   7 N      2.694    -0.173    24.751     7.389
  1147   1 H      0.860     0.184     1.192     1.711
  1148   6 C      3.794     0.030    20.085     6.382
  1149   1 H      0.925     0.095     1.834     2.118
  1150   6 C      3.778    -0.135    23.121     6.850
  1151   1 H      0.925     0.063     2.162     2.300
  1152   1 H      0.925     0.086     1.914     2.163
  1153   1 H      0.925     0.058     2.218     2.329
  1154   6 C      2.776     0.262    22.585     7.784
  1155   8 O      0.860    -0.493    23.625     6.517
  1156   7 N      2.693    -0.185    25.012     7.428
  1157   1 H      0.860     0.211     1.054     1.608
  1158   6 C      3.776     0.021    20.239     6.410
  1159   1 H      0.924     0.081     1.966     2.193
  1160   6 C      3.762    -0.123    22.903     6.822
  1161   1 H      0.925     0.062     2.178     2.308
  1162   1 H      0.925     0.049     2.330     2.387
[...]
  2291  N   3.466        C 2289 1.298    C 2293 0.973    H 2292 0.922    O 2290 0.196
  2292  H   0.959        N 2291 0.922
  2293  C   3.960        C 2295 0.978    N 2291 0.973    H 2294 0.943    C 2313 0.942
  2294  H   0.992        C 2293 0.943
  2295  C   3.981        C 2298 0.995    C 2293 0.978    H 2297 0.974    H 2296 0.967
  2296  H   0.994        C 2295 0.967
  2297  H   0.995        C 2295 0.974
  2298  C   3.987        C 2301 1.000    C 2295 0.995    H 2300 0.976    H 2299 0.974
  2299  H   0.994        C 2298 0.974
  2300  H   0.997        C 2298 0.976
  2301  C   3.938        C 2298 1.000    H 2302 0.968    H 2303 0.965    N 2304 0.959
  2302  H   0.994        C 2301 0.968
  2303  H   0.990        C 2301 0.965
  2304  N   3.438        C 2306 1.309    C 2301 0.959    H 2305 0.903    N 2310 0.103    N 2307 0.100
  2305  H   0.943        N 2304 0.903
  2306  C   3.975        N 2310 1.328    N 2304 1.309    N 2307 1.304
  2307  N   3.383        C 2306 1.304    H 2309 0.928    H 2308 0.862    N 2310 0.101    N 2304 0.100
  2308  H   0.943        N 2307 0.862
  2309  H   0.949        N 2307 0.928
  2310  N   3.395        C 2306 1.328    H 2311 0.930    H 2312 0.862    N 2304 0.103    N 2307 0.101
  2311  H   0.957        N 2310 0.930
  2312  H   0.931        N 2310 0.862
  2313  C   3.960        O 2314 1.572    N 2315 1.363    C 2293 0.942
  2314  O   1.910        C 2313 1.572    N 2315 0.202
  2315  N   3.515        C 2313 1.363    C 2317 0.981    H 2316 0.887    O 2314 0.202
  2316  H   0.946        N 2315 0.887
  2317  C   3.955        C 2319 0.986    N 2315 0.981    H 2318 0.950    C 2323 0.923
  2318  H   0.993        C 2317 0.950
  2319  C   3.982        C 2317 0.986    H 2322 0.982    H 2321 0.979    H 2320 0.976
  2320  H   0.993        C 2319 0.976
  2321  H   0.996        C 2319 0.979
  2322  H   0.995        C 2319 0.982
  2323  C   3.950        O 2324 1.641    N 2325 1.299    C 2317 0.923
  2324  O   2.009        C 2323 1.641    N 2325 0.206
  2325  N   3.475        C 2323 1.299    C 2327 0.976    H 2326 0.910    O 2324 0.206
  2326  H   0.954        N 2325 0.910
  2327  C   3.955        C 2329 0.982    N 2325 0.976    H 2328 0.948    C 2345 0.926
  2328  H   0.991        C 2327 0.948
  2329  C   3.977        C 2332 0.989    C 2327 0.982    H 2330 0.973    H 2331 0.968
  2330  H   0.996        C 2329 0.973
  2331  H   0.992        C 2329 0.968
  2332  C   3.987        C 2335 1.015    C 2329 0.989    H 2334 0.972    H 2333 0.972
  2333  H   0.994        C 2332 0.972
  2334  H   0.996        C 2332 0.972
  2335  C   3.985        C 2332 1.015    C 2338 1.009    H 2337 0.968    H 2336 0.966
  2336  H   0.994        C 2335 0.966
  2337  H   0.994        C 2335 0.968
  2338  C   3.903        C 2335 1.009    H 2340 0.964    H 2339 0.962    N 2341 0.942
  2339  H   0.983        C 2338 0.962
  2340  H   0.985        C 2338 0.964
  2341  N   3.659        C 2338 0.942    H 2342 0.900    H 2344 0.898    H 2343 0.897
  2342  H   0.913        N 2341 0.900
  2343  H   0.911        N 2341 0.897
  2344  H   0.911        N 2341 0.898
  2345  C   3.944        O 2346 1.565    N 2347 1.362    C 2327 0.926
  2346  O   1.938        C 2345 1.565    N 2347 0.191
  2347  N   3.501        C 2345 1.362    C 2349 0.959    H 2348 0.886    O 2346 0.191
  2348  H   0.947        N 2347 0.886
  2349  C   3.965        C 2351 0.991    N 2347 0.959    C 2369 0.949    H 2350 0.945
  2350  H   0.992        C 2349 0.945
  2351  C   3.986        C 2354 0.996    C 2349 0.991    H 2352 0.973    H 2353 0.966
  2352  H   0.996        C 2351 0.973
  2353  H   0.995        C 2351 0.966
  2354  C   3.986        C 2357 0.997    C 2351 0.996    H 2356 0.972    H 2355 0.967
  2355  H   0.991        C 2354 0.967
  2356  H   0.996        C 2354 0.972
  2357  C   3.954        C 2354 0.997    N 2360 0.994    H 2358 0.962    H 2359 0.955
  2358  H   0.995        C 2357 0.962
  2359  H   0.993        C 2357 0.955
  2360  N   3.475        C 2362 1.331    C 2357 0.994    H 2361 0.858    N 2363 0.105
  2361  H   0.935        N 2360 0.858
  2362  C   3.974        N 2360 1.331    N 2363 1.308    N 2366 1.297
  2363  N   3.386        C 2362 1.308    H 2364 0.924    H 2365 0.913    N 2360 0.105
  2364  H   0.948        N 2363 0.924
  2365  H   0.937        N 2363 0.913
  2366  N   3.380        C 2362 1.297    H 2367 0.926    H 2368 0.912
  2367  H   0.949        N 2366 0.926
  2368  H   0.952        N 2366 0.912
  2369  C   3.948        O 2370 1.626    N 2371 1.289    C 2349 0.949
  2370  O   1.957        C 2369 1.626    N 2371 0.195
  2371  N   3.472        C 2369 1.289    C 2373 0.993    H 2372 0.907    O 2370 0.195
  2372  H   0.952        N 2371 0.907
  2373  C   3.961        N 2371 0.993    C 2375 0.964    H 2374 0.950    C 2385 0.914
  2374  H   0.996        C 2373 0.950
  2375  C   3.987        C 2381 1.013    C 2377 1.001    C 2373 0.964    H 2376 0.963
  2376  H   0.997        C 2375 0.963
  2377  C   3.991        C 2375 1.001    H 2378 0.983    H 2380 0.980    H 2379 0.977
  2378  H   0.998        C 2377 0.983
  2379  H   0.998        C 2377 0.977
  2380  H   0.996        C 2377 0.980
  2381  C   3.991        C 2375 1.013    H 2382 0.982    H 2383 0.980    H 2384 0.979
  2382  H   0.999        C 2381 0.982
  2383  H   0.996        C 2381 0.980
  2384  H   0.997        C 2381 0.979
  2385  C   3.950        O 2386 1.606    N 2387 1.343    C 2373 0.914
  2386  O   1.957        C 2385 1.606    N 2387 0.197
  2387  N   3.479        C 2385 1.343    C 2389 0.960    H 2388 0.888    O 2386 0.197
  2388  H   0.949        N 2387 0.888
  2389  C   3.954        C 2391 0.960    N 2387 0.960    C 2404 0.950    H 2390 0.941
  2390  H   0.992        C 2389 0.941
  2391  C   3.984        C 2393 1.017    C 2397 0.987    C 2389 0.960    H 2392 0.955
  2392  H   0.996        C 2391 0.955
  2393  C   3.987        C 2391 1.017    H 2395 0.981    H 2394 0.974    H 2396 0.971
  2394  H   0.996        C 2393 0.974
  2395  H   0.998        C 2393 0.981
  2396  H   0.993        C 2393 0.971
  2397  C   3.994        C 2400 1.023    C 2391 0.987    H 2399 0.973    H 2398 0.972
  2398  H   0.998        C 2397 0.972
  2399  H   0.997        C 2397 0.973
  2400  C   3.991        C 2397 1.023    H 2403 0.983    H 2402 0.979    H 2401 0.977
  2401  H   0.998        C 2400 0.977
  2402  H   0.997        C 2400 0.979
  2403  H   0.999        C 2400 0.983
  2404  C   3.948        O 2405 1.627    N 2406 1.284    C 2389 0.950
  2405  O   1.971        C 2404 1.627    N 2406 0.193
  2406  N   3.450        C 2404 1.284    C 2408 0.985    H 2407 0.889    O 2405 0.193
  2407  H   0.948        N 2406 0.889
  2408  C   3.965        N 2406 0.985    C 2410 0.953    H 2409 0.950    C 2418 0.925
  2409  H   0.991        C 2408 0.950
  2410  C   3.966        O 2416 1.011    C 2412 1.000    C 2408 0.953    H 2411 0.951
  2411  H   0.999        C 2410 0.951
  2412  C   3.984        C 2410 1.000    H 2413 0.982    H 2415 0.981    H 2414 0.980
  2413  H   0.999        C 2412 0.982
  2414  H   0.996        C 2412 0.980
  2415  H   0.995        C 2412 0.981
  2416  O   1.944        C 2410 1.011    H 2417 0.828
  2417  H   0.881        O 2416 0.828
  2418  C   3.943        O 2419 1.633    N 2420 1.302    C 2408 0.925
  2419  O   1.983        C 2418 1.633    N 2420 0.197
  2420  N   3.462        C 2418 1.302    C 2422 0.961    H 2421 0.916    O 2419 0.197
  2421  H   0.956        N 2420 0.916
  2422  C   3.959        C 2424 0.966    N 2420 0.961    H 2423 0.953    C 2432 0.937
  2423  H   0.992        C 2422 0.953
  2424  C   3.954        C 2426 0.997    O 2430 0.986    C 2422 0.966    H 2425 0.963
  2425  H   0.999        C 2424 0.963
  2426  C   3.986        C 2424 0.997    H 2428 0.980    H 2427 0.980    H 2429 0.977
  2427  H   0.995        C 2426 0.980
  2428  H   0.997        C 2426 0.980
  2429  H   0.995        C 2426 0.977
  2430  O   1.946        C 2424 0.986    H 2431 0.870
  2431  H   0.901        O 2430 0.870
  2432  C   3.956        O 2433 1.600    N 2434 1.342    C 2422 0.937
  2433  O   1.926        C 2432 1.600    N 2434 0.200
  2434  N   3.488        C 2432 1.342    C 2436 0.963    H 2435 0.898    O 2433 0.200
  2435  H   0.945        N 2434 0.898
  2436  C   3.951        N 2434 0.963    C 2438 0.953    C 2452 0.949    H 2437 0.945
  2437  H   0.991        C 2436 0.945
  2438  C   3.974        C 2441 1.009    H 2440 0.968    C 2436 0.953    H 2439 0.951
  2439  H   0.993        C 2438 0.951
  2440  H   0.994        C 2438 0.968
  2441  C   3.986        C 2450 1.415    C 2442 1.414    C 2438 1.009    C 2446 0.104
  2442  C   3.987        C 2444 1.429    C 2441 1.414    H 2443 0.960    C 2448 0.117
  2443  H   0.999        C 2442 0.960
  2444  C   3.989        C 2446 1.450    C 2442 1.429    H 2445 0.966    C 2450 0.110
  2445  H   0.997        C 2444 0.966
  2446  C   3.988        C 2444 1.450    C 2448 1.427    H 2447 0.969    C 2441 0.104
  2447  H   0.997        C 2446 0.969
  2448  C   3.988        C 2450 1.439    C 2446 1.427    H 2449 0.969    C 2442 0.117
  2449  H   0.997        C 2448 0.969
  2450  C   3.989        C 2448 1.439    C 2441 1.415    H 2451 0.962    C 2444 0.110
  2451  H   0.998        C 2450 0.962
  2452  C   3.949        O 2453 1.629    N 2454 1.288    C 2436 0.949
  2453  O   1.994        C 2452 1.629    N 2454 0.194
  2454  N   3.446        C 2452 1.288    C 2456 0.978    H 2455 0.892    O 2453 0.194
  2455  H   0.947        N 2454 0.892
  2456  C   3.958        C 2458 0.984    N 2454 0.978    H 2457 0.944    C 2476 0.920
  2457  H   0.993        C 2456 0.944
  2458  C   3.979        C 2461 0.997    C 2456 0.984    H 2459 0.971    H 2460 0.966
  2459  H   0.994        C 2458 0.971
  2460  H   0.991        C 2458 0.966
  2461  C   3.989        C 2464 0.998    C 2458 0.997    H 2462 0.974    H 2463 0.971
  2462  H   0.996        C 2461 0.974
  2463  H   0.995        C 2461 0.971
  2464  C   3.953        C 2461 0.998    N 2467 0.978    H 2465 0.967    H 2466 0.965
  2465  H   0.993        C 2464 0.967
  2466  H   0.990        C 2464 0.965
  2467  N   3.482        C 2469 1.344    C 2464 0.978    H 2468 0.883    N 2473 0.111
  2468  H   0.945        N 2467 0.883
  2469  C   3.977        N 2467 1.344    N 2473 1.332    N 2470 1.270
  2470  N   3.337        C 2469 1.270    H 2472 0.923    H 2471 0.909
  2471  H   0.935        N 2470 0.909
  2472  H   0.944        N 2470 0.923
  2473  N   3.398        C 2469 1.332    H 2474 0.908    H 2475 0.876    N 2467 0.111
  2474  H   0.936        N 2473 0.908
  2475  H   0.940        N 2473 0.876
  2476  C   3.942        O 2477 1.640    N 2478 1.298    C 2456 0.920
  2477  O   1.977        C 2476 1.640    N 2478 0.199
  2478  N   3.466        C 2476 1.298    C 2480 0.983    H 2479 0.887    O 2477 0.199
  2479  H   0.943        N 2478 0.887
  2480  C   3.973        N 2478 0.983    C 2482 0.963    C 2490 0.956    H 2481 0.944
  2481  H   0.992        C 2480 0.944
  2482  C   3.951        C 2484 0.990    O 2488 0.975    H 2483 0.967    C 2480 0.963
  2483  H   0.999        C 2482 0.967
  2484  C   3.966        C 2482 0.990    H 2485 0.980    H 2487 0.979    H 2486 0.970
  2485  H   0.997        C 2484 0.980
  2486  H   0.991        C 2484 0.970
  2487  H   0.994        C 2484 0.979
  2488  O   1.951        C 2482 0.975    H 2489 0.857
  2489  H   0.897        O 2488 0.857
  2490  C   3.956        O 2491 1.601    N 2492 1.316    C 2480 0.956
  2491  O   1.918        C 2490 1.601    N 2492 0.200
  2492  N   3.500        C 2490 1.316    C 2494 0.996    H 2493 0.910    O 2491 0.200
  2493  H   0.951        N 2492 0.910
  2494  C   3.960        N 2492 0.996    H 2495 0.954    H 2496 0.951    C 2497 0.929
  2495  H   0.989        C 2494 0.954
  2496  H   0.989        C 2494 0.951
  2497  C   3.949        O 2498 1.678    N 2499 1.278    C 2494 0.929
  2498  O   1.997        C 2497 1.678    N 2499 0.195
  2499  N   3.457        C 2497 1.278    C 2501 1.003    H 2500 0.890    O 2498 0.195
  2500  H   0.952        N 2499 0.890
  2501  C   3.976        N 2499 1.003    C 2503 0.965    H 2502 0.945    C 2511 0.921
  2502  H   0.993        C 2501 0.945
  2503  C   3.949        C 2505 0.999    C 2501 0.965    H 2504 0.964    O 2509 0.960
  2504  H   0.998        C 2503 0.964
  2505  C   3.987        C 2503 0.999    H 2508 0.985    H 2507 0.982    H 2506 0.979
  2506  H   0.995        C 2505 0.979
  2507  H   0.995        C 2505 0.982
  2508  H   0.995        C 2505 0.985
  2509  O   1.935        C 2503 0.960    H 2510 0.872
  2510  H   0.888        O 2509 0.872
  2511  C   3.952        O 2512 1.618    N 2513 1.317    C 2501 0.921
  2512  O   1.971        C 2511 1.618    N 2513 0.192
  2513  N   3.484        C 2511 1.317    C 2515 0.983    H 2514 0.914    O 2512 0.192
  2514  H   0.952        N 2513 0.914
  2515  C   3.960        N 2513 0.983    C 2517 0.971    C 2535 0.946    H 2516 0.933
  2516  H   0.992        C 2515 0.933
  2517  C   3.980        C 2520 0.996    C 2515 0.971    H 2519 0.970    H 2518 0.964
  2518  H   0.996        C 2517 0.964
  2519  H   0.996        C 2517 0.970
  2520  C   3.970        C 2521 1.628    C 2534 1.165    C 2517 0.996
  2521  C   3.962        C 2520 1.628    N 2523 1.198    H 2522 0.963
  2522  H   0.997        C 2521 0.963
  2523  N   3.545        C 2521 1.198    C 2525 1.180    H 2524 0.929
  2524  H   0.957        N 2523 0.929
  2525  C   3.961        C 2526 1.362    C 2534 1.224    N 2523 1.180
  2526  C   3.986        C 2528 1.453    C 2525 1.362    H 2527 0.965    C 2532 0.116
  2527  H   0.996        C 2526 0.965
  2528  C   3.990        C 2526 1.453    C 2530 1.416    H 2529 0.970
  2529  H   0.998        C 2528 0.970
  2530  C   3.987        C 2532 1.443    C 2528 1.416    H 2531 0.969
  2531  H   0.999        C 2530 0.969
  2532  C   3.990        C 2530 1.443    C 2534 1.383    H 2533 0.969    C 2526 0.116
  2533  H   0.999        C 2532 0.969
  2534  C   3.982        C 2532 1.383    C 2525 1.224    C 2520 1.165
  2535  C   3.947        O 2536 1.629    N 2537 1.280    C 2515 0.946
  2536  O   1.962        C 2535 1.629    N 2537 0.199
  2537  N   3.449        C 2535 1.280    C 2539 0.975    H 2538 0.897    O 2536 0.199
  2538  H   0.954        N 2537 0.897
  2539  C   3.962        N 2537 0.975    C 2541 0.967    C 2547 0.949    H 2540 0.944
  2540  H   0.995        C 2539 0.944
  2541  C   3.980        H 2542 0.973    C 2539 0.967    H 2543 0.960    C 2544 0.934
  2542  H   0.998        C 2541 0.973
  2543  H   0.997        C 2541 0.960
  2544  C   3.943        O 2545 1.522    O 2546 1.458    C 2541 0.934
  2545  O   1.815        C 2544 1.522    O 2546 0.216
  2546  O   1.805        C 2544 1.458    O 2545 0.216
  2547  C   3.953        O 2548 1.649    N 2549 1.271    C 2539 0.949
  2548  O   1.967        C 2547 1.649    N 2549 0.192
  2549  N   3.449        C 2547 1.271    C 2551 0.971    H 2550 0.926    O 2548 0.192
  2550  H   0.962        N 2549 0.926
  2551  C   3.950        C 2553 0.999    N 2549 0.971    H 2552 0.934    C 2557 0.924
  2552  H   0.990        C 2551 0.934
  2553  C   3.973        C 2551 0.999    H 2556 0.981    H 2555 0.967    H 2554 0.966
  2554  H   0.991        C 2553 0.966
  2555  H   0.993        C 2553 0.967
  2556  H   0.995        C 2553 0.981
  2557  C   3.944        O 2558 1.659    N 2559 1.283    C 2551 0.924
  2558  O   1.970        C 2557 1.659    N 2559 0.195
  2559  N   3.438        C 2557 1.283    C 2561 0.943    H 2560 0.922    O 2558 0.195
  2560  H   0.968        N 2559 0.922
  2561  C   3.951        C 2563 0.978    H 2562 0.950    N 2559 0.943    C 2578 0.932
  2562  H   0.994        C 2561 0.950
  2563  C   3.985        C 2566 0.992    C 2561 0.978    H 2565 0.970    H 2564 0.963
  2564  H   0.996        C 2563 0.963
  2565  H   0.997        C 2563 0.970
  2566  C   3.985        C 2576 1.448    C 2567 1.395    C 2563 0.992
  2567  C   3.985        C 2569 1.428    C 2566 1.395    H 2568 0.972    C 2574 0.129
  2568  H   0.999        C 2567 0.972
  2569  C   3.982        C 2567 1.428    C 2571 1.384    H 2570 0.961
  2570  H   0.995        C 2569 0.961
  2571  C   3.947        C 2569 1.384    C 2574 1.336    O 2572 1.110
  2572  O   2.134        C 2571 1.110    H 2573 0.820
  2573  H   0.883        O 2572 0.820
  2574  C   3.985        C 2576 1.435    C 2571 1.336    H 2575 0.967    C 2567 0.129
  2575  H   0.999        C 2574 0.967
  2576  C   3.991        C 2566 1.448    C 2574 1.435    H 2577 0.962
  2577  H   0.999        C 2576 0.962
  2578  C   3.945        O 2579 1.627    N 2580 1.303    C 2561 0.932
  2579  O   1.947        C 2578 1.627    N 2580 0.201
  2580  N   3.480        C 2578 1.303    C 2582 0.980    H 2581 0.928    O 2579 0.201
  2581  H   0.963        N 2580 0.928
  2582  C   3.951        N 2580 0.980    C 2584 0.967    H 2583 0.964    C 2600 0.897
  2583  H   0.999        C 2582 0.964
  2584  C   3.992        C 2587 1.007    H 2585 0.974    H 2586 0.973    C 2582 0.967
  2585  H   0.998        C 2584 0.974
  2586  H   0.998        C 2584 0.973
  2587  C   3.994        C 2584 1.007    C 2590 1.004    H 2588 0.976    H 2589 0.971
  2588  H   0.998        C 2587 0.976
  2589  H   0.998        C 2587 0.971
  2590  C   3.988        C 2593 1.008    C 2587 1.004    H 2591 0.973    H 2592 0.965
  2591  H   0.996        C 2590 0.973
  2592  H   0.995        C 2590 0.965
  2593  C   3.924        C 2590 1.008    H 2595 0.968    H 2594 0.965    N 2596 0.963
  2594  H   0.987        C 2593 0.965
  2595  H   0.988        C 2593 0.968
  2596  N   3.657        C 2593 0.963    H 2598 0.898    H 2597 0.896    H 2599 0.845
  2597  H   0.912        N 2596 0.896
  2598  H   0.923        N 2596 0.898
  2599  H   0.913        N 2596 0.845
  2600  C   3.939        O 2602 1.502    O 2601 1.500    C 2582 0.897
  2601  O   1.802        C 2600 1.500    O 2602 0.221
  2602  O   1.801        C 2600 1.502    O 2601 0.221
  2603  C   3.986        C 2605 1.517    C 2613 1.306    H 2604 0.958    C 2609 0.106
  2604  H   0.998        C 2603 0.958
  2605  C   3.990        C 2603 1.517    C 2607 1.363    H 2606 0.967    C 2611 0.109
  2606  H   0.999        C 2605 0.967
  2607  C   3.989        C 2609 1.503    C 2605 1.363    H 2608 0.965
  2608  H   0.999        C 2607 0.965
  2609  C   3.990        C 2607 1.503    C 2611 1.378    H 2610 0.966    C 2603 0.106
  2610  H   0.999        C 2609 0.966
  2611  C   3.983        C 2613 1.421    C 2609 1.378    H 2612 0.955    C 2605 0.109
  2612  H   0.996        C 2611 0.955
  2613  C   3.943        C 2611 1.421    C 2603 1.306    O 2614 1.092
  2614  O   2.128        C 2613 1.092    H 2615 0.864
  2615  H   0.888        O 2614 0.864

molecular dipole:
                 x           y           z       tot (Debye)
 q only:      596.988     669.221     630.083
   full:      597.390     668.153     639.519    2798.564
molecular quadrupole (traceless):
                xx          xy          yy          xz          yz          zz
 q only:    -7509.754   70784.724    8405.724   68359.699   75772.469    -895.970
  q+dip:    -8261.476   70245.660    7459.046   69196.075   76612.135     802.430
   full:    -8252.241   70243.683    7440.818   69197.849   76604.846     811.422


           -------------------------------------------------
          | TOTAL ENERGY            -4105.367516949810 Eh   |
          | GRADIENT NORM               1.366703504315 Eh/α |
          | HOMO-LUMO GAP               1.822860634058 eV   |
           -------------------------------------------------

------------------------------------------------------------------------
 * finished run on 2020/09/07 at 18:32:03.900     
------------------------------------------------------------------------
 total:
 * wall-time:     0 d,  0 h,  7 min, 20.346 sec
 *  cpu-time:     0 d,  5 h, 29 min, 48.781 sec
 * ratio c/w:    44.939 speedup
 SCF:
 * wall-time:     0 d,  0 h,  6 min, 51.292 sec
 *  cpu-time:     0 d,  5 h, 20 min,  8.443 sec
 * ratio c/w:    46.703 speedup

