      -----------------------------------------------------------      
     |                   =====================                   |     
     |                           x T B                           |     
     |                   =====================                   |     
     |                         S. Grimme                         |     
     |          Mulliken Center for Theoretical Chemistry        |     
     |                    University of Bonn                     |     
      -----------------------------------------------------------      

   * xtb version 6.2.3 (d7bf61a) compiled by 'conda@06d140edd85e' on 2020-05-12

   xtb is free software: you can redistribute it and/or modify it under
   the terms of the GNU Lesser General Public License as published by
   the Free Software Foundation, either version 3 of the License, or
   (at your option) any later version.
   
   xtb is distributed in the hope that it will be useful,
   but WITHOUT ANY WARRANTY; without even the implied warranty of
   MERCHANTABILITY or FITNESS FOR A PARTICULAR PURPOSE.  See the
   GNU Lesser General Public License for more details.
   
   Cite this work as:
   * S. Grimme, C. Bannwarth, P. Shushkov, J. Chem. Theory Comput., 2017,
     13, 1989-2009. DOI: 10.1021/acs.jctc.7b00118
   * C. Bannwarth, S. Ehlert and S. Grimme., J. Chem. Theory Comput., 2019,
     15, 1652-1671. DOI: 10.1021/acs.jctc.8b01176
   * P. Pracht, E. Caldeweyher, S. Ehlert, S. Grimme, ChemRxiv, 2019, preprint.
     DOI: 10.26434/chemrxiv.8326202.v1
   
   for DFT-D4:
   * E. Caldeweyher, C. Bannwarth and S. Grimme, J. Chem. Phys., 2017,
     147, 034112. DOI: 10.1063/1.4993215
   * E. Caldeweyher, S. Ehlert, A. Hansen, H. Neugebauer, S. Spicher,
     C. Bannwarth and S. Grimme, J. Chem. Phys., 2019, 150, 154122.
     DOI: 10.1063/1.5090222
   
   for sTDA-xTB:
   * S. Grimme and C. Bannwarth, J. Chem. Phys., 2016, 145, 054103.
     DOI: 10.1063/1.4959605
   
   in the mass-spec context:
   * V. Asgeirsson, C. Bauer and S. Grimme, Chem. Sci., 2017, 8, 4879.
     DOI: 10.1039/c7sc00601b
   
   for metadynamics refer to:
   * S. Grimme, J. Chem. Theory Comput., 2019, 155, 2847-2862
     DOI: 10.1021/acs.jctc.9b00143
   
   with help from (in alphabetical order)
   C. Bannwarth, F. Bohle, G. Brandenburg, E. Caldeweyher, M. Checinski,
   S. Dohm, S. Ehlert, S. Ehrlich, F. März, H. Neugebauer, J. Pisarek,
   P. Pracht, P. Shushkov, and S. Spicher.
   
 * started run on 2020/07/27 at 12:59:08.829     

           -------------------------------------------------
          |                Calculation Setup                |
           -------------------------------------------------

          program call               : xtb complex_36201.xyz --chrg +9 --uhf 0 --gbsa water
          hostname                   : gold61.cluster.local
          coordinate file            : complex_36201.xyz
          omp threads                :                    64
          number of atoms            :                  2615
          number of electrons        :                  7234
          charge                     :                     9
          spin                       :                   0.0
          first test random number   :      0.32882742298739


molecular fragmentation (1/2 indicates fragments):
111111111111111111111111111111111111111111111111111111111111111111111111
111111111111111111111111111111111111111111111111111111111111111111111111
111111111111111111111111111111111111111111111111111111111111111111111111
111111111111111111111111111111111111111111111111111111111111111111111111
111111111111111111111111111111111111111111111111111111111111111111111111
111111111111111111111111111111111111111111111111111111111111111111111111
111111111111111111111111111111111111111111111111111111111111111111111111
111111111111111111111111111111111111111111111111111111111111111111111111
111111111111111111111111111111111111111111111111111111111111111111111111
111111111111111111111111111111111111111111111111111111111111111111111111
111111111111111111111111111111111111111111111111111111111111111111111111
111111111111111111111111111111111111111111111111111111111111111111111111
111111111111111111111111111111111111111111111111111111111111111111111111
111111111111111111111111111111111111111111111111111111111111111111111111
111111111111111111111111111111111111111111111111111111111111111111111111
111111111111111111111111111111111111111111111111111111111111111111111111
111111111111111111111111111111111111111111111111111111111111111111111111
111111111111111111111111111111111111111111111111111111111111111111111111
111111111111111111111111111111111111111111111111111111111111111111111111
111111111111111111111111111111111111111111111111111111111111111111111111
111111111111111111111111111111111111111111111111111111111111111111111111
111111111111111111111111111111111111111111111111111111111111111111111111
111111111111111111111111111111111111111111111111111111111111111111111111
111111111111111111111111111111111111111111111111111111111111111111111111
111111111111111111111111111111111111111111111111111111111111111111111111
111111111111111111111111111111111111111111111111111111111111111111111111
111111111111111111111111111111111111111111111111111111111111111111111111
111111111111111111111111111111111111111111111111111111111111111111111111
111111111111111111111111111111111111111111111111111111111111111111111111
111111111111111111111111111111111111111111111111111111111111111111111111
111111111111111111111111111111111111111111111111111111111111111111111111
111111111111111111111111111111111111111111111111111111111111111111111111
111111111111111111111111111111111111111111111111111111111111111111111111
111111111111111111111111111111111111111111111111111111111111111111111111
111111111111111111111111111111111111111111111111111111111111111111111111
111111111111111111111111111111111111111111111111111111111111111111111111
11111111112222222222222
# atoms in fragment 1/2:  2602    13
 fragment masses (1/2) :    18371.93      128.56
CMA distance (Bohr)    :  21.848
constraining FC (au)   :  0.0500
########################################################################
[WARNING] Please study the warnings concerning your input carefully
-2- prog_main: XTBPATH is not set, using XTBHOME instead
-1- prog_main: XTBHOME is not set, using HOME instead
########################################################################
           ------------------------------------------------- 
          |                 G F N 2 - x T B                 |
          | Geometry, Frequencies, Noncovalent interactions |
          |            JCTC 2019 parametrisation            |
           ------------------------------------------------- 
             k(s)              :                1.8500
             k(p)              :                2.2300
             k(d)              :                2.2300
             k(f)              :                2.0000
             kEN (H0ij)        :               -2.0000
             D4 a1             :                0.5200
             D4 a2             :                5.0000
             D4 s6             :                1.0000
             D4 s8             :                2.7000
             D4 s9             :                5.0000
             alphaj            :                2.0000

  Z AO/shell   Hii/eV     exponent
  1     Wed Apr 25 08:07:45 CEST 2018   EN: 2.200 GM2: 0.406  GM3: 0.0800  RAES: 1.40
     1s    -10.707211    1.230000
  6     Wed Apr 25 08:07:45 CEST 2018   EN: 2.550 GM2: 0.538  GM3: 0.1500  RAES: 3.00
     2s    -13.970922    2.096432
     2p    -10.063292    1.800000
  7     Wed Apr 25 08:07:45 CEST 2018   EN: 3.040 GM2: 0.461  GM3:-0.0640  RAES: 1.90
     2s    -16.686243    2.339881
     2p    -12.523956    2.014332
  8     Wed Apr 25 08:07:45 CEST 2018   EN: 3.440 GM2: 0.452  GM3:-0.0517  RAES: 1.80
     2s    -20.229985    2.439742
     2p    -15.503117    2.137023
 16     Tue Apr 24 11:44:34 CEST 2018   EN: 2.580 GM2: 0.340  GM3:-0.0502  RAES: 3.10
     3s    -20.029654    1.981333
     3p    -11.377694    2.025643
     3d     -0.420282    1.702555
 17     Mon Apr 23 14:09:22 CEST 2018   EN: 3.160 GM2: 0.249  GM3: 0.1495  RAES: 2.50
     3s    -29.278781    2.485265
     3p    -12.673758    2.199650
     3d     -0.240338    2.476089

 Solvent             : water
 Using internal parameter file: .param_gbsa2_water
 Gsolv ref. state (COSMO-RS): gsolv [1 M gas/solution]
 temperature (mdtemp)       :    298.14999999999998     
 dielectric constant        :    80.200000000000003     
 rho                        :    1.0000000000000000     
 mass                       :    18.000000000000000     
 surface tension            :    15.568945408385856     
 probe radius               :   0.97531378999999996     
 Gshift (Eh)                :    1.8574431267947933E-003
 c1                         :    1.5524381700000001     
 soset                      :   0.13032636000000000     
 HB correction              :  T
           ------------------------------------------------- 
          |        Self-Consistent Charge Iterations        |
           ------------------------------------------------- 

          ...................................................
          :                      SETUP                      :
          :.................................................:
          :  # basis functions                6554          :
          :  # atomic orbitals                6547          :
          :  # shells                         3921          :
          :  # electrons                      7234          :
          :  max. iterations                   250          :
          :  Hamiltonian                  GFN2-xTB          :
          :  restarted?                      false          :
          :  GBSA solvation                   true          :
          :  PC potential                    false          :
          :  electronic temp.          300.0000000     K    :
          :  accuracy                    1.0000000          :
          :  -> integral cutoff          0.2500000E+02      :
          :  -> integral neglect         0.1000000E-07      :
          :  -> SCF convergence          0.1000000E-05 Eh   :
          :  -> wf. convergence          0.1000000E-03 e    :
          :  Broyden damping             0.4000000          :
          ...................................................

 iter      E             dE          RMSdq      gap      omega  full diag
   1  -4144.9250272 -0.414493E+04  0.429E+00    2.42       0.0  T
   2  -4157.1844939 -0.122595E+02  0.227E+00    2.50       1.0  T
   3  -4157.6623578 -0.477864E+00  0.120E+00    2.08       1.0  T
   4  -4157.7329580 -0.706002E-01  0.299E-01    1.42       1.0  T
   5  -4157.8476048 -0.114647E+00  0.144E-01    1.45       1.0  T
   6  -4157.8619052 -0.143004E-01  0.751E-02    1.53       1.0  T
   7  -4157.8645805 -0.267521E-02  0.391E-02    1.54       1.0  T
   8  -4157.8657460 -0.116553E-02  0.181E-02    1.52       1.0  T
   9  -4157.8659415 -0.195551E-03  0.114E-02    1.48       1.0  T
  10  -4157.8660574 -0.115872E-03  0.641E-03    1.46       1.0  T
  11  -4157.8660964 -0.390208E-04  0.342E-03    1.44       1.0  T
  12  -4157.8661077 -0.113209E-04  0.205E-03    1.43       1.0  T
  13  -4157.8661117 -0.400283E-05  0.125E-03    1.43       1.6  T
  14  -4157.8661132 -0.144587E-05  0.765E-04    1.42       2.6  T
  15  -4157.8661137 -0.535433E-06  0.498E-04    1.42       3.9  T
  16  -4157.8661139 -0.207458E-06  0.346E-04    1.42       5.6  T

   *** convergence criteria satisfied after 16 iterations ***

         #    Occupation            Energy/Eh            Energy/eV
      -------------------------------------------------------------
         1        2.0000           -1.0408639             -28.3233
       ...           ...                  ...                  ...
      3611        2.0000           -0.3595909              -9.7850
      3612        2.0000           -0.3589821              -9.7684
      3613        2.0000           -0.3589557              -9.7677
      3614        2.0000           -0.3576992              -9.7335
      3615        2.0000           -0.3556099              -9.6766
      3616        2.0000           -0.3466412              -9.4326
      3617        2.0000           -0.3446195              -9.3776 (HOMO)
      3618                         -0.2923783              -7.9560 (LUMO)
      3619                         -0.2700165              -7.3475
      3620                         -0.2676152              -7.2822
      3621                         -0.2673979              -7.2763
      3622                         -0.2669047              -7.2628
       ...                                ...                  ...
      6547                          0.8307328              22.6054
      -------------------------------------------------------------
                  HL-Gap            0.0522412 Eh            1.4216 eV
             Fermi-level           -0.3184989 Eh           -8.6668 eV

 SCC (total)                   0 d,  0 h,  7 min,  6.191 sec
 SCC setup                      ...        0 min,  3.208 sec (  0.753%)
 Dispersion                     ...        0 min,  2.003 sec (  0.470%)
 integral evaluation            ...        0 min, 11.611 sec (  2.724%)
 zeroth order Hamiltonian       ...        0 min,  0.351 sec (  0.082%)
 iterations                     ...        6 min, 30.557 sec ( 91.639%)
 molecular gradient             ...        0 min, 17.805 sec (  4.178%)
 printout                       ...        0 min,  0.657 sec (  0.154%)

         :::::::::::::::::::::::::::::::::::::::::::::::::::::
         ::                     SUMMARY                     ::
         :::::::::::::::::::::::::::::::::::::::::::::::::::::
         :: total energy           -4109.149039244197 Eh    ::
         :: total w/o Gsasa/hb     -4108.756780481562 Eh    ::
         :: gradient norm              1.374925383095 Eh/a0 ::
         :: HOMO-LUMO gap              1.421554548038 eV    ::
         ::.................................................::
         :: SCC energy             -4157.927626589532 Eh    ::
         :: -> isotropic ES           14.248932728222 Eh    ::
         :: -> anisotropic ES         -0.780997942399 Eh    ::
         :: -> anisotropic XC          1.150821211042 Eh    ::
         :: -> dispersion             -3.954355529346 Eh    ::
         :: -> Gsolv                  -4.128353827063 Eh    ::
         ::    -> Gborn               -3.736095064428 Eh    ::
         ::    -> Gsasa               -0.063370096285 Eh    ::
         ::    -> Ghb                 -0.330746109477 Eh    ::
         ::    -> Gshift               0.001857443127 Eh    ::
         :: repulsion energy          48.217793098724 Eh    ::
         :: add. restraining           0.000000000000 Eh    ::
         :::::::::::::::::::::::::::::::::::::::::::::::::::::

           -------------------------------------------------
          |                Property Printout                |
           -------------------------------------------------

    * Orbital Energies and Occupations

         #    Occupation            Energy/Eh            Energy/eV
      -------------------------------------------------------------
         1        2.0000           -1.0408639             -28.3233
       ...           ...                  ...                  ...
      3605        2.0000           -0.3672987              -9.9947
      3606        2.0000           -0.3663903              -9.9700
      3607        2.0000           -0.3661946              -9.9647
      3608        2.0000           -0.3657714              -9.9531
      3609        2.0000           -0.3632486              -9.8845
      3610        2.0000           -0.3625620              -9.8658
      3611        2.0000           -0.3595909              -9.7850
      3612        2.0000           -0.3589821              -9.7684
      3613        2.0000           -0.3589557              -9.7677
      3614        2.0000           -0.3576992              -9.7335
      3615        2.0000           -0.3556099              -9.6766
      3616        2.0000           -0.3466412              -9.4326
      3617        2.0000           -0.3446195              -9.3776 (HOMO)
      3618                         -0.2923783              -7.9560 (LUMO)
      3619                         -0.2700165              -7.3475
      3620                         -0.2676152              -7.2822
      3621                         -0.2673979              -7.2763
      3622                         -0.2669047              -7.2628
      3623                         -0.2657773              -7.2322
      3624                         -0.2656714              -7.2293
      3625                         -0.2655984              -7.2273
      3626                         -0.2644758              -7.1968
      3627                         -0.2639279              -7.1818
      3628                         -0.2602697              -7.0823
       ...                                ...                  ...
      6547                          0.8307328              22.6054
      -------------------------------------------------------------
                  HL-Gap            0.0522412 Eh            1.4216 eV
             Fermi-level           -0.3184989 Eh           -8.6668 eV

     #   Z        covCN         q      C6AA      α(0)
     1   7 N      3.493    -0.148    24.185     7.304
     2   1 H      0.860     0.299     0.717     1.327
     3   1 H      0.860     0.292     0.737     1.345
     4   1 H      0.860     0.309     0.686     1.297
     5   6 C      3.792    -0.017    20.893     6.509
     6   1 H      0.924     0.123     1.588     1.971
     7   6 C      3.871    -0.101    22.375     6.726
     8   1 H      0.924     0.088     1.895     2.153
     9   1 H      0.924     0.107     1.723     2.053
    10   6 C      3.799    -0.037    21.238     6.562
    11   1 H      0.924     0.085     1.930     2.172
    12   1 H      0.925     0.078     2.002     2.212
    13  16 S      1.993    -0.211   150.051    20.617
    14   6 C      3.743    -0.058    21.697     6.645
    15   1 H      0.925     0.037     2.489     2.467
    16   1 H      0.926     0.035     2.513     2.479
    17   1 H      0.925     0.075     2.035     2.231
    18   6 C      2.760     0.258    22.662     7.796
    19   8 O      0.860    -0.460    22.924     6.419
    20   7 N      2.682    -0.141    24.054     7.284
    21   1 H      0.860     0.222     0.999     1.566
    22   6 C      3.788     0.012    20.394     6.432
    23   1 H      0.925     0.114     1.662     2.016
    24   6 C      3.807    -0.116    22.704     6.783
    25   1 H      0.925     0.082     1.955     2.187
    26   1 H      0.925     0.117     1.639     2.002
    27   6 C      2.740     0.272    22.408     7.751
    28   8 O      0.859    -0.484    23.422     6.489
    29   7 N      2.637    -0.282    27.283     7.758
    30   1 H      0.860     0.233     0.954     1.530
    31   1 H      0.860     0.226     0.984     1.554
    32   6 C      2.754     0.269    22.451     7.759
    33   8 O      0.858    -0.497    23.718     6.530
    34   7 N      2.690    -0.164    24.539     7.357
    35   1 H      0.860     0.235     0.945     1.523
    36   6 C      3.782     0.000    20.593     6.464
    37   1 H      0.925     0.091     1.866     2.136
    38   6 C      3.840    -0.041    21.280     6.562
    39   1 H      0.925     0.085     1.926     2.170
    40   6 C      3.744    -0.140    23.277     6.883
    41   1 H      0.924     0.069     2.098     2.265
    42   1 H      0.925     0.062     2.177     2.307
    43   1 H      0.925     0.047     2.360     2.403
    44   6 C      3.801    -0.071    21.850     6.655
    45   1 H      0.925     0.028     2.613     2.528
    46   1 H      0.925     0.059     2.207     2.323
    47   6 C      3.750    -0.118    22.828     6.814
    48   1 H      0.924     0.056     2.241     2.341
    49   1 H      0.925     0.032     2.565     2.505
    50   1 H      0.925     0.046     2.372     2.408
    51   6 C      2.740     0.272    22.406     7.750
    52   8 O      0.857    -0.505    23.892     6.553
    53   7 N      2.684    -0.183    24.957     7.420
    54   1 H      0.860     0.234     0.947     1.524
    55   6 C      3.768     0.010    20.437     6.443
    56   1 H      0.925     0.069     2.092     2.262
    57   6 C      3.801    -0.081    22.047     6.685
    58   1 H      0.925     0.072     2.063     2.246
    59   1 H      0.925     0.065     2.137     2.286
    60   6 C      2.960     0.008    27.847     8.656
    61   6 C      2.912    -0.041    29.020     8.834
    62   1 H      0.926     0.032     2.565     2.504
    63   6 C      2.908    -0.031    28.774     8.796
    64   1 H      0.926     0.019     2.752     2.594
    65   6 C      2.928    -0.032    28.800     8.801
    66   1 H      0.926     0.021     2.714     2.576
    67   6 C      2.898    -0.033    28.829     8.804
    68   1 H      0.926     0.067     2.116     2.275
    69   6 C      2.921    -0.042    29.034     8.836
    70   1 H      0.926     0.076     2.024     2.225
    71   6 C      2.734     0.268    22.482     7.763
    72   8 O      0.859    -0.446    22.631     6.378
    73   7 N      2.680    -0.214    25.657     7.523
    74   1 H      0.860     0.210     1.059     1.612
    75   6 C      3.783     0.030    20.091     6.385
    76   1 H      0.925     0.068     2.110     2.272
    77   6 C      3.800    -0.057    21.601     6.617
    78   1 H      0.925     0.055     2.258     2.350
    79   1 H      0.925     0.056     2.247     2.344
    80   6 C      3.796    -0.096    22.334     6.729
    81   1 H      0.925     0.020     2.736     2.587
    82   1 H      0.925     0.039     2.461     2.453
    83   6 C      2.681     0.360    20.887     7.479
    84   8 O      0.856    -0.656    27.541     7.036
    85   8 O      0.856    -0.598    26.076     6.846
    86   6 C      2.746     0.274    22.363     7.743
    87   8 O      0.874    -0.511    24.022     6.572
    88   7 N      2.696    -0.195    25.231     7.460
    89   1 H      0.860     0.222     1.002     1.568
    90   6 C      3.780     0.022    20.227     6.407
    91   1 H      0.925     0.088     1.894     2.152
    92   6 C      3.821    -0.072    21.863     6.654
    93   1 H      0.925     0.085     1.928     2.171
    94   1 H      0.925     0.070     2.085     2.258
    95   6 C      3.793    -0.026    21.051     6.534
    96   1 H      0.925     0.034     2.533     2.489
    97   1 H      0.925     0.056     2.247     2.344
    98  16 S      1.958    -0.150   147.394    20.434
    99   6 C      3.744    -0.064    21.796     6.660
   100   1 H      0.925     0.038     2.476     2.461
   101   1 H      0.925     0.079     1.990     2.206
   102   1 H      0.925     0.042     2.420     2.433
   103   6 C      2.748     0.267    22.484     7.764
   104   8 O      0.860    -0.494    23.656     6.521
   105   7 N      2.688    -0.196    25.254     7.464
   106   1 H      0.860     0.208     1.066     1.618
   107   6 C      3.787     0.031    20.059     6.379
   108   1 H      0.924     0.085     1.925     2.170
   109   6 C      3.801    -0.069    21.812     6.649
   110   1 H      0.925     0.049     2.337     2.391
   111   1 H      0.924     0.050     2.325     2.384
   112   6 C      3.850    -0.013    20.776     6.483
   113   1 H      0.925     0.050     2.315     2.379
   114   6 C      3.801    -0.117    22.745     6.790
   115   1 H      0.924     0.030     2.588     2.516
   116   1 H      0.924     0.044     2.395     2.420
   117   1 H      0.925     0.066     2.133     2.284
   118   6 C      3.799    -0.107    22.551     6.761
   119   1 H      0.925     0.033     2.540     2.492
   120   1 H      0.925     0.053     2.281     2.362
   121   1 H      0.924     0.028     2.615     2.529
   122   6 C      2.747     0.261    22.603     7.785
   123   8 O      0.858    -0.524    24.313     6.611
   124   7 N      2.679    -0.183    24.956     7.419
   125   1 H      0.860     0.197     1.123     1.660
   126   6 C      3.778     0.013    20.383     6.432
   127   1 H      0.924     0.082     1.954     2.186
   128   6 C      3.794    -0.077    21.974     6.675
   129   1 H      0.924     0.060     2.205     2.322
   130   1 H      0.925     0.056     2.247     2.344
   131   6 C      3.800    -0.081    22.038     6.684
   132   1 H      0.925     0.070     2.087     2.259
   133   1 H      0.925     0.075     2.030     2.228
   134   6 C      3.736    -0.018    20.982     6.537
   135   1 H      0.925     0.106     1.735     2.060
   136   1 H      0.925     0.081     1.966     2.193
   137   7 N      2.714    -0.167    24.605     7.367
   138   1 H      0.860     0.215     1.031     1.590
   139   6 C      2.733     0.243    22.925     7.839
   140   7 N      2.689    -0.248    26.451     7.638
   141   1 H      0.860     0.238     0.932     1.512
   142   1 H      0.861     0.258     0.853     1.447
   143   7 N      2.675    -0.266    26.887     7.701
   144   1 H      0.860     0.249     0.886     1.475
   145   1 H      0.860     0.234     0.947     1.524
   146   6 C      2.743     0.285    22.172     7.710
   147   8 O      0.865    -0.450    22.706     6.389
   148   7 N      2.689    -0.187    25.048     7.433
   149   1 H      0.860     0.200     1.107     1.648
   150   6 C      3.792     0.030    20.080     6.381
   151   1 H      0.924     0.096     1.823     2.112
   152   6 C      3.853    -0.022    20.925     6.506
   153   1 H      0.925     0.072     2.068     2.249
   154   6 C      3.750    -0.126    22.989     6.838
   155   1 H      0.925     0.061     2.187     2.313
   156   1 H      0.925     0.057     2.239     2.340
   157   1 H      0.925     0.041     2.437     2.441
   158   6 C      3.803    -0.070    21.845     6.654
   159   1 H      0.924     0.034     2.530     2.488
   160   1 H      0.925     0.049     2.329     2.387
   161   6 C      3.750    -0.107    22.608     6.781
   162   1 H      0.925     0.032     2.554     2.499
   163   1 H      0.925     0.046     2.367     2.406
   164   1 H      0.924     0.039     2.459     2.452
   165   6 C      2.746     0.260    22.617     7.787
   166   8 O      0.857    -0.491    23.576     6.510
   167   7 N      2.682    -0.202    25.394     7.484
   168   1 H      0.860     0.185     1.186     1.706
   169   6 C      3.782     0.034    20.020     6.374
   170   1 H      0.925     0.093     1.849     2.126
   171   6 C      3.800    -0.097    22.357     6.732
   172   1 H      0.925     0.046     2.372     2.409
   173   1 H      0.925     0.055     2.260     2.351
   174   6 C      2.680     0.360    20.884     7.478
   175   8 O      0.856    -0.616    26.525     6.905
   176   8 O      0.856    -0.534    24.559     6.644
   177   6 C      2.744     0.271    22.417     7.752
   178   8 O      0.858    -0.476    23.270     6.468
   179   7 N      2.687    -0.191    25.147     7.448
   180   1 H      0.860     0.194     1.139     1.672
   181   6 C      3.787     0.030    20.079     6.382
   182   1 H      0.925     0.065     2.136     2.286
   183   6 C      3.818    -0.061    21.666     6.625
   184   1 H      0.924     0.049     2.330     2.387
   185   1 H      0.925     0.048     2.341     2.393
   186   6 C      3.803    -0.100    22.400     6.738
   187   1 H      0.924     0.044     2.399     2.422
   188   1 H      0.924     0.049     2.336     2.390
   189   6 C      2.692     0.351    21.041     7.507
   190   8 O      0.856    -0.605    26.244     6.868
   191   8 O      0.857    -0.615    26.500     6.902
   192   6 C      2.759     0.273    22.388     7.749
   193   8 O      0.864    -0.506    23.914     6.557
   194   7 N      2.694    -0.182    24.936     7.417
   195   1 H      0.860     0.236     0.938     1.517
   196   6 C      3.748    -0.030    21.172     6.563
   197   1 H      0.925     0.105     1.741     2.063
   198   1 H      0.924     0.086     1.923     2.169
   199   6 C      2.747     0.265    22.525     7.771
   200   8 O      0.858    -0.494    23.645     6.519
   201   7 N      2.679    -0.174    24.771     7.392
   202   1 H      0.860     0.208     1.064     1.616
   203   6 C      3.776     0.021    20.242     6.410
   204   1 H      0.924     0.065     2.141     2.288
   205   6 C      3.810    -0.080    22.022     6.680
   206   1 H      0.925     0.063     2.160     2.299
   207   1 H      0.925     0.054     2.265     2.353
   208   6 C      3.848    -0.013    20.768     6.482
   209   1 H      0.924     0.045     2.382     2.413
   210   6 C      3.763    -0.121    22.861     6.816
   211   1 H      0.925     0.045     2.382     2.413
   212   1 H      0.924     0.039     2.460     2.453
   213   1 H      0.924     0.018     2.762     2.599
   214   6 C      3.757    -0.130    23.053     6.846
   215   1 H      0.924     0.045     2.387     2.416
   216   1 H      0.924     0.054     2.265     2.354
   217   1 H      0.925     0.056     2.244     2.343
   218   6 C      2.749     0.273    22.385     7.747
   219   8 O      0.860    -0.482    23.379     6.483
   220   7 N      2.687    -0.169    24.650     7.374
   221   1 H      0.860     0.225     0.986     1.555
   222   6 C      3.799     0.018    20.270     6.410
   223   1 H      0.924     0.089     1.886     2.148
   224   6 C      3.807    -0.081    22.048     6.684
   225   1 H      0.925     0.084     1.934     2.175
   226   1 H      0.925     0.067     2.124     2.279
   227   6 C      3.810    -0.098    22.369     6.732
   228   1 H      0.925     0.078     1.996     2.209
   229   1 H      0.925     0.086     1.921     2.168
   230   6 C      3.741    -0.013    20.891     6.521
   231   1 H      0.924     0.064     2.149     2.292
   232   1 H      0.925     0.067     2.121     2.278
   233   7 N      2.708    -0.164    24.537     7.357
   234   1 H      0.860     0.245     0.904     1.490
   235   6 C      2.740     0.241    22.965     7.846
   236   7 N      2.693    -0.278    27.176     7.742
   237   1 H      0.860     0.236     0.941     1.520
   238   1 H      0.860     0.227     0.978     1.549
   239   7 N      2.690    -0.253    26.583     7.657
   240   1 H      0.860     0.239     0.929     1.510
   241   1 H      0.860     0.264     0.829     1.427
   242   6 C      2.752     0.257    22.676     7.798
   243   8 O      0.859    -0.497    23.726     6.531
   244   7 N      2.679    -0.189    25.105     7.442
   245   1 H      0.860     0.214     1.037     1.596
   246   6 C      3.764     0.005    20.535     6.459
   247   1 H      0.924     0.078     2.003     2.213
   248   6 C      3.802    -0.089    22.204     6.709
   249   1 H      0.924     0.079     1.989     2.205
   250   1 H      0.925     0.080     1.981     2.201
   251   6 C      3.842    -0.007    20.681     6.469
   252   1 H      0.925     0.033     2.547     2.496
   253   6 C      3.762    -0.118    22.805     6.807
   254   1 H      0.924     0.044     2.399     2.422
   255   1 H      0.925     0.021     2.720     2.579
   256   1 H      0.925     0.037     2.489     2.467
   257   6 C      3.775    -0.127    22.962     6.827
   258   1 H      0.924     0.036     2.503     2.474
   259   1 H      0.925     0.052     2.300     2.371
   260   1 H      0.925     0.065     2.140     2.288
   261   6 C      2.739     0.265    22.531     7.772
   262   8 O      0.861    -0.475    23.234     6.463
   263   7 N      2.686    -0.140    24.029     7.280
   264   1 H      0.860     0.200     1.107     1.648
   265   6 C      3.781     0.003    20.543     6.457
   266   1 H      0.925     0.098     1.807     2.102
   267   6 C      3.787    -0.094    22.313     6.728
   268   1 H      0.925     0.089     1.884     2.147
   269   1 H      0.924     0.090     1.877     2.142
   270   6 C      3.793    -0.081    22.047     6.687
   271   1 H      0.925     0.063     2.169     2.303
   272   1 H      0.924     0.048     2.341     2.392
   273   6 C      3.790    -0.101    22.433     6.745
   274   1 H      0.925     0.072     2.059     2.244
   275   1 H      0.924     0.076     2.023     2.224
   276   6 C      3.727    -0.062    21.788     6.664
   277   1 H      0.925     0.117     1.634     1.999
   278   1 H      0.924     0.126     1.566     1.957
   279   7 N      3.489    -0.129    23.795     7.245
   280   1 H      0.860     0.292     0.738     1.346
   281   1 H      0.860     0.304     0.701     1.311
   282   1 H      0.860     0.296     0.727     1.335
   283   6 C      2.747     0.252    22.762     7.812
   284   8 O      0.857    -0.538    24.653     6.657
   285   7 N      2.688    -0.142    24.082     7.288
   286   1 H      0.860     0.231     0.959     1.534
   287   6 C      3.779     0.005    20.510     6.452
   288   1 H      0.924     0.077     2.006     2.215
   289   6 C      3.843    -0.036    21.189     6.548
   290   1 H      0.925     0.073     2.049     2.238
   291   6 C      3.757    -0.130    23.046     6.845
   292   1 H      0.925     0.042     2.427     2.436
   293   1 H      0.925     0.066     2.131     2.283
   294   1 H      0.924     0.048     2.343     2.393
   295   6 C      3.807    -0.079    22.002     6.677
   296   1 H      0.924     0.050     2.324     2.384
   297   1 H      0.925     0.044     2.400     2.423
   298   6 C      3.754    -0.133    23.107     6.855
   299   1 H      0.924     0.048     2.344     2.394
   300   1 H      0.925     0.066     2.124     2.279
   301   1 H      0.924     0.040     2.455     2.450
   302   6 C      2.746     0.266    22.502     7.767
   303   8 O      0.857    -0.468    23.094     6.443
   304   7 N      2.687    -0.162    24.499     7.351
   305   1 H      0.860     0.217     1.025     1.586
   306   6 C      3.778     0.009    20.453     6.443
   307   1 H      0.925     0.099     1.793     2.094
   308   6 C      3.816    -0.093    22.252     6.714
   309   1 H      0.924     0.097     1.817     2.108
   310   1 H      0.925     0.073     2.053     2.240
   311   6 C      2.964    -0.004    28.130     8.699
   312   6 C      2.921    -0.054    29.334     8.882
   313   1 H      0.926     0.056     2.252     2.347
   314   6 C      2.913    -0.082    30.042     8.988
   315   1 H      0.926     0.022     2.699     2.569
   316   6 C      2.845     0.140    24.938     8.184
   317   8 O      1.665    -0.425    21.328     6.235
   318   1 H      0.807     0.315     0.678     1.294
   319   6 C      2.932    -0.070    29.741     8.944
   320   1 H      0.926     0.027     2.626     2.534
   321   6 C      2.920    -0.048    29.197     8.861
   322   1 H      0.926     0.080     1.977     2.199
   323   6 C      2.743     0.274    22.373     7.745
   324   8 O      0.859    -0.442    22.531     6.364
   325   7 N      2.682    -0.179    24.885     7.409
   326   1 H      0.860     0.220     1.012     1.576
   327   6 C      3.795     0.006    20.479     6.444
   328   1 H      0.924     0.085     1.933     2.174
   329   6 C      3.797    -0.071    21.867     6.658
   330   1 H      0.925     0.051     2.312     2.378
   331   1 H      0.924     0.055     2.262     2.352
   332   6 C      3.792    -0.080    22.028     6.684
   333   1 H      0.925     0.074     2.044     2.236
   334   1 H      0.925     0.063     2.160     2.299
   335   6 C      3.796    -0.093    22.274     6.720
   336   1 H      0.925     0.065     2.142     2.289
   337   1 H      0.925     0.076     2.026     2.226
   338   6 C      3.731    -0.054    21.640     6.640
   339   1 H      0.925     0.128     1.548     1.946
   340   1 H      0.925     0.114     1.660     2.015
   341   7 N      3.488    -0.145    24.125     7.295
   342   1 H      0.860     0.301     0.710     1.320
   343   1 H      0.860     0.307     0.693     1.304
   344   1 H      0.860     0.294     0.730     1.339
   345   6 C      2.751     0.275    22.341     7.740
   346   8 O      0.858    -0.474    23.218     6.460
   347   7 N      2.691    -0.191    25.140     7.447
   348   1 H      0.860     0.208     1.066     1.617
   349   6 C      3.794     0.047    19.797     6.336
   350   1 H      0.925     0.050     2.317     2.381
   351   6 C      3.805    -0.099    22.387     6.736
   352   1 H      0.924     0.028     2.617     2.530
   353   1 H      0.925     0.049     2.336     2.390
   354   6 C      2.684     0.362    20.858     7.474
   355   8 O      0.856    -0.652    27.436     7.023
   356   8 O      0.856    -0.613    26.451     6.895
   357   6 C      2.750     0.265    22.523     7.771
   358   8 O      0.857    -0.487    23.494     6.499
   359   7 N      2.684    -0.182    24.942     7.417
   360   1 H      0.860     0.210     1.058     1.611
   361   6 C      3.785     0.021    20.243     6.409
   362   1 H      0.925     0.097     1.813     2.106
   363   6 C      3.721     0.123    18.678     6.172
   364   1 H      0.925     0.031     2.571     2.508
   365   6 C      3.751    -0.141    23.287     6.882
   366   1 H      0.924     0.078     1.998     2.211
   367   1 H      0.925     0.058     2.218     2.329
   368   1 H      0.925     0.062     2.179     2.308
   369   8 O      1.656    -0.495    22.787     6.444
   370   1 H      0.805     0.338     0.616     1.233
   371   6 C      2.745     0.273    22.381     7.746
   372   8 O      0.863    -0.497    23.713     6.529
   373   7 N      2.688    -0.181    24.910     7.413
   374   1 H      0.860     0.191     1.152     1.682
   375   6 C      3.778     0.031    20.068     6.382
   376   1 H      0.924     0.086     1.917     2.165
   377   6 C      3.813    -0.042    21.314     6.571
   378   1 H      0.925     0.032     2.565     2.505
   379   1 H      0.925     0.049     2.330     2.387
   380   6 C      3.798    -0.094    22.303     6.724
   381   1 H      0.924     0.055     2.264     2.353
   382   1 H      0.925     0.043     2.407     2.426
   383   6 C      2.688     0.349    21.074     7.513
   384   8 O      0.856    -0.606    26.277     6.873
   385   8 O      0.856    -0.612    26.422     6.892
   386   6 C      2.737     0.255    22.711     7.802
   387   8 O      0.858    -0.489    23.544     6.505
   388   7 N      2.672    -0.185    25.022     7.429
   389   1 H      0.860     0.203     1.091     1.636
   390   6 C      3.723    -0.033    21.269     6.586
   391   1 H      0.925     0.114     1.666     2.018
   392   1 H      0.925     0.114     1.666     2.018
   393   6 C      2.742     0.266    22.514     7.769
   394   8 O      0.857    -0.484    23.429     6.490
   395   7 N      2.682    -0.148    24.210     7.308
   396   1 H      0.860     0.193     1.144     1.675
   397   6 C      3.791     0.024    20.174     6.397
   398   1 H      0.925     0.074     2.044     2.236
   399   6 C      3.815    -0.075    21.914     6.663
   400   1 H      0.925     0.071     2.074     2.252
   401   1 H      0.925     0.038     2.477     2.461
   402   6 C      2.953    -0.014    28.350     8.733
   403   6 C      2.904    -0.043    29.059     8.839
   404   1 H      0.926     0.019     2.741     2.589
   405   6 C      2.906    -0.062    29.544     8.913
   406   1 H      0.926     0.043     2.409     2.427
   407   6 C      2.827     0.145    24.831     8.165
   408   8 O      1.660    -0.420    21.242     6.222
   409   1 H      0.806     0.364     0.556     1.171
   410   6 C      2.899    -0.077    29.926     8.970
   411   1 H      0.926     0.062     2.170     2.304
   412   6 C      2.904    -0.043    29.074     8.841
   413   1 H      0.926     0.058     2.221     2.331
   414   6 C      2.756     0.277    22.307     7.734
   415   8 O      0.861    -0.530    24.454     6.630
   416   7 N      2.687    -0.161    24.476     7.348
   417   1 H      0.860     0.238     0.930     1.511
   418   6 C      3.794     0.007    20.471     6.443
   419   1 H      0.925     0.095     1.835     2.118
   420   6 C      3.802    -0.083    22.087     6.691
   421   1 H      0.925     0.077     2.009     2.217
   422   1 H      0.925     0.082     1.963     2.191
   423   6 C      2.945    -0.001    28.048     8.686
   424   6 C      2.918    -0.044    29.105     8.847
   425   1 H      0.926     0.043     2.406     2.426
   426   6 C      2.895    -0.064    29.588     8.918
   427   1 H      0.926     0.040     2.446     2.446
   428   6 C      2.843     0.134    25.067     8.205
   429   8 O      1.659    -0.415    21.146     6.208
   430   1 H      0.806     0.330     0.638     1.254
   431   6 C      2.895    -0.074    29.848     8.957
   432   1 H      0.926     0.088     1.902     2.157
   433   6 C      2.901    -0.054    29.328     8.880
   434   1 H      0.926     0.049     2.331     2.387
   435   6 C      2.747     0.287    22.139     7.704
   436   8 O      0.865    -0.468    23.083     6.442
   437   7 N      2.697    -0.192    25.170     7.451
   438   1 H      0.860     0.231     0.959     1.534
   439   6 C      3.788     0.018    20.287     6.415
   440   1 H      0.924     0.074     2.040     2.233
   441   6 C      3.720     0.118    18.753     6.185
   442   1 H      0.925     0.033     2.551     2.498
   443   6 C      3.752    -0.122    22.905     6.825
   444   1 H      0.925     0.052     2.291     2.367
   445   1 H      0.924     0.045     2.380     2.413
   446   1 H      0.924     0.068     2.109     2.271
   447   8 O      1.648    -0.492    22.726     6.435
   448   1 H      0.805     0.311     0.688     1.302
   449   6 C      2.756     0.244    22.911     7.838
   450   8 O      0.860    -0.508    23.952     6.562
   451   7 N      2.694    -0.118    23.577     7.212
   452   1 H      0.860     0.211     1.052     1.607
   453   6 C      3.789     0.012    20.394     6.432
   454   1 H      0.925     0.082     1.963     2.191
   455   6 C      3.840    -0.036    21.193     6.549
   456   1 H      0.925     0.081     1.964     2.192
   457   6 C      3.743    -0.130    23.075     6.853
   458   1 H      0.925     0.040     2.454     2.450
   459   1 H      0.924     0.067     2.124     2.279
   460   1 H      0.925     0.041     2.439     2.442
   461   6 C      3.801    -0.070    21.845     6.654
   462   1 H      0.925     0.047     2.354     2.399
   463   1 H      0.925     0.041     2.430     2.438
   464   6 C      3.751    -0.119    22.838     6.815
   465   1 H      0.924     0.044     2.397     2.421
   466   1 H      0.925     0.055     2.259     2.350
   467   1 H      0.925     0.055     2.256     2.349
   468   6 C      2.762     0.262    22.583     7.782
   469   8 O      0.859    -0.477    23.276     6.468
   470   7 N      2.684    -0.151    24.258     7.315
   471   1 H      0.860     0.237     0.938     1.517
   472   6 C      3.741    -0.021    21.030     6.543
   473   1 H      0.925     0.067     2.123     2.279
   474   1 H      0.925     0.089     1.886     2.147
   475   6 C      2.733     0.252    22.757     7.810
   476   8 O      0.860    -0.476    23.253     6.465
   477   7 N      2.696    -0.159    24.447     7.343
   478   1 H      0.860     0.202     1.098     1.641
   479   6 C      3.794     0.020    20.244     6.407
   480   1 H      0.925     0.087     1.905     2.158
   481   6 C      3.840    -0.023    20.963     6.513
   482   1 H      0.925     0.047     2.356     2.400
   483   6 C      3.744    -0.113    22.739     6.802
   484   1 H      0.924     0.036     2.501     2.473
   485   1 H      0.924     0.055     2.258     2.350
   486   1 H      0.925     0.051     2.314     2.379
   487   6 C      3.797    -0.069    21.817     6.651
   488   1 H      0.924     0.049     2.338     2.391
   489   1 H      0.925     0.051     2.303     2.373
   490   6 C      3.755    -0.107    22.596     6.778
   491   1 H      0.925     0.026     2.641     2.542
   492   1 H      0.925     0.044     2.399     2.422
   493   1 H      0.924     0.042     2.417     2.431
   494   6 C      2.763     0.271    22.422     7.755
   495   8 O      0.860    -0.480    23.350     6.479
   496   7 N      2.682    -0.189    25.110     7.442
   497   1 H      0.860     0.214     1.039     1.597
   498   6 C      3.724    -0.032    21.252     6.583
   499   1 H      0.925     0.086     1.920     2.167
   500   1 H      0.925     0.105     1.741     2.063
   501   6 C      2.736     0.266    22.502     7.766
   502   8 O      0.858    -0.513    24.070     6.578
   503   7 N      2.679    -0.155    24.354     7.329
   504   1 H      0.860     0.215     1.034     1.593
   505   6 C      3.784     0.027    20.137     6.392
   506   1 H      0.925     0.057     2.237     2.339
   507   6 C      3.803    -0.076    21.952     6.670
   508   1 H      0.924     0.124     1.581     1.966
   509   1 H      0.924     0.077     2.007     2.216
   510   6 C      3.014     0.053    26.800     8.492
   511   7 N      2.730    -0.035    21.911     6.952
   512   1 H      0.860     0.238     0.932     1.513
   513   6 C      2.973     0.059    26.683     8.473
   514   1 H      0.926     0.153     1.372     1.832
   515   7 N      2.729    -0.014    21.529     6.891
   516   1 H      0.860     0.290     0.744     1.351
   517   6 C      2.955     0.001    28.015     8.682
   518   1 H      0.926     0.145     1.424     1.866
   519   6 C      2.756     0.275    22.343     7.740
   520   8 O      0.862    -0.469    23.115     6.446
   521   7 N      2.691    -0.173    24.745     7.388
   522   1 H      0.860     0.189     1.164     1.690
   523   6 C      3.789     0.018    20.279     6.414
   524   1 H      0.925     0.074     2.045     2.236
   525   6 C      3.810    -0.077    21.965     6.671
   526   1 H      0.925     0.042     2.419     2.432
   527   1 H      0.925     0.054     2.266     2.354
   528   6 C      3.846    -0.018    20.860     6.497
   529   1 H      0.924     0.039     2.464     2.455
   530   6 C      3.748    -0.125    22.971     6.836
   531   1 H      0.924     0.051     2.305     2.374
   532   1 H      0.924     0.044     2.403     2.424
   533   1 H      0.925     0.038     2.473     2.459
   534   6 C      3.756    -0.125    22.947     6.830
   535   1 H      0.925     0.041     2.435     2.440
   536   1 H      0.924     0.048     2.339     2.392
   537   1 H      0.925     0.070     2.087     2.259
   538   6 C      2.742     0.282    22.222     7.719
   539   8 O      0.858    -0.482    23.392     6.484
   540   7 N      2.686    -0.199    25.314     7.472
   541   1 H      0.860     0.230     0.966     1.540
   542   6 C      3.787     0.016    20.314     6.419
   543   1 H      0.925     0.095     1.836     2.119
   544   6 C      3.817    -0.081    22.031     6.680
   545   1 H      0.925     0.061     2.190     2.314
   546   1 H      0.925     0.064     2.155     2.296
   547   6 C      3.848    -0.017    20.836     6.493
   548   1 H      0.925     0.016     2.792     2.613
   549   6 C      3.749    -0.132    23.100     6.855
   550   1 H      0.924     0.037     2.495     2.470
   551   1 H      0.925     0.040     2.451     2.448
   552   1 H      0.924     0.060     2.202     2.320
   553   6 C      3.757    -0.123    22.917     6.825
   554   1 H      0.924     0.051     2.305     2.374
   555   1 H      0.924     0.053     2.287     2.365
   556   1 H      0.925     0.059     2.215     2.327
   557   6 C      2.752     0.281    22.234     7.721
   558   8 O      0.860    -0.474    23.222     6.461
   559   7 N      2.683    -0.163    24.519     7.354
   560   1 H      0.860     0.216     1.030     1.590
   561   6 C      3.790     0.017    20.297     6.416
   562   1 H      0.924     0.083     1.953     2.186
   563   6 C      3.743     0.119    18.709     6.171
   564   1 H      0.924     0.035     2.519     2.482
   565   6 C      3.749    -0.125    22.958     6.834
   566   1 H      0.925     0.050     2.322     2.383
   567   1 H      0.925     0.053     2.284     2.363
   568   1 H      0.924     0.041     2.429     2.437
   569   8 O      1.657    -0.469    22.234     6.365
   570   1 H      0.805     0.324     0.653     1.270
   571   6 C      2.760     0.268    22.471     7.763
   572   8 O      0.859    -0.458    22.876     6.413
   573   7 N      2.681    -0.198    25.292     7.469
   574   1 H      0.860     0.224     0.993     1.561
   575   6 C      3.774    -0.001    20.627     6.471
   576   1 H      0.924     0.090     1.878     2.143
   577   6 C      3.796    -0.096    22.340     6.730
   578   1 H      0.924     0.082     1.960     2.189
   579   1 H      0.925     0.086     1.920     2.167
   580   6 C      3.803    -0.091    22.230     6.712
   581   1 H      0.925     0.050     2.320     2.382
   582   1 H      0.924     0.051     2.302     2.373
   583   6 C      3.801    -0.101    22.429     6.743
   584   1 H      0.924     0.093     1.854     2.129
   585   1 H      0.924     0.094     1.844     2.124
   586   6 C      3.734    -0.059    21.718     6.651
   587   1 H      0.925     0.126     1.563     1.955
   588   1 H      0.924     0.126     1.566     1.957
   589   7 N      3.488    -0.141    24.036     7.282
   590   1 H      0.860     0.279     0.781     1.384
   591   1 H      0.860     0.298     0.721     1.330
   592   1 H      0.860     0.302     0.708     1.318
   593   6 C      2.744     0.280    22.261     7.725
   594   8 O      0.864    -0.493    23.635     6.518
   595   7 N      2.681    -0.159    24.435     7.342
   596   1 H      0.860     0.208     1.068     1.619
   597   6 C      3.771     0.009    20.465     6.446
   598   1 H      0.925     0.088     1.900     2.156
   599   6 C      3.673     0.059    19.821     6.381
   600   1 H      0.925     0.070     2.090     2.261
   601   1 H      0.924     0.054     2.273     2.358
   602   8 O      1.654    -0.484    22.544     6.410
   603   1 H      0.806     0.348     0.593     1.210
   604   6 C      2.741     0.262    22.582     7.781
   605   8 O      0.857    -0.480    23.353     6.479
   606   7 N      2.737    -0.101    23.215     7.156
   607   6 C      3.757    -0.021    20.996     6.533
   608   1 H      0.924     0.075     2.028     2.227
   609   1 H      0.925     0.074     2.040     2.233
   610   6 C      3.813    -0.081    22.033     6.681
   611   1 H      0.924     0.084     1.940     2.178
   612   1 H      0.924     0.064     2.149     2.293
   613   6 C      3.825    -0.083    22.066     6.684
   614   1 H      0.925     0.081     1.972     2.196
   615   1 H      0.925     0.083     1.953     2.186
   616   6 C      3.820     0.021    20.198     6.396
   617   1 H      0.924     0.089     1.884     2.147
   618   6 C      2.749     0.265    22.525     7.771
   619   8 O      0.859    -0.483    23.415     6.488
   620   7 N      2.691    -0.171    24.706     7.382
   621   1 H      0.860     0.201     1.099     1.642
   622   6 C      3.783     0.017    20.313     6.420
   623   1 H      0.925     0.081     1.968     2.194
   624   6 C      3.683     0.068    19.644     6.346
   625   1 H      0.924     0.052     2.296     2.370
   626   1 H      0.924     0.054     2.265     2.354
   627   8 O      1.658    -0.472    22.305     6.376
   628   1 H      0.805     0.340     0.611     1.228
   629   6 C      2.746     0.260    22.618     7.787
   630   8 O      0.859    -0.473    23.201     6.458
   631   7 N      2.691    -0.157    24.390     7.335
   632   1 H      0.860     0.210     1.056     1.610
   633   6 C      3.784     0.006    20.487     6.447
   634   1 H      0.925     0.105     1.738     2.062
   635   6 C      3.784    -0.094    22.307     6.728
   636   1 H      0.924     0.068     2.109     2.271
   637   1 H      0.925     0.078     2.001     2.212
   638   6 C      3.834    -0.024    20.982     6.517
   639   1 H      0.924     0.067     2.119     2.277
   640   6 C      3.754    -0.125    22.961     6.833
   641   1 H      0.924     0.057     2.236     2.339
   642   1 H      0.925     0.026     2.639     2.540
   643   1 H      0.925     0.052     2.289     2.366
   644   6 C      3.755    -0.135    23.147     6.860
   645   1 H      0.924     0.051     2.304     2.374
   646   1 H      0.925     0.061     2.192     2.315
   647   1 H      0.924     0.047     2.360     2.402
   648   6 C      2.746     0.261    22.596     7.783
   649   8 O      0.860    -0.442    22.529     6.364
   650   7 N      2.715    -0.184    24.979     7.423
   651   1 H      0.860     0.215     1.034     1.593
   652   6 C      3.804     0.023    20.187     6.396
   653   1 H      0.924     0.098     1.808     2.103
   654   6 C      3.804    -0.134    23.068     6.838
   655   1 H      0.924     0.074     2.044     2.236
   656   1 H      0.925     0.101     1.778     2.085
   657   6 C      2.734     0.303    21.860     7.655
   658   8 O      0.864    -0.468    23.087     6.442
   659   7 N      2.642    -0.295    27.595     7.802
   660   1 H      0.860     0.235     0.944     1.522
   661   1 H      0.860     0.245     0.905     1.490
   662   6 C      2.782     0.287    22.138     7.707
   663   8 O      0.865    -0.481    23.373     6.482
   664   7 N      2.685    -0.196    25.252     7.463
   665   1 H      0.860     0.218     1.021     1.583
   666   6 C      3.767     0.018    20.304     6.422
   667   1 H      0.925     0.067     2.118     2.276
   668   6 C      3.744    -0.138    23.233     6.876
   669   1 H      0.925     0.083     1.945     2.181
   670   1 H      0.924     0.082     1.961     2.190
   671   1 H      0.925     0.061     2.187     2.313
   672   6 C      2.738     0.251    22.778     7.814
   673   8 O      0.857    -0.526    24.360     6.617
   674   7 N      2.690    -0.161    24.489     7.350
   675   1 H      0.860     0.235     0.943     1.521
   676   6 C      3.798     0.025    20.159     6.393
   677   1 H      0.924     0.072     2.067     2.248
   678   6 C      3.755    -0.137    23.187     6.866
   679   1 H      0.925     0.082     1.960     2.189
   680   1 H      0.925     0.075     2.029     2.228
   681   1 H      0.925     0.071     2.070     2.250
   682   6 C      2.761     0.272    22.397     7.750
   683   8 O      0.863    -0.500    23.791     6.540
   684   7 N      2.696    -0.191    25.150     7.448
   685   1 H      0.860     0.238     0.931     1.512
   686   6 C      3.801     0.008    20.441     6.437
   687   1 H      0.924     0.105     1.743     2.065
   688   6 C      3.801    -0.092    22.261     6.718
   689   1 H      0.925     0.055     2.263     2.352
   690   1 H      0.925     0.073     2.050     2.239
   691   6 C      3.796    -0.093    22.272     6.720
   692   1 H      0.925     0.091     1.867     2.137
   693   1 H      0.925     0.068     2.104     2.268
   694   6 C      3.799    -0.106    22.531     6.758
   695   1 H      0.925     0.092     1.862     2.134
   696   1 H      0.924     0.108     1.717     2.049
   697   6 C      3.730    -0.062    21.796     6.664
   698   1 H      0.925     0.102     1.765     2.077
   699   1 H      0.925     0.110     1.697     2.037
   700   7 N      3.484    -0.137    23.966     7.271
   701   1 H      0.860     0.297     0.723     1.332
   702   1 H      0.860     0.302     0.708     1.318
   703   1 H      0.860     0.293     0.734     1.342
   704   6 C      2.758     0.279    22.277     7.729
   705   8 O      0.862    -0.510    23.998     6.568
   706   7 N      2.691    -0.198    25.294     7.470
   707   1 H      0.860     0.233     0.953     1.529
   708   6 C      3.793     0.020    20.242     6.407
   709   1 H      0.925     0.060     2.199     2.319
   710   6 C      3.687     0.087    19.323     6.292
   711   1 H      0.924     0.045     2.379     2.412
   712   1 H      0.924     0.029     2.596     2.520
   713   8 O      1.659    -0.457    21.981     6.329
   714   1 H      0.806     0.351     0.586     1.202
   715   6 C      2.767     0.262    22.583     7.783
   716   8 O      0.860    -0.545    24.813     6.679
   717   7 N      2.689    -0.168    24.644     7.373
   718   1 H      0.860     0.227     0.978     1.549
   719   6 C      3.797     0.038    19.940     6.358
   720   1 H      0.925     0.061     2.191     2.315
   721   6 C      3.806    -0.057    21.595     6.615
   722   1 H      0.925     0.048     2.342     2.393
   723   1 H      0.925     0.076     2.026     2.226
   724   6 C      3.802    -0.091    22.235     6.713
   725   1 H      0.925     0.023     2.685     2.563
   726   1 H      0.924     0.042     2.419     2.432
   727   6 C      2.687     0.362    20.852     7.473
   728   8 O      0.857    -0.633    26.950     6.960
   729   8 O      0.857    -0.613    26.446     6.895
   730   6 C      2.748     0.277    22.305     7.733
   731   8 O      0.865    -0.490    23.550     6.507
   732   7 N      2.687    -0.196    25.259     7.464
   733   1 H      0.860     0.220     1.011     1.575
   734   6 C      3.789     0.012    20.382     6.430
   735   1 H      0.925     0.090     1.878     2.143
   736   6 C      3.803    -0.086    22.129     6.697
   737   1 H      0.925     0.059     2.213     2.327
   738   1 H      0.925     0.092     1.856     2.130
   739   6 C      3.850    -0.024    20.963     6.512
   740   1 H      0.925     0.025     2.665     2.553
   741   6 C      3.754    -0.131    23.066     6.848
   742   1 H      0.925     0.067     2.121     2.278
   743   1 H      0.925     0.030     2.584     2.514
   744   1 H      0.925     0.056     2.245     2.343
   745   6 C      3.759    -0.129    23.022     6.840
   746   1 H      0.925     0.070     2.088     2.260
   747   1 H      0.924     0.051     2.312     2.378
   748   1 H      0.925     0.040     2.443     2.444
   749   6 C      2.747     0.293    22.028     7.685
   750   8 O      0.859    -0.463    22.982     6.427
   751   7 N      2.690    -0.213    25.637     7.520
   752   1 H      0.860     0.215     1.031     1.591
   753   6 C      3.779     0.044    19.858     6.349
   754   1 H      0.925     0.053     2.289     2.366
   755   6 C      3.803    -0.092    22.259     6.717
   756   1 H      0.924     0.039     2.466     2.456
   757   1 H      0.925     0.056     2.246     2.344
   758   6 C      2.687     0.372    20.697     7.445
   759   8 O      0.856    -0.691    28.461     7.153
   760   8 O      0.858    -0.606    26.262     6.871
   761   6 C      2.741     0.281    22.245     7.722
   762   8 O      0.857    -0.481    23.376     6.482
   763   7 N      2.686    -0.195    25.239     7.461
   764   1 H      0.860     0.195     1.133     1.667
   765   6 C      3.789     0.028    20.121     6.388
   766   1 H      0.925     0.058     2.228     2.334
   767   6 C      3.795    -0.079    22.023     6.683
   768   1 H      0.924     0.062     2.172     2.305
   769   1 H      0.925     0.060     2.196     2.318
   770   6 C      3.795    -0.071    21.870     6.659
   771   1 H      0.925     0.048     2.340     2.392
   772   1 H      0.925     0.055     2.259     2.351
   773   6 C      3.799    -0.083    22.082     6.691
   774   1 H      0.925     0.081     1.964     2.191
   775   1 H      0.925     0.082     1.959     2.189
   776   6 C      3.732    -0.023    21.077     6.553
   777   1 H      0.924     0.103     1.760     2.075
   778   1 H      0.925     0.075     2.030     2.228
   779   7 N      3.485    -0.164    24.546     7.358
   780   1 H      0.860     0.299     0.717     1.327
   781   1 H      0.860     0.284     0.762     1.367
   782   1 H      0.860     0.287     0.752     1.358
   783   6 C      2.751     0.275    22.341     7.740
   784   8 O      0.863    -0.509    23.990     6.567
   785   7 N      2.692    -0.196    25.257     7.464
   786   1 H      0.860     0.230     0.966     1.539
   787   6 C      3.770     0.024    20.201     6.405
   788   1 H      0.924     0.068     2.107     2.270
   789   6 C      3.757    -0.131    23.068     6.848
   790   1 H      0.925     0.080     1.982     2.202
   791   1 H      0.925     0.064     2.155     2.296
   792   1 H      0.925     0.075     2.031     2.229
   793   6 C      2.727     0.281    22.241     7.721
   794   8 O      0.859    -0.489    23.552     6.507
   795   7 N      2.678    -0.187    25.058     7.435
   796   1 H      0.860     0.209     1.060     1.612
   797   6 C      3.779     0.015    20.342     6.425
   798   1 H      0.924     0.094     1.838     2.120
   799   6 C      3.849    -0.021    20.906     6.504
   800   1 H      0.925     0.071     2.076     2.253
   801   6 C      3.752    -0.106    22.590     6.778
   802   1 H      0.925     0.040     2.448     2.447
   803   1 H      0.924     0.021     2.724     2.581
   804   1 H      0.925     0.062     2.181     2.310
   805   6 C      3.796    -0.071    21.861     6.658
   806   1 H      0.925     0.046     2.375     2.410
   807   1 H      0.925     0.043     2.415     2.430
   808   6 C      3.744    -0.116    22.789     6.810
   809   1 H      0.925     0.044     2.392     2.419
   810   1 H      0.924     0.048     2.343     2.394
   811   1 H      0.925     0.058     2.218     2.329
   812   6 C      2.742     0.269    22.448     7.758
   813   8 O      0.858    -0.465    23.013     6.432
   814   7 N      2.676    -0.187    25.056     7.434
   815   1 H      0.860     0.186     1.182     1.703
   816   6 C      3.740    -0.025    21.094     6.553
   817   1 H      0.925     0.094     1.841     2.122
   818   1 H      0.925     0.084     1.941     2.179
   819   6 C      2.747     0.287    22.141     7.705
   820   8 O      0.858    -0.487    23.490     6.498
   821   7 N      2.690    -0.164    24.542     7.358
   822   1 H      0.860     0.201     1.102     1.644
   823   6 C      3.781     0.015    20.342     6.425
   824   1 H      0.925     0.080     1.981     2.201
   825   6 C      3.794    -0.086    22.141     6.701
   826   1 H      0.925     0.069     2.093     2.262
   827   1 H      0.925     0.071     2.070     2.250
   828   6 C      3.795    -0.064    21.742     6.640
   829   1 H      0.924     0.047     2.361     2.403
   830   1 H      0.925     0.056     2.245     2.343
   831   6 C      3.737    -0.018    20.982     6.537
   832   1 H      0.925     0.068     2.105     2.269
   833   1 H      0.925     0.085     1.931     2.173
   834   7 N      2.696    -0.173    24.748     7.388
   835   1 H      0.860     0.233     0.951     1.528
   836   6 C      2.736     0.243    22.932     7.840
   837   7 N      2.683    -0.263    26.811     7.690
   838   1 H      0.860     0.246     0.901     1.487
   839   1 H      0.860     0.253     0.870     1.461
   840   7 N      2.689    -0.274    27.076     7.728
   841   1 H      0.860     0.233     0.953     1.529
   842   1 H      0.860     0.243     0.910     1.494
   843   6 C      2.746     0.274    22.371     7.745
   844   8 O      0.859    -0.493    23.629     6.517
   845   7 N      2.717    -0.164    24.536     7.357
   846   1 H      0.860     0.220     1.008     1.573
   847   6 C      3.805     0.036    19.971     6.362
   848   1 H      0.925     0.066     2.125     2.280
   849   6 C      3.833    -0.112    22.606     6.765
   850   1 H      0.925     0.101     1.776     2.084
   851   1 H      0.924     0.079     1.991     2.206
   852   6 C      2.744     0.283    22.200     7.715
   853   8 O      0.862    -0.511    24.036     6.573
   854   7 N      2.643    -0.264    26.837     7.694
   855   1 H      0.860     0.261     0.843     1.438
   856   1 H      0.860     0.223     0.996     1.563
   857   6 C      2.769     0.275    22.353     7.743
   858   8 O      0.858    -0.445    22.592     6.373
   859   7 N      2.695    -0.176    24.814     7.398
   860   1 H      0.860     0.188     1.167     1.692
   861   6 C      3.833     0.017    20.265     6.405
   862   1 H      0.925     0.105     1.738     2.062
   863   6 C      3.801    -0.021    20.946     6.516
   864   1 H      0.925     0.060     2.195     2.317
   865   1 H      0.925     0.106     1.727     2.055
   866  16 S      1.941    -0.299   154.002    20.887
   867   1 H      0.922     0.168     1.276     1.766
   868   6 C      2.740     0.256    22.689     7.799
   869   8 O      0.858    -0.436    22.411     6.347
   870   7 N      2.690    -0.175    24.778     7.393
   871   1 H      0.860     0.183     1.199     1.715
   872   6 C      3.782     0.018    20.293     6.417
   873   1 H      0.925     0.081     1.964     2.191
   874   6 C      3.795    -0.105    22.507     6.756
   875   1 H      0.925     0.072     2.060     2.245
   876   1 H      0.924     0.061     2.185     2.312
   877   6 C      2.724     0.281    22.242     7.721
   878   8 O      0.861    -0.498    23.749     6.534
   879   7 N      2.637    -0.256    26.654     7.668
   880   1 H      0.860     0.253     0.870     1.461
   881   1 H      0.860     0.236     0.939     1.518
   882   6 C      2.756     0.274    22.371     7.745
   883   8 O      0.858    -0.423    22.144     6.309
   884   7 N      2.683    -0.178    24.850     7.404
   885   1 H      0.860     0.188     1.171     1.695
   886   6 C      3.758    -0.051    21.541     6.617
   887   1 H      0.925     0.132     1.524     1.930
   888   1 H      0.925     0.106     1.732     2.058
   889   6 C      2.743     0.282    22.230     7.720
   890   8 O      0.863    -0.459    22.902     6.416
   891   7 N      2.673    -0.181    24.921     7.414
   892   1 H      0.860     0.194     1.136     1.669
   893   6 C      3.782    -0.005    20.689     6.479
   894   1 H      0.925     0.089     1.886     2.148
   895   6 C      3.847    -0.022    20.928     6.507
   896   1 H      0.925     0.075     2.027     2.227
   897   6 C      3.750    -0.124    22.942     6.831
   898   1 H      0.925     0.050     2.326     2.385
   899   1 H      0.925     0.052     2.293     2.368
   900   1 H      0.925     0.028     2.616     2.529
   901   6 C      3.758    -0.130    23.049     6.845
   902   1 H      0.925     0.050     2.315     2.380
   903   1 H      0.925     0.035     2.515     2.480
   904   1 H      0.924     0.071     2.071     2.250
   905   6 C      2.746     0.294    22.020     7.684
   906   8 O      0.863    -0.471    23.158     6.452
   907   7 N      2.694    -0.181    24.922     7.414
   908   1 H      0.860     0.224     0.989     1.558
   909   6 C      3.789     0.012    20.393     6.432
   910   1 H      0.925     0.068     2.103     2.268
   911   6 C      3.848    -0.019    20.887     6.501
   912   1 H      0.925     0.041     2.438     2.442
   913   6 C      3.750    -0.115    22.762     6.804
   914   1 H      0.924     0.049     2.335     2.389
   915   1 H      0.925     0.036     2.507     2.476
   916   1 H      0.925     0.053     2.282     2.362
   917   6 C      3.800    -0.064    21.734     6.638
   918   1 H      0.925     0.038     2.474     2.460
   919   1 H      0.925     0.066     2.127     2.281
   920   6 C      3.748    -0.111    22.693     6.794
   921   1 H      0.924     0.042     2.420     2.433
   922   1 H      0.924     0.045     2.379     2.412
   923   1 H      0.925     0.014     2.827     2.629
   924   6 C      2.753     0.268    22.484     7.765
   925   8 O      0.868    -0.494    23.638     6.519
   926   7 N      2.689    -0.181    24.915     7.413
   927   1 H      0.860     0.219     1.015     1.578
   928   6 C      3.772    -0.007    20.730     6.488
   929   1 H      0.924     0.099     1.797     2.096
   930   6 C      3.727     0.115    18.789     6.189
   931   1 H      0.925     0.036     2.506     2.475
   932   6 C      3.757    -0.139    23.227     6.871
   933   1 H      0.925     0.063     2.170     2.303
   934   1 H      0.924     0.059     2.206     2.323
   935   1 H      0.925     0.063     2.166     2.301
   936   8 O      1.663    -0.497    22.828     6.450
   937   1 H      0.806     0.331     0.634     1.251
   938   6 C      2.737     0.275    22.350     7.740
   939   8 O      0.860    -0.450    22.708     6.389
   940   7 N      2.686    -0.184    24.997     7.425
   941   1 H      0.860     0.216     1.028     1.588
   942   6 C      3.785     0.013    20.366     6.428
   943   1 H      0.925     0.102     1.763     2.076
   944   6 C      3.805    -0.086    22.134     6.698
   945   1 H      0.925     0.064     2.152     2.294
   946   1 H      0.925     0.100     1.788     2.091
   947   6 C      3.798    -0.081    22.056     6.687
   948   1 H      0.925     0.058     2.219     2.329
   949   1 H      0.924     0.045     2.387     2.416
   950   6 C      3.789    -0.097    22.371     6.736
   951   1 H      0.925     0.068     2.112     2.272
   952   1 H      0.925     0.086     1.914     2.164
   953   6 C      3.723    -0.050    21.575     6.633
   954   1 H      0.925     0.105     1.741     2.064
   955   1 H      0.925     0.117     1.641     2.003
   956   7 N      3.489    -0.145    24.130     7.296
   957   1 H      0.860     0.283     0.765     1.370
   958   1 H      0.860     0.294     0.731     1.340
   959   1 H      0.860     0.296     0.727     1.335
   960   6 C      2.743     0.270    22.441     7.756
   961   8 O      0.858    -0.477    23.281     6.469
   962   7 N      2.681    -0.191    25.148     7.448
   963   1 H      0.860     0.200     1.106     1.647
   964   6 C      3.770     0.026    20.176     6.401
   965   1 H      0.925     0.062     2.177     2.308
   966   6 C      3.789    -0.102    22.468     6.751
   967   1 H      0.925     0.032     2.561     2.503
   968   1 H      0.925     0.038     2.470     2.458
   969   6 C      2.682     0.372    20.701     7.446
   970   8 O      0.857    -0.641    27.154     6.986
   971   8 O      0.857    -0.641    27.149     6.986
   972   6 C      2.740     0.277    22.308     7.733
   973   8 O      0.859    -0.492    23.611     6.515
   974   7 N      2.689    -0.185    25.009     7.427
   975   1 H      0.860     0.207     1.070     1.620
   976   6 C      3.795     0.031    20.066     6.379
   977   1 H      0.925     0.072     2.065     2.247
   978   6 C      3.810    -0.059    21.621     6.619
   979   1 H      0.925     0.068     2.111     2.272
   980   1 H      0.925     0.062     2.180     2.309
   981   6 C      3.803    -0.095    22.312     6.725
   982   1 H      0.924     0.044     2.396     2.421
   983   1 H      0.924     0.035     2.523     2.484
   984   6 C      2.687     0.366    20.801     7.464
   985   8 O      0.857    -0.618    26.567     6.911
   986   8 O      0.858    -0.570    25.404     6.758
   987   6 C      2.751     0.262    22.582     7.781
   988   8 O      0.857    -0.492    23.614     6.515
   989   7 N      2.685    -0.190    25.118     7.444
   990   1 H      0.860     0.223     0.996     1.564
   991   6 C      3.784     0.014    20.361     6.428
   992   1 H      0.925     0.084     1.937     2.176
   993   6 C      3.751    -0.127    22.991     6.838
   994   1 H      0.924     0.087     1.910     2.161
   995   1 H      0.925     0.076     2.017     2.221
   996   1 H      0.924     0.060     2.194     2.316
   997   6 C      2.747     0.273    22.379     7.746
   998   8 O      0.864    -0.499    23.749     6.534
   999   7 N      2.687    -0.179    24.887     7.409
  1000   1 H      0.860     0.227     0.978     1.549
  1001   6 C      3.781     0.008    20.455     6.443
  1002   1 H      0.925     0.084     1.935     2.175
  1003   6 C      3.805    -0.060    21.652     6.624
  1004   1 H      0.925     0.052     2.295     2.369
  1005   1 H      0.924     0.056     2.249     2.345
  1006   6 C      3.797    -0.101    22.439     6.745
  1007   1 H      0.925     0.054     2.275     2.359
  1008   1 H      0.924     0.021     2.712     2.575
  1009   6 C      2.682     0.350    21.049     7.508
  1010   8 O      0.857    -0.605    26.246     6.869
  1011   8 O      0.857    -0.624    26.712     6.929
  1012   6 C      2.734     0.261    22.601     7.783
  1013   8 O      0.860    -0.465    23.013     6.432
  1014   7 N      2.686    -0.183    24.967     7.421
  1015   1 H      0.860     0.193     1.141     1.673
  1016   6 C      3.786     0.008    20.452     6.441
  1017   1 H      0.925     0.092     1.860     2.133
  1018   6 C      3.818    -0.075    21.927     6.664
  1019   1 H      0.925     0.057     2.235     2.338
  1020   1 H      0.925     0.057     2.238     2.339
  1021   6 C      3.807    -0.076    21.937     6.667
  1022   1 H      0.924     0.066     2.132     2.283
  1023   1 H      0.925     0.059     2.215     2.327
  1024   6 C      3.814    -0.094    22.283     6.719
  1025   1 H      0.925     0.074     2.044     2.236
  1026   1 H      0.925     0.065     2.143     2.289
  1027   6 C      3.726    -0.064    21.844     6.673
  1028   1 H      0.924     0.128     1.552     1.948
  1029   1 H      0.924     0.128     1.548     1.946
  1030   7 N      3.484    -0.154    24.316     7.324
  1031   1 H      0.860     0.291     0.740     1.347
  1032   1 H      0.860     0.310     0.684     1.295
  1033   1 H      0.860     0.302     0.708     1.318
  1034   6 C      2.750     0.280    22.256     7.725
  1035   8 O      0.867    -0.477    23.274     6.468
  1036   7 N      2.694    -0.166    24.589     7.365
  1037   1 H      0.860     0.200     1.107     1.648
  1038   6 C      3.788     0.023    20.200     6.401
  1039   1 H      0.924     0.101     1.773     2.082
  1040   6 C      3.803    -0.074    21.912     6.664
  1041   1 H      0.925     0.053     2.284     2.363
  1042   1 H      0.924     0.080     1.977     2.199
  1043   6 C      3.804    -0.014    20.831     6.498
  1044   1 H      0.924     0.037     2.487     2.466
  1045   6 C      3.758    -0.123    22.909     6.824
  1046   1 H      0.925     0.045     2.382     2.414
  1047   1 H      0.924     0.058     2.222     2.331
  1048   1 H      0.925     0.033     2.551     2.498
  1049   6 C      3.700    -0.138    23.337     6.909
  1050   1 H      0.925     0.055     2.261     2.351
  1051   1 H      0.925     0.049     2.329     2.387
  1052   1 H      0.925     0.059     2.213     2.326
  1053   6 C      2.750     0.256    22.688     7.799
  1054   8 O      0.858    -0.514    24.089     6.580
  1055   7 N      2.687    -0.185    25.001     7.426
  1056   1 H      0.860     0.205     1.079     1.627
  1057   6 C      3.794     0.026    20.151     6.393
  1058   1 H      0.925     0.078     1.999     2.211
  1059   6 C      3.820    -0.085    22.097     6.690
  1060   1 H      0.924     0.071     2.072     2.251
  1061   1 H      0.924     0.074     2.042     2.235
  1062   6 C      2.959     0.005    27.917     8.666
  1063   6 C      2.908    -0.038    28.943     8.822
  1064   1 H      0.926     0.033     2.538     2.491
  1065   6 C      2.905    -0.037    28.912     8.817
  1066   1 H      0.926     0.045     2.379     2.412
  1067   6 C      2.908    -0.037    28.924     8.819
  1068   1 H      0.926     0.020     2.729     2.583
  1069   6 C      2.907    -0.040    29.002     8.831
  1070   1 H      0.926     0.053     2.278     2.360
  1071   6 C      2.915    -0.057    29.426     8.895
  1072   1 H      0.926     0.053     2.284     2.364
  1073   6 C      2.761     0.274    22.364     7.744
  1074   8 O      0.859    -0.491    23.577     6.510
  1075   7 N      2.687    -0.177    24.839     7.402
  1076   1 H      0.860     0.232     0.955     1.531
  1077   6 C      3.801     0.027    20.128     6.387
  1078   1 H      0.924     0.080     1.979     2.200
  1079   6 C      3.817    -0.113    22.642     6.772
  1080   1 H      0.924     0.094     1.841     2.122
  1081   1 H      0.924     0.095     1.833     2.117
  1082   6 C      2.753     0.305    21.817     7.649
  1083   8 O      0.876    -0.504    23.867     6.551
  1084   7 N      2.654    -0.280    27.240     7.752
  1085   1 H      0.860     0.238     0.931     1.511
  1086   1 H      0.860     0.212     1.047     1.603
  1087   6 C      2.740     0.268    22.475     7.762
  1088   8 O      0.858    -0.498    23.738     6.532
  1089   7 N      2.690    -0.180    24.910     7.413
  1090   1 H      0.860     0.234     0.947     1.525
  1091   6 C      3.789     0.024    20.190     6.399
  1092   1 H      0.924     0.076     2.024     2.225
  1093   6 C      3.808    -0.065    21.750     6.639
  1094   1 H      0.925     0.085     1.925     2.170
  1095   1 H      0.925     0.064     2.147     2.292
  1096   6 C      3.805    -0.112    22.634     6.773
  1097   1 H      0.924     0.086     1.922     2.168
  1098   1 H      0.924     0.070     2.083     2.257
  1099   6 C      2.745     0.298    21.949     7.671
  1100   8 O      0.871    -0.488    23.510     6.501
  1101   7 N      2.649    -0.294    27.569     7.798
  1102   1 H      0.860     0.243     0.912     1.496
  1103   1 H      0.860     0.223     0.997     1.564
  1104   6 C      2.749     0.277    22.314     7.735
  1105   8 O      0.861    -0.479    23.330     6.476
  1106   7 N      2.691    -0.185    25.009     7.427
  1107   1 H      0.860     0.193     1.141     1.673
  1108   6 C      3.798     0.044    19.840     6.342
  1109   1 H      0.925     0.092     1.864     2.135
  1110   6 C      3.806    -0.086    22.132     6.697
  1111   1 H      0.924     0.026     2.646     2.544
  1112   1 H      0.925     0.061     2.188     2.313
  1113   6 C      2.689     0.374    20.669     7.440
  1114   8 O      0.858    -0.656    27.524     7.034
  1115   8 O      0.857    -0.595    25.992     6.835
  1116   6 C      2.760     0.268    22.474     7.763
  1117   8 O      0.860    -0.537    24.620     6.653
  1118   7 N      2.697    -0.175    24.794     7.395
  1119   1 H      0.860     0.219     1.014     1.577
  1120   6 C      3.800     0.033    20.018     6.370
  1121   1 H      0.925     0.075     2.027     2.226
  1122   6 C      3.854    -0.019    20.884     6.500
  1123   1 H      0.925     0.049     2.334     2.389
  1124   6 C      3.755    -0.116    22.777     6.805
  1125   1 H      0.925     0.058     2.227     2.334
  1126   1 H      0.924     0.054     2.269     2.356
  1127   1 H      0.924     0.050     2.325     2.384
  1128   6 C      3.757    -0.113    22.721     6.796
  1129   1 H      0.924     0.038     2.476     2.461
  1130   1 H      0.924     0.055     2.257     2.350
  1131   1 H      0.925     0.035     2.512     2.479
  1132   6 C      2.751     0.271    22.417     7.753
  1133   8 O      0.861    -0.478    23.306     6.473
  1134   7 N      2.679    -0.224    25.905     7.559
  1135   1 H      0.860     0.208     1.068     1.619
  1136   6 C      3.782     0.049    19.765     6.333
  1137   1 H      0.925     0.080     1.978     2.199
  1138   6 C      3.806    -0.085    22.108     6.693
  1139   1 H      0.925     0.026     2.647     2.544
  1140   1 H      0.925     0.046     2.371     2.408
  1141   6 C      2.690     0.372    20.698     7.446
  1142   8 O      0.856    -0.629    26.850     6.947
  1143   8 O      0.859    -0.623    26.693     6.927
  1144   6 C      2.753     0.272    22.406     7.751
  1145   8 O      0.858    -0.489    23.532     6.504
  1146   7 N      2.684    -0.165    24.562     7.361
  1147   1 H      0.860     0.179     1.222     1.731
  1148   6 C      3.790     0.025    20.158     6.394
  1149   1 H      0.924     0.107     1.723     2.053
  1150   6 C      3.749    -0.132    23.097     6.854
  1151   1 H      0.924     0.048     2.347     2.396
  1152   1 H      0.925     0.082     1.963     2.191
  1153   1 H      0.925     0.083     1.948     2.183
  1154   6 C      2.755     0.266    22.517     7.770
  1155   8 O      0.867    -0.504    23.858     6.549
  1156   7 N      2.696    -0.160    24.459     7.345
  1157   1 H      0.860     0.202     1.097     1.640
[...]
  2292  H   0.959        N 2291 0.917
  2293  C   3.953        C 2295 0.974    N 2291 0.963    H 2294 0.945    C 2313 0.937
  2294  H   0.992        C 2293 0.945
  2295  C   3.983        C 2298 1.007    C 2293 0.974    H 2297 0.970    H 2296 0.970
  2296  H   0.994        C 2295 0.970
  2297  H   0.996        C 2295 0.970
  2298  C   3.987        C 2295 1.007    C 2301 1.005    H 2300 0.969    H 2299 0.968
  2299  H   0.995        C 2298 0.968
  2300  H   0.994        C 2298 0.969
  2301  C   3.945        C 2298 1.005    H 2302 0.968    H 2303 0.966    N 2304 0.958
  2302  H   0.994        C 2301 0.968
  2303  H   0.993        C 2301 0.966
  2304  N   3.422        C 2306 1.305    C 2301 0.958    H 2305 0.870    N 2310 0.115
  2305  H   0.941        N 2304 0.870
  2306  C   3.976        N 2310 1.375    N 2304 1.305    N 2307 1.269
  2307  N   3.356        C 2306 1.269    H 2309 0.928    H 2308 0.923    N 2310 0.103
  2308  H   0.949        N 2307 0.923
  2309  H   0.948        N 2307 0.928
  2310  N   3.434        C 2306 1.375    H 2311 0.917    H 2312 0.855    N 2304 0.115    N 2307 0.103
  2311  H   0.948        N 2310 0.917
  2312  H   0.930        N 2310 0.855
  2313  C   3.960        O 2314 1.577    N 2315 1.364    C 2293 0.937
  2314  O   1.909        C 2313 1.577    N 2315 0.202
  2315  N   3.507        C 2313 1.364    C 2317 0.982    H 2316 0.872    O 2314 0.202
  2316  H   0.941        N 2315 0.872
  2317  C   3.948        N 2315 0.982    C 2319 0.976    C 2323 0.936    H 2318 0.934
  2318  H   0.991        C 2317 0.934
  2319  C   3.981        H 2320 0.981    H 2321 0.981    H 2322 0.979    C 2317 0.976
  2320  H   0.996        C 2319 0.981
  2321  H   0.996        C 2319 0.981
  2322  H   0.992        C 2319 0.979
  2323  C   3.950        O 2324 1.640    N 2325 1.285    C 2317 0.936
  2324  O   1.983        C 2323 1.640    N 2325 0.195
  2325  N   3.471        C 2323 1.285    C 2327 0.985    H 2326 0.922    O 2324 0.195
  2326  H   0.960        N 2325 0.922
  2327  C   3.951        N 2325 0.985    C 2329 0.969    H 2328 0.940    C 2345 0.932
  2328  H   0.989        C 2327 0.940
  2329  C   3.976        C 2332 1.000    H 2330 0.976    C 2327 0.969    H 2331 0.964
  2330  H   0.997        C 2329 0.976
  2331  H   0.992        C 2329 0.964
  2332  C   3.982        C 2329 1.000    C 2335 0.997    H 2333 0.971    H 2334 0.969
  2333  H   0.995        C 2332 0.971
  2334  H   0.995        C 2332 0.969
  2335  C   3.983        C 2338 1.019    C 2332 0.997    H 2336 0.970    H 2337 0.968
  2336  H   0.994        C 2335 0.970
  2337  H   0.992        C 2335 0.968
  2338  C   3.901        C 2335 1.019    H 2340 0.961    H 2339 0.957    N 2341 0.941
  2339  H   0.981        C 2338 0.957
  2340  H   0.984        C 2338 0.961
  2341  N   3.655        C 2338 0.941    H 2344 0.901    H 2343 0.896    H 2342 0.894
  2342  H   0.909        N 2341 0.894
  2343  H   0.910        N 2341 0.896
  2344  H   0.915        N 2341 0.901
  2345  C   3.939        O 2346 1.604    N 2347 1.301    C 2327 0.932
  2346  O   1.967        C 2345 1.604    N 2347 0.184
  2347  N   3.462        C 2345 1.301    C 2349 0.966    H 2348 0.919    O 2346 0.184
  2348  H   0.961        N 2347 0.919
  2349  C   3.963        C 2351 0.969    N 2347 0.966    C 2369 0.959    H 2350 0.950
  2350  H   0.990        C 2349 0.950
  2351  C   3.982        C 2354 0.996    H 2353 0.976    H 2352 0.969    C 2349 0.969
  2352  H   0.994        C 2351 0.969
  2353  H   0.994        C 2351 0.976
  2354  C   3.989        C 2357 1.012    C 2351 0.996    H 2356 0.973    H 2355 0.966
  2355  H   0.995        C 2354 0.966
  2356  H   0.997        C 2354 0.973
  2357  C   3.955        C 2354 1.012    H 2359 0.964    N 2360 0.964    H 2358 0.961
  2358  H   0.994        C 2357 0.961
  2359  H   0.994        C 2357 0.964
  2360  N   3.425        C 2362 1.293    C 2357 0.964    H 2361 0.892    N 2366 0.108
  2361  H   0.948        N 2360 0.892
  2362  C   3.977        N 2366 1.364    N 2363 1.296    N 2360 1.293
  2363  N   3.364        C 2362 1.296    H 2365 0.919    H 2364 0.897    N 2366 0.106
  2364  H   0.934        N 2363 0.897
  2365  H   0.948        N 2363 0.919
  2366  N   3.424        C 2362 1.364    H 2368 0.895    H 2367 0.868    N 2360 0.108    N 2363 0.106
  2367  H   0.929        N 2366 0.868
  2368  H   0.946        N 2366 0.895
  2369  C   3.957        O 2370 1.541    N 2371 1.377    C 2349 0.959
  2370  O   1.918        C 2369 1.541    N 2371 0.197
  2371  N   3.521        C 2369 1.377    C 2373 0.952    H 2372 0.907    O 2370 0.197
  2372  H   0.950        N 2371 0.907
  2373  C   3.951        C 2375 0.983    N 2371 0.952    H 2374 0.951    C 2385 0.924
  2374  H   0.993        C 2373 0.951
  2375  C   3.989        C 2381 1.013    C 2377 0.996    C 2373 0.983    H 2376 0.957
  2376  H   0.996        C 2375 0.957
  2377  C   3.989        C 2375 0.996    H 2380 0.985    H 2379 0.980    H 2378 0.979
  2378  H   0.998        C 2377 0.979
  2379  H   0.997        C 2377 0.980
  2380  H   0.997        C 2377 0.985
  2381  C   3.993        C 2375 1.013    H 2383 0.983    H 2384 0.981    H 2382 0.981
  2382  H   0.998        C 2381 0.981
  2383  H   0.998        C 2381 0.983
  2384  H   0.998        C 2381 0.981
  2385  C   3.948        O 2386 1.626    N 2387 1.306    C 2373 0.924
  2386  O   1.977        C 2385 1.626    N 2387 0.196
  2387  N   3.465        C 2385 1.306    C 2389 0.982    H 2388 0.893    O 2386 0.196
  2388  H   0.944        N 2387 0.893
  2389  C   3.950        N 2387 0.982    H 2390 0.944    C 2404 0.942    C 2391 0.941
  2390  H   0.993        C 2389 0.944
  2391  C   3.975        C 2393 1.008    C 2397 0.995    H 2392 0.961    C 2389 0.941
  2392  H   0.996        C 2391 0.961
  2393  C   3.986        C 2391 1.008    H 2395 0.983    H 2394 0.981    H 2396 0.977
  2394  H   0.997        C 2393 0.981
  2395  H   0.998        C 2393 0.983
  2396  H   0.994        C 2393 0.977
  2397  C   3.987        C 2400 1.014    C 2391 0.995    H 2398 0.970    H 2399 0.969
  2398  H   0.998        C 2397 0.970
  2399  H   0.996        C 2397 0.969
  2400  C   3.989        C 2397 1.014    H 2401 0.982    H 2403 0.981    H 2402 0.981
  2401  H   0.998        C 2400 0.982
  2402  H   0.998        C 2400 0.981
  2403  H   0.997        C 2400 0.981
  2404  C   3.946        O 2405 1.607    N 2406 1.311    C 2389 0.942
  2405  O   1.946        C 2404 1.607    N 2406 0.195
  2406  N   3.457        C 2404 1.311    C 2408 0.945    H 2407 0.905    O 2405 0.195
  2407  H   0.953        N 2406 0.905
  2408  C   3.954        C 2418 0.961    C 2410 0.951    H 2409 0.950    N 2406 0.945
  2409  H   0.987        C 2408 0.950
  2410  C   3.964        C 2412 1.008    O 2416 0.998    H 2411 0.960    C 2408 0.951
  2411  H   0.999        C 2410 0.960
  2412  C   3.986        C 2410 1.008    H 2415 0.981    H 2414 0.980    H 2413 0.977
  2413  H   0.991        C 2412 0.977
  2414  H   0.998        C 2412 0.980
  2415  H   0.996        C 2412 0.981
  2416  O   1.939        C 2410 0.998    H 2417 0.837
  2417  H   0.886        O 2416 0.837
  2418  C   3.946        O 2419 1.627    N 2420 1.268    C 2408 0.961
  2419  O   1.968        C 2418 1.627    N 2420 0.190
  2420  N   3.453        C 2418 1.268    C 2422 0.993    H 2421 0.903    O 2419 0.190
  2421  H   0.955        N 2420 0.903
  2422  C   3.967        N 2420 0.993    C 2424 0.978    H 2423 0.944    C 2432 0.918
  2423  H   0.993        C 2422 0.944
  2424  C   3.960        C 2426 0.992    O 2430 0.984    C 2422 0.978    H 2425 0.958
  2425  H   0.998        C 2424 0.958
  2426  C   3.981        C 2424 0.992    H 2428 0.984    H 2427 0.981    H 2429 0.978
  2427  H   0.998        C 2426 0.981
  2428  H   0.997        C 2426 0.984
  2429  H   0.994        C 2426 0.978
  2430  O   1.927        C 2424 0.984    H 2431 0.836
  2431  H   0.890        O 2430 0.836
  2432  C   3.950        O 2433 1.638    N 2434 1.295    C 2422 0.918
  2433  O   1.999        C 2432 1.638    N 2434 0.202
  2434  N   3.451        C 2432 1.295    C 2436 0.965    H 2435 0.899    O 2433 0.202
  2435  H   0.951        N 2434 0.899
  2436  C   3.950        C 2438 0.967    N 2434 0.965    H 2437 0.947    C 2452 0.941
  2437  H   0.992        C 2436 0.947
  2438  C   3.977        C 2441 1.010    C 2436 0.967    H 2440 0.958    H 2439 0.954
  2439  H   0.992        C 2438 0.954
  2440  H   0.995        C 2438 0.958
  2441  C   3.982        C 2450 1.471    C 2442 1.339    C 2438 1.010    C 2446 0.116
  2442  C   3.985        C 2444 1.515    C 2441 1.339    H 2443 0.965    C 2448 0.110
  2443  H   0.999        C 2442 0.965
  2444  C   3.986        C 2442 1.515    C 2446 1.374    H 2445 0.963    C 2450 0.103
  2445  H   0.996        C 2444 0.963
  2446  C   3.987        C 2448 1.487    C 2444 1.374    H 2447 0.970    C 2441 0.116
  2447  H   0.997        C 2446 0.970
  2448  C   3.986        C 2446 1.487    C 2450 1.388    H 2449 0.968    C 2442 0.110
  2449  H   0.996        C 2448 0.968
  2450  C   3.987        C 2441 1.471    C 2448 1.388    H 2451 0.963    C 2444 0.103
  2451  H   0.997        C 2450 0.963
  2452  C   3.950        O 2453 1.582    N 2454 1.347    C 2436 0.941
  2453  O   1.922        C 2452 1.582    N 2454 0.196
  2454  N   3.494        C 2452 1.347    C 2456 0.976    H 2455 0.886    O 2453 0.196
  2455  H   0.941        N 2454 0.886
  2456  C   3.965        C 2458 0.977    N 2454 0.976    C 2476 0.961    H 2457 0.940
  2457  H   0.992        C 2456 0.940
  2458  C   3.978        C 2461 0.995    C 2456 0.977    H 2459 0.970    H 2460 0.963
  2459  H   0.995        C 2458 0.970
  2460  H   0.992        C 2458 0.963
  2461  C   3.988        C 2464 1.010    C 2458 0.995    H 2463 0.978    H 2462 0.966
  2462  H   0.996        C 2461 0.966
  2463  H   0.997        C 2461 0.978
  2464  C   3.947        C 2461 1.010    H 2465 0.969    N 2467 0.958    H 2466 0.958
  2465  H   0.991        C 2464 0.969
  2466  H   0.989        C 2464 0.958
  2467  N   3.431        C 2469 1.304    C 2464 0.958    H 2468 0.881    N 2473 0.109
  2468  H   0.947        N 2467 0.881
  2469  C   3.977        N 2473 1.362    N 2467 1.304    N 2470 1.292
  2470  N   3.355        C 2469 1.292    H 2472 0.911    H 2471 0.911    N 2473 0.102
  2471  H   0.934        N 2470 0.911
  2472  H   0.940        N 2470 0.911
  2473  N   3.437        C 2469 1.362    H 2474 0.912    H 2475 0.902    N 2467 0.109    N 2470 0.102
  2474  H   0.938        N 2473 0.912
  2475  H   0.945        N 2473 0.902
  2476  C   3.948        O 2477 1.617    N 2478 1.295    C 2456 0.961
  2477  O   1.925        C 2476 1.617    N 2478 0.196
  2478  N   3.466        C 2476 1.295    C 2480 0.979    H 2479 0.906    O 2477 0.196
  2479  H   0.952        N 2478 0.906
  2480  C   3.968        N 2478 0.979    C 2482 0.961    H 2481 0.948    C 2490 0.947
  2481  H   0.991        C 2480 0.948
  2482  C   3.947        C 2484 0.998    O 2488 0.967    C 2480 0.961    H 2483 0.959
  2483  H   0.997        C 2482 0.959
  2484  C   3.984        C 2482 0.998    H 2487 0.983    H 2485 0.982    H 2486 0.978
  2485  H   0.996        C 2484 0.982
  2486  H   0.994        C 2484 0.978
  2487  H   0.996        C 2484 0.983
  2488  O   1.961        C 2482 0.967    H 2489 0.864
  2489  H   0.890        O 2488 0.864
  2490  C   3.952        O 2491 1.610    N 2492 1.313    C 2480 0.947
  2491  O   1.920        C 2490 1.610    N 2492 0.198
  2492  N   3.476        C 2490 1.313    C 2494 0.990    H 2493 0.890    O 2491 0.198
  2493  H   0.945        N 2492 0.890
  2494  C   3.957        N 2492 0.990    H 2495 0.951    C 2497 0.947    H 2496 0.946
  2495  H   0.987        C 2494 0.951
  2496  H   0.989        C 2494 0.946
  2497  C   3.951        O 2498 1.628    N 2499 1.314    C 2494 0.947
  2498  O   1.943        C 2497 1.628    N 2499 0.191
  2499  N   3.481        C 2497 1.314    C 2501 0.986    H 2500 0.907    O 2498 0.191
  2500  H   0.954        N 2499 0.907
  2501  C   3.974        N 2499 0.986    C 2503 0.962    H 2502 0.943    C 2511 0.942
  2502  H   0.993        C 2501 0.943
  2503  C   3.958        C 2505 1.011    O 2509 0.970    C 2501 0.962    H 2504 0.956
  2504  H   0.997        C 2503 0.956
  2505  C   3.986        C 2503 1.011    H 2507 0.981    H 2506 0.978    H 2508 0.977
  2506  H   0.996        C 2505 0.978
  2507  H   0.996        C 2505 0.981
  2508  H   0.996        C 2505 0.977
  2509  O   1.903        C 2503 0.970    H 2510 0.836
  2510  H   0.892        O 2509 0.836
  2511  C   3.954        O 2512 1.599    N 2513 1.324    C 2501 0.942
  2512  O   1.906        C 2511 1.599    N 2513 0.182
  2513  N   3.479        C 2511 1.324    C 2515 0.978    H 2514 0.916    O 2512 0.182
  2514  H   0.957        N 2513 0.916
  2515  C   3.945        N 2513 0.978    C 2517 0.952    H 2516 0.937    C 2535 0.921
  2516  H   0.989        C 2515 0.937
  2517  C   3.979        C 2520 1.023    H 2519 0.966    H 2518 0.958    C 2515 0.952
  2518  H   0.993        C 2517 0.958
  2519  H   0.997        C 2517 0.966
  2520  C   3.970        C 2521 1.586    C 2534 1.185    C 2517 1.023
  2521  C   3.958        C 2520 1.586    N 2523 1.211    H 2522 0.965
  2522  H   0.997        C 2521 0.965
  2523  N   3.555        C 2521 1.211    C 2525 1.191    H 2524 0.929
  2524  H   0.958        N 2523 0.929
  2525  C   3.960        C 2534 1.288    C 2526 1.278    N 2523 1.191
  2526  C   3.982        C 2528 1.525    C 2525 1.278    H 2527 0.964    C 2532 0.110
  2527  H   0.995        C 2526 0.964
  2528  C   3.988        C 2526 1.525    C 2530 1.325    H 2529 0.969
  2529  H   0.996        C 2528 0.969
  2530  C   3.990        C 2532 1.551    C 2528 1.325    H 2531 0.964
  2531  H   0.998        C 2530 0.964
  2532  C   3.992        C 2530 1.551    C 2534 1.292    H 2533 0.968    C 2526 0.110
  2533  H   0.999        C 2532 0.968
  2534  C   3.981        C 2532 1.292    C 2525 1.288    C 2520 1.185
  2535  C   3.943        O 2536 1.653    N 2537 1.294    C 2515 0.921
  2536  O   1.981        C 2535 1.653    N 2537 0.192
  2537  N   3.434        C 2535 1.294    C 2539 0.940    H 2538 0.919    O 2536 0.192
  2538  H   0.960        N 2537 0.919
  2539  C   3.959        C 2541 0.988    H 2540 0.952    N 2537 0.940    C 2547 0.936
  2540  H   0.994        C 2539 0.952
  2541  C   3.985        C 2539 0.988    H 2542 0.975    H 2543 0.958    C 2544 0.941
  2542  H   0.998        C 2541 0.975
  2543  H   0.997        C 2541 0.958
  2544  C   3.938        O 2545 1.491    O 2546 1.485    C 2541 0.941
  2545  O   1.778        C 2544 1.491    O 2546 0.221
  2546  O   1.772        C 2544 1.485    O 2545 0.221
  2547  C   3.944        O 2548 1.628    N 2549 1.302    C 2539 0.936
  2548  O   1.943        C 2547 1.628    N 2549 0.192
  2549  N   3.473        C 2547 1.302    C 2551 0.989    H 2550 0.916    O 2548 0.192
  2550  H   0.951        N 2549 0.916
  2551  C   3.960        N 2549 0.989    C 2553 0.987    H 2552 0.950    C 2557 0.931
  2552  H   0.994        C 2551 0.950
  2553  C   3.971        C 2551 0.987    H 2554 0.979    H 2555 0.978    H 2556 0.971
  2554  H   0.993        C 2553 0.979
  2555  H   0.995        C 2553 0.978
  2556  H   0.990        C 2553 0.971
  2557  C   3.939        O 2558 1.622    N 2559 1.295    C 2551 0.931
  2558  O   1.923        C 2557 1.622    N 2559 0.191
  2559  N   3.455        C 2557 1.295    C 2561 0.977    H 2560 0.909    O 2558 0.191
  2560  H   0.953        N 2559 0.909
  2561  C   3.956        N 2559 0.977    C 2563 0.962    C 2578 0.943    H 2562 0.938
  2562  H   0.995        C 2561 0.938
  2563  C   3.981        C 2566 1.009    H 2564 0.968    H 2565 0.962    C 2561 0.962
  2564  H   0.995        C 2563 0.968
  2565  H   0.994        C 2563 0.962
  2566  C   3.982        C 2576 1.459    C 2567 1.359    C 2563 1.009
  2567  C   3.988        C 2569 1.503    C 2566 1.359    H 2568 0.962    C 2574 0.104
  2568  H   0.996        C 2567 0.962
  2569  C   3.985        C 2567 1.503    C 2571 1.323    H 2570 0.957    C 2576 0.116
  2570  H   0.993        C 2569 0.957
  2571  C   3.941        C 2574 1.442    C 2569 1.323    O 2572 1.053
  2572  O   2.073        C 2571 1.053    H 2573 0.850
  2573  H   0.891        O 2572 0.850
  2574  C   3.988        C 2571 1.442    C 2576 1.375    H 2575 0.965    C 2567 0.104
  2575  H   0.999        C 2574 0.965
  2576  C   3.986        C 2566 1.459    C 2574 1.375    H 2577 0.968    C 2569 0.116
  2577  H   0.998        C 2576 0.968
  2578  C   3.944        O 2579 1.595    N 2580 1.312    C 2561 0.943
  2579  O   1.914        C 2578 1.595    N 2580 0.194
  2580  N   3.467        C 2578 1.312    C 2582 0.958    H 2581 0.931    O 2579 0.194
  2581  H   0.968        N 2580 0.931
  2582  C   3.934        C 2584 0.985    H 2583 0.967    N 2580 0.958    C 2600 0.858
  2583  H   0.998        C 2582 0.967
  2584  C   3.990        C 2587 1.002    C 2582 0.985    H 2586 0.979    H 2585 0.972
  2585  H   0.996        C 2584 0.972
  2586  H   0.999        C 2584 0.979
  2587  C   3.993        C 2584 1.002    C 2590 1.000    H 2588 0.977    H 2589 0.976
  2588  H   0.997        C 2587 0.977
  2589  H   0.998        C 2587 0.976
  2590  C   3.987        C 2593 1.016    C 2587 1.000    H 2592 0.969    H 2591 0.968
  2591  H   0.992        C 2590 0.968
  2592  H   0.994        C 2590 0.969
  2593  C   3.912        C 2590 1.016    H 2595 0.964    H 2594 0.962    N 2596 0.950
  2594  H   0.983        C 2593 0.962
  2595  H   0.988        C 2593 0.964
  2596  N   3.652        C 2593 0.950    H 2599 0.897    H 2597 0.891    H 2598 0.890
  2597  H   0.921        N 2596 0.891
  2598  H   0.904        N 2596 0.890
  2599  H   0.916        N 2596 0.897
  2600  C   3.932        O 2601 1.543    O 2602 1.493    C 2582 0.858
  2601  O   1.847        C 2600 1.543    O 2602 0.219
  2602  O   1.794        C 2600 1.493    O 2601 0.219
  2603  O   2.077        C 2605 1.076    H 2604 0.807
  2604  H   0.882        O 2603 0.807
  2605  C   3.953        C 2614 1.407    C 2606 1.362    O 2603 1.076
  2606  C   3.980        C 2608 1.389    C 2605 1.362    H 2607 0.963    C 2612 0.121
  2607  H   0.995        C 2606 0.963
  2608  C   3.911        C 2610 1.412    C 2606 1.389    Cl2609 0.962    C 2614 0.106
  2609  Cl  1.107        C 2608 0.962
  2610  C   3.988        C 2612 1.459    C 2608 1.412    H 2611 0.952
  2611  H   0.997        C 2610 0.952
  2612  C   3.988        C 2610 1.459    C 2614 1.396    H 2613 0.963    C 2606 0.121
  2613  H   0.996        C 2612 0.963
  2614  C   3.985        C 2605 1.407    C 2612 1.396    H 2615 0.962    C 2608 0.106
  2615  H   0.994        C 2614 0.962

molecular dipole:
                 x           y           z       tot (Debye)
 q only:      528.554     695.711     640.288
   full:      531.804     697.451     648.450    2772.418
molecular quadrupole (traceless):
                xx          xy          yy          xz          yz          zz
 q only:   -19398.316   64412.673   16983.361   58566.954   79049.709    2414.955
  q+dip:   -19787.462   64571.934   16385.720   59627.401   80048.318    3401.742
   full:   -19780.976   64573.341   16367.897   59635.059   80046.280    3413.079


           -------------------------------------------------
          | TOTAL ENERGY            -4109.149039244197 Eh   |
          | GRADIENT NORM               1.374925383095 Eh/α |
          | HOMO-LUMO GAP               1.421554548038 eV   |
           -------------------------------------------------

------------------------------------------------------------------------
 * finished run on 2020/07/27 at 13:06:47.155     
------------------------------------------------------------------------
 total:
 * wall-time:     0 d,  0 h,  7 min, 38.326 sec
 *  cpu-time:     0 d,  5 h, 42 min, 25.799 sec
 * ratio c/w:    44.828 speedup
 SCF:
 * wall-time:     0 d,  0 h,  7 min,  6.251 sec
 *  cpu-time:     0 d,  5 h, 29 min, 46.489 sec
 * ratio c/w:    46.420 speedup

