      -----------------------------------------------------------      
     |                   =====================                   |     
     |                           x T B                           |     
     |                   =====================                   |     
     |                         S. Grimme                         |     
     |          Mulliken Center for Theoretical Chemistry        |     
     |                    University of Bonn                     |     
      -----------------------------------------------------------      

   * xtb version 6.2.3 (d7bf61a) compiled by 'conda@06d140edd85e' on 2020-05-12

   xtb is free software: you can redistribute it and/or modify it under
   the terms of the GNU Lesser General Public License as published by
   the Free Software Foundation, either version 3 of the License, or
   (at your option) any later version.
   
   xtb is distributed in the hope that it will be useful,
   but WITHOUT ANY WARRANTY; without even the implied warranty of
   MERCHANTABILITY or FITNESS FOR A PARTICULAR PURPOSE.  See the
   GNU Lesser General Public License for more details.
   
   Cite this work as:
   * S. Grimme, C. Bannwarth, P. Shushkov, J. Chem. Theory Comput., 2017,
     13, 1989-2009. DOI: 10.1021/acs.jctc.7b00118
   * C. Bannwarth, S. Ehlert and S. Grimme., J. Chem. Theory Comput., 2019,
     15, 1652-1671. DOI: 10.1021/acs.jctc.8b01176
   * P. Pracht, E. Caldeweyher, S. Ehlert, S. Grimme, ChemRxiv, 2019, preprint.
     DOI: 10.26434/chemrxiv.8326202.v1
   
   for DFT-D4:
   * E. Caldeweyher, C. Bannwarth and S. Grimme, J. Chem. Phys., 2017,
     147, 034112. DOI: 10.1063/1.4993215
   * E. Caldeweyher, S. Ehlert, A. Hansen, H. Neugebauer, S. Spicher,
     C. Bannwarth and S. Grimme, J. Chem. Phys., 2019, 150, 154122.
     DOI: 10.1063/1.5090222
   
   for sTDA-xTB:
   * S. Grimme and C. Bannwarth, J. Chem. Phys., 2016, 145, 054103.
     DOI: 10.1063/1.4959605
   
   in the mass-spec context:
   * V. Asgeirsson, C. Bauer and S. Grimme, Chem. Sci., 2017, 8, 4879.
     DOI: 10.1039/c7sc00601b
   
   for metadynamics refer to:
   * S. Grimme, J. Chem. Theory Comput., 2019, 155, 2847-2862
     DOI: 10.1021/acs.jctc.9b00143
   
   with help from (in alphabetical order)
   C. Bannwarth, F. Bohle, G. Brandenburg, E. Caldeweyher, M. Checinski,
   S. Dohm, S. Ehlert, S. Ehrlich, F. März, H. Neugebauer, J. Pisarek,
   P. Pracht, P. Shushkov, and S. Spicher.
   
 * started run on 2020/07/25 at 20:07:10.649     

           -------------------------------------------------
          |                Calculation Setup                |
           -------------------------------------------------

          program call               : xtb complex_26701.xyz --chrg +9 --uhf 0 --gbsa water
          hostname                   : gold54.cluster.local
          coordinate file            : complex_26701.xyz
          omp threads                :                    64
          number of atoms            :                  2615
          number of electrons        :                  7234
          charge                     :                     9
          spin                       :                   0.0
          first test random number   :      0.13125927616423


molecular fragmentation (1/2 indicates fragments):
111111111111111111111111111111111111111111111111111111111111111111111111
111111111111111111111111111111111111111111111111111111111111111111111111
111111111111111111111111111111111111111111111111111111111111111111111111
111111111111111111111111111111111111111111111111111111111111111111111111
111111111111111111111111111111111111111111111111111111111111111111111111
111111111111111111111111111111111111111111111111111111111111111111111111
111111111111111111111111111111111111111111111111111111111111111111111111
111111111111111111111111111111111111111111111111111111111111111111111111
111111111111111111111111111111111111111111111111111111111111111111111111
111111111111111111111111111111111111111111111111111111111111111111111111
111111111111111111111111111111111111111111111111111111111111111111111111
111111111111111111111111111111111111111111111111111111111111111111111111
111111111111111111111111111111111111111111111111111111111111111111111111
111111111111111111111111111111111111111111111111111111111111111111111111
111111111111111111111111111111111111111111111111111111111111111111111111
111111111111111111111111111111111111111111111111111111111111111111111111
111111111111111111111111111111111111111111111111111111111111111111111111
111111111111111111111111111111111111111111111111111111111111111111111111
111111111111111111111111111111111111111111111111111111111111111111111111
111111111111111111111111111111111111111111111111111111111111111111111111
111111111111111111111111111111111111111111111111111111111111111111111111
111111111111111111111111111111111111111111111111111111111111111111111111
111111111111111111111111111111111111111111111111111111111111111111111111
111111111111111111111111111111111111111111111111111111111111111111111111
111111111111111111111111111111111111111111111111111111111111111111111111
111111111111111111111111111111111111111111111111111111111111111111111111
111111111111111111111111111111111111111111111111111111111111111111111111
111111111111111111111111111111111111111111111111111111111111111111111111
111111111111111111111111111111111111111111111111111111111111111111111111
111111111111111111111111111111111111111111111111111111111111111111111111
111111111111111111111111111111111111111111111111111111111111111111111111
111111111111111111111111111111111111111111111111111111111111111111111111
111111111111111111111111111111111111111111111111111111111111111111111111
111111111111111111111111111111111111111111111111111111111111111111111111
111111111111111111111111111111111111111111111111111111111111111111111111
111111111111111111111111111111111111111111111111111111111111111111111111
11111111112222222222222
# atoms in fragment 1/2:  2602    13
 fragment masses (1/2) :    18371.93      128.56
CMA distance (Bohr)    :  21.167
constraining FC (au)   :  0.0500
########################################################################
[WARNING] Please study the warnings concerning your input carefully
-2- prog_main: XTBPATH is not set, using XTBHOME instead
-1- prog_main: XTBHOME is not set, using HOME instead
########################################################################
           ------------------------------------------------- 
          |                 G F N 2 - x T B                 |
          | Geometry, Frequencies, Noncovalent interactions |
          |            JCTC 2019 parametrisation            |
           ------------------------------------------------- 
             k(s)              :                1.8500
             k(p)              :                2.2300
             k(d)              :                2.2300
             k(f)              :                2.0000
             kEN (H0ij)        :               -2.0000
             D4 a1             :                0.5200
             D4 a2             :                5.0000
             D4 s6             :                1.0000
             D4 s8             :                2.7000
             D4 s9             :                5.0000
             alphaj            :                2.0000

  Z AO/shell   Hii/eV     exponent
  1     Wed Apr 25 08:07:45 CEST 2018   EN: 2.200 GM2: 0.406  GM3: 0.0800  RAES: 1.40
     1s    -10.707211    1.230000
  6     Wed Apr 25 08:07:45 CEST 2018   EN: 2.550 GM2: 0.538  GM3: 0.1500  RAES: 3.00
     2s    -13.970922    2.096432
     2p    -10.063292    1.800000
  7     Wed Apr 25 08:07:45 CEST 2018   EN: 3.040 GM2: 0.461  GM3:-0.0640  RAES: 1.90
     2s    -16.686243    2.339881
     2p    -12.523956    2.014332
  8     Wed Apr 25 08:07:45 CEST 2018   EN: 3.440 GM2: 0.452  GM3:-0.0517  RAES: 1.80
     2s    -20.229985    2.439742
     2p    -15.503117    2.137023
 16     Tue Apr 24 11:44:34 CEST 2018   EN: 2.580 GM2: 0.340  GM3:-0.0502  RAES: 3.10
     3s    -20.029654    1.981333
     3p    -11.377694    2.025643
     3d     -0.420282    1.702555
 17     Mon Apr 23 14:09:22 CEST 2018   EN: 3.160 GM2: 0.249  GM3: 0.1495  RAES: 2.50
     3s    -29.278781    2.485265
     3p    -12.673758    2.199650
     3d     -0.240338    2.476089

 Solvent             : water
 Using internal parameter file: .param_gbsa2_water
 Gsolv ref. state (COSMO-RS): gsolv [1 M gas/solution]
 temperature (mdtemp)       :    298.14999999999998     
 dielectric constant        :    80.200000000000003     
 rho                        :    1.0000000000000000     
 mass                       :    18.000000000000000     
 surface tension            :    15.568945408385856     
 probe radius               :   0.97531378999999996     
 Gshift (Eh)                :    1.8574431267947933E-003
 c1                         :    1.5524381700000001     
 soset                      :   0.13032636000000000     
 HB correction              :  T
           ------------------------------------------------- 
          |        Self-Consistent Charge Iterations        |
           ------------------------------------------------- 

          ...................................................
          :                      SETUP                      :
          :.................................................:
          :  # basis functions                6554          :
          :  # atomic orbitals                6547          :
          :  # shells                         3921          :
          :  # electrons                      7234          :
          :  max. iterations                   250          :
          :  Hamiltonian                  GFN2-xTB          :
          :  restarted?                      false          :
          :  GBSA solvation                   true          :
          :  PC potential                    false          :
          :  electronic temp.          300.0000000     K    :
          :  accuracy                    1.0000000          :
          :  -> integral cutoff          0.2500000E+02      :
          :  -> integral neglect         0.1000000E-07      :
          :  -> SCF convergence          0.1000000E-05 Eh   :
          :  -> wf. convergence          0.1000000E-03 e    :
          :  Broyden damping             0.4000000          :
          ...................................................

 iter      E             dE          RMSdq      gap      omega  full diag
   1  -4144.6593918 -0.414466E+04  0.429E+00    1.81       0.0  T
   2  -4156.9520708 -0.122927E+02  0.227E+00    2.12       1.0  T
   3  -4157.4323260 -0.480255E+00  0.120E+00    2.01       1.0  T
   4  -4157.4857847 -0.534587E-01  0.317E-01    1.75       1.0  T
   5  -4157.6203725 -0.134588E+00  0.153E-01    1.65       1.0  T
   6  -4157.6381264 -0.177540E-01  0.793E-02    1.66       1.0  T
   7  -4157.6413467 -0.322026E-02  0.408E-02    1.62       1.0  T
   8  -4157.6425368 -0.119013E-02  0.177E-02    1.57       1.0  T
   9  -4157.6427406 -0.203850E-03  0.109E-02    1.55       1.0  T
  10  -4157.6428396 -0.989448E-04  0.574E-03    1.53       1.0  T
  11  -4157.6428663 -0.267470E-04  0.305E-03    1.52       1.0  T
  12  -4157.6428747 -0.839016E-05  0.181E-03    1.52       1.1  T
  13  -4157.6428776 -0.289120E-05  0.113E-03    1.51       1.7  T
  14  -4157.6428788 -0.117716E-05  0.705E-04    1.51       2.8  T
  15  -4157.6428793 -0.475506E-06  0.463E-04    1.51       4.2  T
  16  -4157.6428794 -0.181257E-06  0.324E-04    1.51       6.0  T

   *** convergence criteria satisfied after 16 iterations ***

         #    Occupation            Energy/Eh            Energy/eV
      -------------------------------------------------------------
         1        2.0000           -1.0338220             -28.1317
       ...           ...                  ...                  ...
      3611        2.0000           -0.3587721              -9.7627
      3612        2.0000           -0.3582325              -9.7480
      3613        2.0000           -0.3569288              -9.7125
      3614        2.0000           -0.3528102              -9.6005
      3615        2.0000           -0.3525167              -9.5925
      3616        2.0000           -0.3516947              -9.5701
      3617        2.0000           -0.3465901              -9.4312 (HOMO)
      3618                         -0.2911147              -7.9216 (LUMO)
      3619                         -0.2787509              -7.5852
      3620                         -0.2752285              -7.4893
      3621                         -0.2724468              -7.4137
      3622                         -0.2681613              -7.2970
       ...                                ...                  ...
      6547                          0.7990338              21.7428
      -------------------------------------------------------------
                  HL-Gap            0.0554755 Eh            1.5096 eV
             Fermi-level           -0.3188524 Eh           -8.6764 eV

 SCC (total)                   0 d,  0 h,  7 min, 15.186 sec
 SCC setup                      ...        0 min,  3.162 sec (  0.727%)
 Dispersion                     ...        0 min,  2.001 sec (  0.460%)
 integral evaluation            ...        0 min, 11.486 sec (  2.639%)
 zeroth order Hamiltonian       ...        0 min,  0.345 sec (  0.079%)
 iterations                     ...        6 min, 39.557 sec ( 91.813%)
 molecular gradient             ...        0 min, 17.801 sec (  4.091%)
 printout                       ...        0 min,  0.833 sec (  0.191%)

         :::::::::::::::::::::::::::::::::::::::::::::::::::::
         ::                     SUMMARY                     ::
         :::::::::::::::::::::::::::::::::::::::::::::::::::::
         :: total energy           -4109.199496480716 Eh    ::
         :: total w/o Gsasa/hb     -4108.799678015089 Eh    ::
         :: gradient norm              1.360087642276 Eh/a0 ::
         :: HOMO-LUMO gap              1.509564418542 eV    ::
         ::.................................................::
         :: SCC energy             -4157.707185237389 Eh    ::
         :: -> isotropic ES           14.385681384172 Eh    ::
         :: -> anisotropic ES         -0.762037674606 Eh    ::
         :: -> anisotropic XC          1.169973297598 Eh    ::
         :: -> dispersion             -3.922897363619 Eh    ::
         :: -> Gsolv                  -4.225486472289 Eh    ::
         ::    -> Gborn               -3.825668006662 Eh    ::
         ::    -> Gsasa               -0.066163233404 Eh    ::
         ::    -> Ghb                 -0.335512675350 Eh    ::
         ::    -> Gshift               0.001857443127 Eh    ::
         :: repulsion energy          47.959444176530 Eh    ::
         :: add. restraining           0.000000000000 Eh    ::
         :::::::::::::::::::::::::::::::::::::::::::::::::::::

           -------------------------------------------------
          |                Property Printout                |
           -------------------------------------------------

    * Orbital Energies and Occupations

         #    Occupation            Energy/Eh            Energy/eV
      -------------------------------------------------------------
         1        2.0000           -1.0338220             -28.1317
       ...           ...                  ...                  ...
      3605        2.0000           -0.3653214              -9.9409
      3606        2.0000           -0.3642449              -9.9116
      3607        2.0000           -0.3637886              -9.8992
      3608        2.0000           -0.3633292              -9.8867
      3609        2.0000           -0.3608212              -9.8184
      3610        2.0000           -0.3602069              -9.8017
      3611        2.0000           -0.3587721              -9.7627
      3612        2.0000           -0.3582325              -9.7480
      3613        2.0000           -0.3569288              -9.7125
      3614        2.0000           -0.3528102              -9.6005
      3615        2.0000           -0.3525167              -9.5925
      3616        2.0000           -0.3516947              -9.5701
      3617        2.0000           -0.3465901              -9.4312 (HOMO)
      3618                         -0.2911147              -7.9216 (LUMO)
      3619                         -0.2787509              -7.5852
      3620                         -0.2752285              -7.4893
      3621                         -0.2724468              -7.4137
      3622                         -0.2681613              -7.2970
      3623                         -0.2663219              -7.2470
      3624                         -0.2653739              -7.2212
      3625                         -0.2645773              -7.1995
      3626                         -0.2644728              -7.1967
      3627                         -0.2633768              -7.1668
      3628                         -0.2627376              -7.1495
       ...                                ...                  ...
      6547                          0.7990338              21.7428
      -------------------------------------------------------------
                  HL-Gap            0.0554755 Eh            1.5096 eV
             Fermi-level           -0.3188524 Eh           -8.6764 eV

     #   Z        covCN         q      C6AA      α(0)
     1   7 N      3.492    -0.146    24.158     7.300
     2   1 H      0.860     0.283     0.765     1.370
     3   1 H      0.860     0.316     0.668     1.280
     4   1 H      0.860     0.318     0.662     1.274
     5   6 C      3.788    -0.044    21.371     6.584
     6   1 H      0.925     0.142     1.450     1.883
     7   6 C      3.811    -0.104    22.473     6.748
     8   1 H      0.925     0.104     1.745     2.066
     9   1 H      0.924     0.109     1.706     2.042
    10   6 C      3.797    -0.032    21.147     6.548
    11   1 H      0.925     0.088     1.896     2.153
    12   1 H      0.925     0.063     2.169     2.303
    13  16 S      1.938    -0.211   150.043    20.617
    14   6 C      3.738    -0.058    21.710     6.649
    15   1 H      0.925     0.068     2.109     2.271
    16   1 H      0.925     0.016     2.788     2.611
    17   1 H      0.925     0.054     2.266     2.354
    18   6 C      2.747     0.259    22.630     7.789
    19   8 O      0.862    -0.448    22.660     6.382
    20   7 N      2.696    -0.157    24.394     7.335
    21   1 H      0.860     0.221     1.004     1.570
    22   6 C      3.786     0.012    20.388     6.431
    23   1 H      0.925     0.099     1.790     2.092
    24   6 C      3.793    -0.125    22.912     6.817
    25   1 H      0.925     0.072     2.062     2.246
    26   1 H      0.925     0.110     1.693     2.035
    27   6 C      2.735     0.286    22.144     7.704
    28   8 O      0.873    -0.494    23.651     6.521
    29   7 N      2.650    -0.265    26.864     7.698
    30   1 H      0.860     0.230     0.963     1.537
    31   1 H      0.860     0.230     0.964     1.538
    32   6 C      2.747     0.276    22.322     7.736
    33   8 O      0.858    -0.499    23.771     6.537
    34   7 N      2.680    -0.180    24.900     7.411
    35   1 H      0.860     0.232     0.957     1.532
    36   6 C      3.783     0.002    20.569     6.461
    37   1 H      0.925     0.100     1.784     2.089
    38   6 C      3.846    -0.031    21.100     6.534
    39   1 H      0.925     0.090     1.882     2.145
    40   6 C      3.748    -0.137    23.204     6.870
    41   1 H      0.925     0.068     2.107     2.270
    42   1 H      0.925     0.034     2.535     2.490
    43   1 H      0.925     0.055     2.258     2.350
    44   6 C      3.802    -0.075    21.938     6.668
    45   1 H      0.924     0.038     2.474     2.460
    46   1 H      0.925     0.062     2.173     2.305
    47   6 C      3.748    -0.118    22.835     6.816
    48   1 H      0.925     0.054     2.276     2.359
    49   1 H      0.924     0.059     2.208     2.324
    50   1 H      0.925     0.033     2.548     2.496
    51   6 C      2.748     0.275    22.356     7.742
    52   8 O      0.858    -0.533    24.536     6.641
    53   7 N      2.683    -0.176    24.808     7.397
    54   1 H      0.860     0.236     0.940     1.519
    55   6 C      3.785     0.017    20.307     6.419
    56   1 H      0.925     0.080     1.980     2.201
    57   6 C      3.798    -0.077    21.971     6.674
    58   1 H      0.925     0.057     2.236     2.339
    59   1 H      0.925     0.068     2.104     2.268
    60   6 C      2.945    -0.005    28.141     8.701
    61   6 C      2.907    -0.041    29.020     8.833
    62   1 H      0.926     0.027     2.634     2.538
    63   6 C      2.914    -0.019    28.481     8.751
    64   1 H      0.926     0.013     2.838     2.635
    65   6 C      2.909    -0.026    28.653     8.777
    66   1 H      0.926     0.026     2.644     2.543
    67   6 C      2.914    -0.032    28.801     8.800
    68   1 H      0.926     0.057     2.230     2.335
    69   6 C      2.904    -0.048    29.187     8.858
    70   1 H      0.925     0.071     2.078     2.254
    71   6 C      2.754     0.284    22.193     7.714
    72   8 O      0.869    -0.481    23.361     6.481
    73   7 N      2.695    -0.191    25.152     7.449
    74   1 H      0.860     0.205     1.081     1.629
    75   6 C      3.791     0.025    20.157     6.394
    76   1 H      0.924     0.083     1.951     2.184
    77   6 C      3.802    -0.062    21.691     6.631
    78   1 H      0.925     0.054     2.275     2.359
    79   1 H      0.924     0.054     2.267     2.354
    80   6 C      3.798    -0.101    22.424     6.743
    81   1 H      0.925     0.056     2.249     2.345
    82   1 H      0.924     0.037     2.485     2.465
    83   6 C      2.691     0.379    20.577     7.424
    84   8 O      0.862    -0.623    26.679     6.925
    85   8 O      0.859    -0.636    27.026     6.970
    86   6 C      2.746     0.271    22.418     7.753
    87   8 O      0.857    -0.486    23.467     6.495
    88   7 N      2.683    -0.201    25.362     7.480
    89   1 H      0.860     0.219     1.013     1.576
    90   6 C      3.785     0.019    20.277     6.414
    91   1 H      0.925     0.068     2.103     2.268
    92   6 C      3.830    -0.066    21.747     6.635
    93   1 H      0.924     0.053     2.285     2.364
    94   1 H      0.925     0.088     1.897     2.154
    95   6 C      3.800    -0.019    20.915     6.511
    96   1 H      0.926     0.066     2.133     2.284
    97   1 H      0.925     0.039     2.463     2.454
    98  16 S      1.977    -0.151   147.399    20.434
    99   6 C      3.744    -0.064    21.793     6.659
   100   1 H      0.925     0.051     2.309     2.376
   101   1 H      0.925     0.063     2.161     2.299
   102   1 H      0.924     0.027     2.625     2.534
   103   6 C      2.753     0.278    22.302     7.733
   104   8 O      0.872    -0.506    23.910     6.556
   105   7 N      2.710    -0.194    25.197     7.455
   106   1 H      0.860     0.232     0.956     1.531
   107   6 C      3.795     0.037    19.959     6.362
   108   1 H      0.925     0.078     1.995     2.209
   109   6 C      3.813    -0.075    21.931     6.666
   110   1 H      0.925     0.047     2.364     2.404
   111   1 H      0.925     0.047     2.360     2.402
   112   6 C      3.843    -0.020    20.892     6.502
   113   1 H      0.924     0.063     2.166     2.301
   114   6 C      3.759    -0.128    23.003     6.838
   115   1 H      0.925     0.050     2.322     2.383
   116   1 H      0.924     0.067     2.118     2.276
   117   1 H      0.925     0.034     2.525     2.485
   118   6 C      3.756    -0.118    22.810     6.810
   119   1 H      0.924     0.038     2.471     2.458
   120   1 H      0.925     0.054     2.266     2.354
   121   1 H      0.924     0.036     2.499     2.472
   122   6 C      2.752     0.276    22.328     7.737
   123   8 O      0.874    -0.513    24.072     6.579
   124   7 N      2.698    -0.181    24.925     7.415
   125   1 H      0.860     0.178     1.225     1.734
   126   6 C      3.787     0.024    20.187     6.399
   127   1 H      0.925     0.089     1.894     2.152
   128   6 C      3.810    -0.078    21.985     6.674
   129   1 H      0.925     0.050     2.326     2.385
   130   1 H      0.924     0.080     1.974     2.197
   131   6 C      3.806    -0.078    21.985     6.675
   132   1 H      0.925     0.063     2.159     2.298
   133   1 H      0.925     0.075     2.036     2.232
   134   6 C      3.737    -0.024    21.078     6.551
   135   1 H      0.925     0.087     1.905     2.158
   136   1 H      0.924     0.083     1.951     2.185
   137   7 N      2.708    -0.171    24.701     7.382
   138   1 H      0.860     0.235     0.946     1.523
   139   6 C      2.735     0.249    22.819     7.821
   140   7 N      2.691    -0.251    26.529     7.650
   141   1 H      0.860     0.236     0.942     1.520
   142   1 H      0.860     0.252     0.875     1.466
   143   7 N      2.704    -0.275    27.099     7.731
   144   1 H      0.860     0.227     0.978     1.549
   145   1 H      0.860     0.234     0.946     1.524
   146   6 C      2.754     0.273    22.393     7.749
   147   8 O      0.861    -0.480    23.345     6.478
   148   7 N      2.685    -0.161    24.474     7.347
   149   1 H      0.860     0.192     1.149     1.679
   150   6 C      3.775     0.019    20.279     6.416
   151   1 H      0.925     0.092     1.862     2.134
   152   6 C      3.845    -0.028    21.033     6.524
   153   1 H      0.925     0.057     2.235     2.338
   154   6 C      3.752    -0.120    22.867     6.819
   155   1 H      0.925     0.057     2.236     2.338
   156   1 H      0.925     0.050     2.326     2.385
   157   1 H      0.925     0.050     2.320     2.382
   158   6 C      3.798    -0.055    21.570     6.613
   159   1 H      0.924     0.028     2.613     2.528
   160   1 H      0.925     0.038     2.479     2.462
   161   6 C      3.752    -0.096    22.398     6.749
   162   1 H      0.925     0.044     2.392     2.419
   163   1 H      0.925     0.027     2.629     2.536
   164   1 H      0.925     0.046     2.374     2.410
   165   6 C      2.730     0.256    22.693     7.799
   166   8 O      0.860    -0.508    23.957     6.562
   167   7 N      2.682    -0.175    24.785     7.394
   168   1 H      0.860     0.185     1.187     1.706
   169   6 C      3.781     0.033    20.041     6.377
   170   1 H      0.924     0.085     1.925     2.170
   171   6 C      3.797    -0.090    22.214     6.711
   172   1 H      0.925     0.032     2.557     2.501
   173   1 H      0.924     0.046     2.366     2.405
   174   6 C      2.682     0.365    20.816     7.466
   175   8 O      0.856    -0.584    25.719     6.799
   176   8 O      0.855    -0.574    25.489     6.769
   177   6 C      2.741     0.265    22.536     7.773
   178   8 O      0.865    -0.477    23.283     6.470
   179   7 N      2.694    -0.176    24.810     7.398
   180   1 H      0.860     0.182     1.200     1.716
   181   6 C      3.799     0.032    20.041     6.374
   182   1 H      0.925     0.078     1.995     2.209
   183   6 C      3.805    -0.052    21.507     6.602
   184   1 H      0.925     0.034     2.534     2.489
   185   1 H      0.924     0.042     2.417     2.431
   186   6 C      3.801    -0.106    22.527     6.758
   187   1 H      0.925     0.050     2.314     2.379
   188   1 H      0.925     0.042     2.420     2.433
   189   6 C      2.689     0.359    20.903     7.482
   190   8 O      0.860    -0.632    26.914     6.956
   191   8 O      0.859    -0.628    26.813     6.943
   192   6 C      2.762     0.276    22.335     7.739
   193   8 O      0.861    -0.508    23.954     6.562
   194   7 N      2.695    -0.157    24.392     7.335
   195   1 H      0.860     0.228     0.973     1.546
   196   6 C      3.743    -0.044    21.440     6.606
   197   1 H      0.924     0.114     1.667     2.019
   198   1 H      0.924     0.084     1.937     2.177
   199   6 C      2.755     0.263    22.561     7.778
   200   8 O      0.859    -0.517    24.173     6.592
   201   7 N      2.696    -0.146    24.162     7.300
   202   1 H      0.860     0.216     1.028     1.588
   203   6 C      3.797     0.025    20.150     6.392
   204   1 H      0.925     0.060     2.194     2.316
   205   6 C      3.809    -0.084    22.098     6.691
   206   1 H      0.925     0.071     2.069     2.250
   207   1 H      0.925     0.059     2.208     2.324
   208   6 C      3.841    -0.019    20.878     6.500
   209   1 H      0.924     0.065     2.147     2.291
   210   6 C      3.757    -0.125    22.946     6.830
   211   1 H      0.924     0.030     2.592     2.518
   212   1 H      0.924     0.043     2.409     2.427
   213   1 H      0.925     0.035     2.510     2.477
   214   6 C      3.748    -0.131    23.079     6.852
   215   1 H      0.925     0.041     2.442     2.444
   216   1 H      0.924     0.053     2.281     2.362
   217   1 H      0.925     0.061     2.187     2.313
   218   6 C      2.753     0.272    22.395     7.749
   219   8 O      0.869    -0.488    23.508     6.501
   220   7 N      2.691    -0.166    24.582     7.364
   221   1 H      0.860     0.217     1.024     1.585
   222   6 C      3.772     0.007    20.497     6.451
   223   1 H      0.925     0.101     1.775     2.083
   224   6 C      3.796    -0.076    21.961     6.673
   225   1 H      0.925     0.087     1.909     2.161
   226   1 H      0.924     0.060     2.197     2.318
   227   6 C      3.804    -0.082    22.065     6.687
   228   1 H      0.924     0.078     2.001     2.212
   229   1 H      0.924     0.080     1.983     2.202
   230   6 C      3.728    -0.019    21.005     6.543
   231   1 H      0.925     0.069     2.092     2.262
   232   1 H      0.925     0.072     2.060     2.245
   233   7 N      2.703    -0.192    25.155     7.449
   234   1 H      0.860     0.240     0.924     1.506
   235   6 C      2.732     0.244    22.906     7.836
   236   7 N      2.670    -0.267    26.904     7.704
   237   1 H      0.860     0.226     0.983     1.553
   238   1 H      0.860     0.223     0.996     1.563
   239   7 N      2.682    -0.237    26.203     7.603
   240   1 H      0.860     0.253     0.872     1.463
   241   1 H      0.860     0.273     0.799     1.401
   242   6 C      2.737     0.247    22.857     7.828
   243   8 O      0.856    -0.513    24.085     6.580
   244   7 N      2.681    -0.163    24.530     7.356
   245   1 H      0.860     0.220     1.011     1.575
   246   6 C      3.783     0.007    20.472     6.445
   247   1 H      0.925     0.100     1.783     2.088
   248   6 C      3.814    -0.090    22.212     6.708
   249   1 H      0.924     0.076     2.025     2.225
   250   1 H      0.924     0.073     2.058     2.243
   251   6 C      3.849    -0.019    20.886     6.500
   252   1 H      0.925     0.047     2.354     2.400
   253   6 C      3.772    -0.144    23.311     6.880
   254   1 H      0.925     0.051     2.306     2.374
   255   1 H      0.925     0.072     2.066     2.248
   256   1 H      0.925     0.053     2.281     2.362
   257   6 C      3.762    -0.111    22.661     6.786
   258   1 H      0.925     0.028     2.621     2.532
   259   1 H      0.925     0.021     2.714     2.576
   260   1 H      0.925     0.038     2.473     2.459
   261   6 C      2.741     0.264    22.550     7.775
   262   8 O      0.858    -0.465    23.014     6.432
   263   7 N      2.688    -0.166    24.583     7.364
   264   1 H      0.860     0.213     1.041     1.598
   265   6 C      3.795     0.017    20.296     6.415
   266   1 H      0.924     0.084     1.941     2.179
   267   6 C      3.817    -0.087    22.153     6.699
   268   1 H      0.925     0.089     1.892     2.151
   269   1 H      0.925     0.075     2.030     2.228
   270   6 C      3.805    -0.093    22.265     6.717
   271   1 H      0.925     0.067     2.124     2.279
   272   1 H      0.924     0.073     2.053     2.240
   273   6 C      3.799    -0.108    22.561     6.763
   274   1 H      0.924     0.089     1.889     2.149
   275   1 H      0.925     0.083     1.947     2.182
   276   6 C      3.731    -0.063    21.799     6.665
   277   1 H      0.925     0.113     1.673     2.023
   278   1 H      0.924     0.116     1.648     2.008
   279   7 N      3.489    -0.145    24.130     7.296
   280   1 H      0.860     0.298     0.720     1.329
   281   1 H      0.860     0.300     0.714     1.324
   282   1 H      0.860     0.296     0.724     1.333
   283   6 C      2.748     0.261    22.604     7.785
   284   8 O      0.857    -0.482    23.400     6.486
   285   7 N      2.680    -0.178    24.847     7.403
   286   1 H      0.860     0.219     1.016     1.579
   287   6 C      3.782     0.012    20.392     6.433
   288   1 H      0.925     0.065     2.137     2.286
   289   6 C      3.852    -0.029    21.046     6.525
   290   1 H      0.925     0.080     1.979     2.200
   291   6 C      3.755    -0.130    23.045     6.845
   292   1 H      0.925     0.045     2.383     2.414
   293   1 H      0.925     0.051     2.308     2.376
   294   1 H      0.925     0.069     2.099     2.266
   295   6 C      3.810    -0.076    21.953     6.669
   296   1 H      0.925     0.054     2.269     2.356
   297   1 H      0.925     0.034     2.527     2.486
   298   6 C      3.745    -0.130    23.068     6.851
   299   1 H      0.924     0.030     2.580     2.512
   300   1 H      0.925     0.039     2.457     2.451
   301   1 H      0.925     0.071     2.077     2.254
   302   6 C      2.742     0.259    22.630     7.789
   303   8 O      0.856    -0.497    23.720     6.530
   304   7 N      2.682    -0.154    24.331     7.326
   305   1 H      0.860     0.213     1.041     1.598
   306   6 C      3.773     0.014    20.371     6.431
   307   1 H      0.925     0.112     1.676     2.024
   308   6 C      3.795    -0.094    22.304     6.725
   309   1 H      0.925     0.101     1.780     2.086
   310   1 H      0.925     0.080     1.977     2.199
   311   6 C      2.943    -0.007    28.199     8.709
   312   6 C      2.909    -0.050    29.244     8.867
   313   1 H      0.926     0.074     2.043     2.235
   314   6 C      2.902    -0.078    29.945     8.973
   315   1 H      0.926     0.039     2.460     2.453
   316   6 C      2.826     0.131    25.118     8.212
   317   8 O      1.660    -0.416    21.155     6.209
   318   1 H      0.805     0.313     0.683     1.298
   319   6 C      2.898    -0.083    30.088     8.994
   320   1 H      0.926     0.042     2.427     2.436
   321   6 C      2.908    -0.047    29.173     8.857
   322   1 H      0.926     0.073     2.054     2.241
   323   6 C      2.737     0.248    22.839     7.825
   324   8 O      0.857    -0.496    23.692     6.526
   325   7 N      2.681    -0.140    24.037     7.282
   326   1 H      0.860     0.219     1.016     1.579
   327   6 C      3.785     0.010    20.429     6.438
   328   1 H      0.924     0.085     1.932     2.174
   329   6 C      3.800    -0.081    22.038     6.684
   330   1 H      0.925     0.050     2.321     2.383
   331   1 H      0.925     0.077     2.007     2.215
   332   6 C      3.804    -0.071    21.859     6.656
   333   1 H      0.924     0.072     2.068     2.249
   334   1 H      0.925     0.036     2.506     2.476
   335   6 C      3.803    -0.095    22.311     6.725
   336   1 H      0.925     0.081     1.971     2.196
   337   1 H      0.925     0.063     2.162     2.299
   338   6 C      3.732    -0.058    21.703     6.650
   339   1 H      0.925     0.130     1.535     1.938
   340   1 H      0.924     0.134     1.501     1.916
   341   7 N      3.488    -0.150    24.239     7.312
   342   1 H      0.860     0.309     0.688     1.300
   343   1 H      0.860     0.295     0.728     1.336
   344   1 H      0.860     0.283     0.766     1.371
   345   6 C      2.748     0.275    22.349     7.741
   346   8 O      0.861    -0.511    24.038     6.573
   347   7 N      2.702    -0.169    24.648     7.374
   348   1 H      0.860     0.221     1.006     1.571
   349   6 C      3.790     0.048    19.779     6.334
   350   1 H      0.924     0.069     2.098     2.265
   351   6 C      3.820    -0.087    22.135     6.696
   352   1 H      0.924     0.029     2.595     2.519
   353   1 H      0.925     0.039     2.458     2.452
   354   6 C      2.693     0.367    20.776     7.460
   355   8 O      0.857    -0.629    26.851     6.947
   356   8 O      0.857    -0.641    27.155     6.987
   357   6 C      2.745     0.258    22.648     7.792
   358   8 O      0.857    -0.524    24.330     6.613
   359   7 N      2.677    -0.159    24.439     7.342
   360   1 H      0.860     0.216     1.027     1.588
   361   6 C      3.781     0.017    20.309     6.420
   362   1 H      0.925     0.097     1.814     2.106
   363   6 C      3.722     0.116    18.780     6.189
   364   1 H      0.925     0.046     2.376     2.411
   365   6 C      3.750    -0.141    23.278     6.881
   366   1 H      0.925     0.060     2.203     2.321
   367   1 H      0.924     0.061     2.186     2.312
   368   1 H      0.924     0.079     1.986     2.204
   369   8 O      1.655    -0.492    22.718     6.434
   370   1 H      0.806     0.330     0.638     1.254
   371   6 C      2.748     0.290    22.077     7.694
   372   8 O      0.865    -0.501    23.796     6.540
   373   7 N      2.693    -0.182    24.933     7.416
   374   1 H      0.860     0.202     1.097     1.641
   375   6 C      3.792     0.032    20.049     6.377
   376   1 H      0.925     0.069     2.101     2.267
   377   6 C      3.791    -0.054    21.558     6.612
   378   1 H      0.924     0.033     2.542     2.493
   379   1 H      0.925     0.059     2.207     2.323
   380   6 C      3.796    -0.089    22.207     6.710
   381   1 H      0.924     0.033     2.545     2.495
   382   1 H      0.925     0.048     2.344     2.394
   383   6 C      2.691     0.364    20.829     7.469
   384   8 O      0.856    -0.650    27.370     7.014
   385   8 O      0.857    -0.606    26.276     6.873
   386   6 C      2.752     0.286    22.145     7.706
   387   8 O      0.860    -0.476    23.267     6.467
   388   7 N      2.683    -0.197    25.286     7.468
   389   1 H      0.860     0.204     1.088     1.634
   390   6 C      3.739    -0.040    21.372     6.596
   391   1 H      0.924     0.115     1.656     2.012
   392   1 H      0.925     0.114     1.667     2.019
   393   6 C      2.746     0.275    22.356     7.742
   394   8 O      0.860    -0.467    23.070     6.440
   395   7 N      2.688    -0.163    24.516     7.354
   396   1 H      0.860     0.171     1.267     1.763
   397   6 C      3.783     0.023    20.207     6.403
   398   1 H      0.925     0.094     1.840     2.122
   399   6 C      3.806    -0.076    21.942     6.668
   400   1 H      0.925     0.070     2.082     2.257
   401   1 H      0.925     0.045     2.386     2.416
   402   6 C      2.953    -0.008    28.209     8.711
   403   6 C      2.897    -0.050    29.239     8.866
   404   1 H      0.926     0.050     2.323     2.384
   405   6 C      2.900    -0.067    29.673     8.932
   406   1 H      0.926     0.070     2.087     2.259
   407   6 C      2.825     0.133    25.079     8.206
   408   8 O      1.657    -0.424    21.328     6.234
   409   1 H      0.806     0.346     0.597     1.213
   410   6 C      2.900    -0.070    29.739     8.942
   411   1 H      0.926     0.053     2.281     2.362
   412   6 C      2.898    -0.047    29.166     8.855
   413   1 H      0.926     0.049     2.331     2.387
   414   6 C      2.753     0.263    22.563     7.778
   415   8 O      0.857    -0.514    24.087     6.580
   416   7 N      2.686    -0.169    24.666     7.376
   417   1 H      0.860     0.233     0.952     1.529
   418   6 C      3.800     0.012    20.368     6.426
   419   1 H      0.924     0.095     1.833     2.117
   420   6 C      3.797    -0.082    22.074     6.690
   421   1 H      0.925     0.071     2.075     2.253
   422   1 H      0.924     0.051     2.313     2.379
   423   6 C      2.952    -0.018    28.459     8.750
   424   6 C      2.897    -0.040    28.993     8.828
   425   1 H      0.926     0.043     2.414     2.430
   426   6 C      2.916    -0.075    29.880     8.964
   427   1 H      0.926     0.037     2.488     2.467
   428   6 C      2.827     0.138    24.985     8.191
   429   8 O      1.660    -0.407    20.982     6.184
   430   1 H      0.806     0.341     0.609     1.225
   431   6 C      2.905    -0.073    29.818     8.954
   432   1 H      0.926     0.077     2.011     2.218
   433   6 C      2.902    -0.055    29.365     8.885
   434   1 H      0.926     0.069     2.095     2.263
   435   6 C      2.751     0.265    22.523     7.771
   436   8 O      0.857    -0.520    24.236     6.600
   437   7 N      2.693    -0.162    24.515     7.354
   438   1 H      0.860     0.249     0.888     1.476
   439   6 C      3.785     0.002    20.560     6.459
   440   1 H      0.925     0.082     1.963     2.191
   441   6 C      3.726     0.131    18.545     6.149
   442   1 H      0.924     0.012     2.860     2.645
   443   6 C      3.751    -0.108    22.632     6.785
   444   1 H      0.924     0.037     2.485     2.465
   445   1 H      0.925     0.038     2.470     2.458
   446   1 H      0.925     0.040     2.452     2.449
   447   8 O      1.660    -0.458    22.014     6.334
   448   1 H      0.806     0.321     0.661     1.277
   449   6 C      2.745     0.255    22.707     7.802
   450   8 O      0.859    -0.441    22.519     6.362
   451   7 N      2.684    -0.191    25.135     7.446
   452   1 H      0.860     0.211     1.050     1.605
   453   6 C      3.791     0.013    20.371     6.428
   454   1 H      0.924     0.082     1.959     2.189
   455   6 C      3.844    -0.020    20.903     6.504
   456   1 H      0.925     0.079     1.994     2.208
   457   6 C      3.756    -0.124    22.936     6.828
   458   1 H      0.925     0.051     2.302     2.373
   459   1 H      0.924     0.033     2.546     2.495
   460   1 H      0.925     0.044     2.390     2.418
   461   6 C      3.806    -0.078    21.989     6.676
   462   1 H      0.925     0.047     2.355     2.400
   463   1 H      0.924     0.044     2.395     2.420
   464   6 C      3.748    -0.124    22.937     6.831
   465   1 H      0.925     0.048     2.344     2.394
   466   1 H      0.925     0.051     2.313     2.379
   467   1 H      0.925     0.053     2.289     2.366
   468   6 C      2.757     0.273    22.380     7.747
   469   8 O      0.860    -0.502    23.834     6.546
   470   7 N      2.683    -0.148    24.199     7.306
   471   1 H      0.860     0.228     0.973     1.545
   472   6 C      3.742    -0.041    21.377     6.596
   473   1 H      0.925     0.072     2.059     2.244
   474   1 H      0.924     0.108     1.715     2.048
   475   6 C      2.742     0.270    22.439     7.756
   476   8 O      0.857    -0.459    22.887     6.414
   477   7 N      2.695    -0.157    24.403     7.337
   478   1 H      0.860     0.207     1.069     1.619
   479   6 C      3.796     0.019    20.253     6.408
   480   1 H      0.925     0.081     1.970     2.195
   481   6 C      3.848    -0.020    20.899     6.503
   482   1 H      0.925     0.043     2.410     2.428
   483   6 C      3.748    -0.107    22.620     6.784
   484   1 H      0.924     0.052     2.294     2.368
   485   1 H      0.925     0.042     2.426     2.436
   486   1 H      0.924     0.026     2.638     2.540
   487   6 C      3.801    -0.070    21.843     6.654
   488   1 H      0.924     0.045     2.385     2.415
   489   1 H      0.925     0.048     2.347     2.396
   490   6 C      3.748    -0.118    22.837     6.816
   491   1 H      0.925     0.032     2.559     2.502
   492   1 H      0.925     0.058     2.218     2.329
   493   1 H      0.924     0.049     2.329     2.387
   494   6 C      2.758     0.273    22.393     7.749
   495   8 O      0.861    -0.484    23.423     6.489
   496   7 N      2.682    -0.177    24.838     7.402
   497   1 H      0.860     0.211     1.051     1.606
   498   6 C      3.731    -0.028    21.171     6.568
   499   1 H      0.925     0.087     1.912     2.162
   500   1 H      0.924     0.110     1.693     2.035
   501   6 C      2.745     0.277    22.304     7.733
   502   8 O      0.863    -0.494    23.647     6.520
   503   7 N      2.689    -0.159    24.436     7.342
   504   1 H      0.860     0.213     1.042     1.599
   505   6 C      3.783     0.035    20.008     6.372
   506   1 H      0.924     0.063     2.159     2.298
   507   6 C      3.812    -0.084    22.098     6.691
   508   1 H      0.924     0.119     1.619     1.990
   509   1 H      0.925     0.095     1.833     2.117
   510   6 C      3.053     0.050    26.821     8.493
   511   7 N      2.784    -0.046    22.133     6.987
   512   1 H      0.860     0.249     0.889     1.477
   513   6 C      2.968     0.061    26.620     8.463
   514   1 H      0.926     0.147     1.410     1.857
   515   7 N      2.802     0.005    21.165     6.833
   516   1 H      0.860     0.268     0.816     1.415
   517   6 C      2.998    -0.009    28.230     8.716
   518   1 H      0.926     0.134     1.502     1.917
   519   6 C      2.742     0.262    22.579     7.780
   520   8 O      0.861    -0.472    23.173     6.454
   521   7 N      2.689    -0.153    24.306     7.322
   522   1 H      0.860     0.193     1.143     1.674
   523   6 C      3.787     0.008    20.457     6.442
   524   1 H      0.924     0.096     1.823     2.111
   525   6 C      3.814    -0.081    22.025     6.680
   526   1 H      0.925     0.068     2.107     2.270
   527   1 H      0.925     0.058     2.224     2.332
   528   6 C      3.851    -0.010    20.727     6.475
   529   1 H      0.924     0.031     2.568     2.506
   530   6 C      3.767    -0.122    22.871     6.816
   531   1 H      0.925     0.049     2.331     2.387
   532   1 H      0.924     0.022     2.707     2.573
   533   1 H      0.925     0.048     2.349     2.397
   534   6 C      3.759    -0.113    22.712     6.794
   535   1 H      0.925     0.031     2.574     2.509
   536   1 H      0.924     0.059     2.209     2.324
   537   1 H      0.925     0.037     2.490     2.468
   538   6 C      2.752     0.281    22.239     7.722
   539   8 O      0.858    -0.467    23.056     6.438
   540   7 N      2.694    -0.199    25.328     7.475
   541   1 H      0.860     0.238     0.930     1.511
   542   6 C      3.790     0.026    20.145     6.392
   543   1 H      0.925     0.078     2.004     2.214
   544   6 C      3.825    -0.073    21.874     6.655
   545   1 H      0.924     0.048     2.343     2.394
   546   1 H      0.924     0.050     2.319     2.381
   547   6 C      3.846    -0.011    20.745     6.479
   548   1 H      0.925     0.043     2.412     2.429
   549   6 C      3.762    -0.123    22.907     6.823
   550   1 H      0.925     0.054     2.275     2.359
   551   1 H      0.924     0.047     2.361     2.403
   552   1 H      0.925     0.053     2.288     2.365
   553   6 C      3.759    -0.118    22.815     6.810
   554   1 H      0.925     0.028     2.610     2.526
   555   1 H      0.924     0.045     2.386     2.416
   556   1 H      0.925     0.027     2.624     2.533
   557   6 C      2.753     0.264    22.549     7.776
   558   8 O      0.860    -0.474    23.221     6.461
   559   7 N      2.681    -0.189    25.094     7.440
   560   1 H      0.860     0.209     1.062     1.614
   561   6 C      3.786     0.017    20.296     6.417
   562   1 H      0.925     0.087     1.911     2.162
   563   6 C      3.728     0.113    18.817     6.193
   564   1 H      0.925     0.026     2.649     2.545
   565   6 C      3.747    -0.144    23.340     6.891
   566   1 H      0.924     0.079     1.985     2.203
   567   1 H      0.924     0.049     2.339     2.391
   568   1 H      0.925     0.062     2.177     2.307
   569   8 O      1.659    -0.462    22.096     6.346
   570   1 H      0.806     0.347     0.594     1.210
   571   6 C      2.742     0.243    22.924     7.839
   572   8 O      0.855    -0.487    23.500     6.499
   573   7 N      2.682    -0.162    24.514     7.353
   574   1 H      0.860     0.218     1.020     1.582
   575   6 C      3.780     0.008    20.462     6.444
   576   1 H      0.925     0.089     1.887     2.148
   577   6 C      3.807    -0.082    22.057     6.686
   578   1 H      0.924     0.076     2.021     2.223
   579   1 H      0.925     0.061     2.189     2.314
   580   6 C      3.802    -0.083    22.083     6.690
   581   1 H      0.924     0.067     2.117     2.276
   582   1 H      0.925     0.062     2.176     2.307
   583   6 C      3.807    -0.101    22.415     6.740
   584   1 H      0.924     0.075     2.034     2.230
   585   1 H      0.924     0.081     1.965     2.192
   586   6 C      3.730    -0.053    21.622     6.638
   587   1 H      0.925     0.122     1.594     1.975
   588   1 H      0.925     0.113     1.671     2.021
   589   7 N      3.493    -0.143    24.080     7.288
   590   1 H      0.860     0.290     0.743     1.351
   591   1 H      0.860     0.295     0.728     1.336
   592   1 H      0.860     0.303     0.704     1.314
   593   6 C      2.747     0.283    22.203     7.716
   594   8 O      0.862    -0.453    22.773     6.398
   595   7 N      2.685    -0.184    24.982     7.423
   596   1 H      0.860     0.211     1.052     1.607
   597   6 C      3.775     0.013    20.387     6.433
   598   1 H      0.925     0.086     1.920     2.167
   599   6 C      3.668     0.067    19.695     6.363
   600   1 H      0.925     0.045     2.382     2.414
   601   1 H      0.924     0.050     2.319     2.381
   602   8 O      1.655    -0.488    22.630     6.422
   603   1 H      0.806     0.351     0.586     1.202
   604   6 C      2.750     0.244    22.910     7.838
   605   8 O      0.859    -0.478    23.305     6.473
   606   7 N      2.766    -0.096    23.121     7.142
   607   6 C      3.803    -0.020    20.935     6.514
   608   1 H      0.924     0.068     2.104     2.268
   609   1 H      0.925     0.083     1.950     2.184
   610   6 C      3.837    -0.076    21.922     6.661
   611   1 H      0.924     0.075     2.035     2.231
   612   1 H      0.924     0.062     2.173     2.305
   613   6 C      3.857    -0.078    21.944     6.662
   614   1 H      0.925     0.074     2.038     2.233
   615   1 H      0.925     0.077     2.010     2.217
   616   6 C      3.832     0.029    20.069     6.374
   617   1 H      0.925     0.096     1.822     2.111
   618   6 C      2.753     0.264    22.549     7.776
   619   8 O      0.858    -0.516    24.132     6.586
   620   7 N      2.680    -0.141    24.063     7.286
   621   1 H      0.860     0.197     1.123     1.660
   622   6 C      3.787     0.000    20.592     6.463
   623   1 H      0.925     0.097     1.814     2.106
   624   6 C      3.679     0.067    19.670     6.353
   625   1 H      0.924     0.045     2.380     2.413
   626   1 H      0.925     0.060     2.196     2.317
   627   8 O      1.660    -0.466    22.180     6.358
   628   1 H      0.806     0.360     0.565     1.181
   629   6 C      2.751     0.272    22.394     7.749
   630   8 O      0.859    -0.474    23.211     6.459
   631   7 N      2.691    -0.165    24.563     7.361
   632   1 H      0.860     0.226     0.984     1.554
   633   6 C      3.785     0.009    20.441     6.440
   634   1 H      0.925     0.105     1.739     2.062
   635   6 C      3.798    -0.089    22.195     6.708
   636   1 H      0.924     0.060     2.198     2.318
   637   1 H      0.924     0.075     2.035     2.231
   638   6 C      3.846    -0.018    20.855     6.496
   639   1 H      0.924     0.047     2.358     2.401
   640   6 C      3.754    -0.138    23.222     6.871
   641   1 H      0.924     0.054     2.273     2.358
   642   1 H      0.925     0.041     2.429     2.437
   643   1 H      0.925     0.067     2.116     2.275
   644   6 C      3.758    -0.140    23.252     6.875
   645   1 H      0.924     0.064     2.153     2.294
   646   1 H      0.925     0.070     2.089     2.260
   647   1 H      0.925     0.038     2.472     2.459
   648   6 C      2.753     0.258    22.659     7.795
   649   8 O      0.858    -0.482    23.400     6.486
   650   7 N      2.680    -0.194    25.219     7.458
   651   1 H      0.860     0.231     0.959     1.534
   652   6 C      3.778     0.022    20.224     6.407
   653   1 H      0.925     0.121     1.609     1.984
   654   6 C      3.812    -0.119    22.768     6.792
   655   1 H      0.925     0.082     1.954     2.186
   656   1 H      0.924     0.128     1.549     1.946
   657   6 C      2.749     0.303    21.848     7.654
   658   8 O      0.869    -0.515    24.114     6.584
   659   7 N      2.650    -0.283    27.316     7.762
   660   1 H      0.860     0.224     0.991     1.560
   661   1 H      0.860     0.226     0.982     1.552
   662   6 C      2.748     0.269    22.455     7.759
   663   8 O      0.862    -0.515    24.109     6.583
   664   7 N      2.686    -0.177    24.826     7.400
   665   1 H      0.860     0.218     1.021     1.583
   666   6 C      3.788     0.010    20.416     6.435
   667   1 H      0.924     0.083     1.947     2.182
   668   6 C      3.750    -0.139    23.237     6.875
   669   1 H      0.925     0.069     2.094     2.263
   670   1 H      0.925     0.083     1.947     2.182
   671   1 H      0.925     0.088     1.902     2.157
   672   6 C      2.742     0.261    22.599     7.784
   673   8 O      0.858    -0.487    23.504     6.500
   674   7 N      2.695    -0.204    25.444     7.492
   675   1 H      0.860     0.233     0.953     1.529
   676   6 C      3.788     0.022    20.218     6.404
   677   1 H      0.924     0.074     2.046     2.237
   678   6 C      3.758    -0.140    23.253     6.875
   679   1 H      0.924     0.086     1.917     2.165
   680   1 H      0.924     0.083     1.945     2.181
   681   1 H      0.924     0.090     1.882     2.146
   682   6 C      2.755     0.273    22.382     7.747
   683   8 O      0.860    -0.487    23.504     6.500
   684   7 N      2.690    -0.185    25.017     7.429
   685   1 H      0.860     0.232     0.958     1.534
   686   6 C      3.793     0.020    20.238     6.406
   687   1 H      0.925     0.103     1.760     2.075
   688   6 C      3.804    -0.085    22.126     6.697
   689   1 H      0.925     0.061     2.193     2.316
   690   1 H      0.925     0.062     2.171     2.304
   691   6 C      3.796    -0.098    22.366     6.734
   692   1 H      0.925     0.097     1.814     2.106
   693   1 H      0.924     0.077     2.013     2.219
   694   6 C      3.809    -0.095    22.298     6.722
   695   1 H      0.925     0.065     2.140     2.288
   696   1 H      0.925     0.077     2.008     2.216
   697   6 C      3.739    -0.055    21.640     6.638
   698   1 H      0.924     0.136     1.493     1.911
   699   1 H      0.925     0.124     1.582     1.967
   700   7 N      3.491    -0.144    24.106     7.292
   701   1 H      0.860     0.291     0.742     1.349
   702   1 H      0.860     0.286     0.755     1.362
   703   1 H      0.860     0.303     0.704     1.314
   704   6 C      2.752     0.265    22.530     7.772
   705   8 O      0.859    -0.506    23.918     6.557
   706   7 N      2.680    -0.191    25.139     7.447
   707   1 H      0.860     0.212     1.049     1.604
   708   6 C      3.790     0.015    20.334     6.422
   709   1 H      0.924     0.068     2.108     2.270
   710   6 C      3.679     0.078    19.491     6.324
   711   1 H      0.924     0.051     2.301     2.372
   712   1 H      0.925     0.046     2.368     2.406
   713   8 O      1.656    -0.469    22.239     6.366
   714   1 H      0.805     0.349     0.591     1.207
   715   6 C      2.753     0.271    22.424     7.754
   716   8 O      0.859    -0.526    24.362     6.618
   717   7 N      2.687    -0.189    25.097     7.440
   718   1 H      0.860     0.230     0.967     1.540
   719   6 C      3.788     0.031    20.057     6.378
   720   1 H      0.925     0.078     2.005     2.214
   721   6 C      3.801    -0.058    21.611     6.619
   722   1 H      0.925     0.059     2.207     2.323
   723   1 H      0.925     0.068     2.109     2.271
   724   6 C      3.801    -0.083    22.088     6.691
   725   1 H      0.925     0.028     2.620     2.531
   726   1 H      0.924     0.038     2.482     2.464
   727   6 C      2.682     0.344    21.151     7.526
   728   8 O      0.855    -0.631    26.898     6.953
   729   8 O      0.856    -0.645    27.262     7.000
   730   6 C      2.757     0.283    22.208     7.717
   731   8 O      0.866    -0.517    24.158     6.590
   732   7 N      2.690    -0.202    25.381     7.482
   733   1 H      0.860     0.226     0.982     1.552
   734   6 C      3.788     0.027    20.129     6.390
   735   1 H      0.925     0.086     1.921     2.168
   736   6 C      3.813    -0.083    22.072     6.687
   737   1 H      0.925     0.059     2.216     2.328
   738   1 H      0.925     0.078     2.001     2.212
   739   6 C      3.849    -0.014    20.783     6.484
   740   1 H      0.924     0.024     2.672     2.557
   741   6 C      3.750    -0.120    22.864     6.819
   742   1 H      0.924     0.028     2.615     2.529
   743   1 H      0.925     0.051     2.310     2.377
   744   1 H      0.924     0.051     2.305     2.374
   745   6 C      3.758    -0.128    23.005     6.838
   746   1 H      0.924     0.062     2.174     2.306
   747   1 H      0.925     0.045     2.382     2.413
   748   1 H      0.925     0.067     2.119     2.276
   749   6 C      2.744     0.284    22.180     7.711
   750   8 O      0.864    -0.491    23.592     6.512
   751   7 N      2.683    -0.204    25.437     7.491
   752   1 H      0.860     0.226     0.985     1.554
   753   6 C      3.789     0.042    19.874     6.349
   754   1 H      0.925     0.058     2.217     2.328
   755   6 C      3.802    -0.094    22.296     6.723
   756   1 H      0.925     0.028     2.619     2.531
   757   1 H      0.925     0.059     2.206     2.322
   758   6 C      2.679     0.364    20.823     7.467
   759   8 O      0.855    -0.637    27.042     6.972
   760   8 O      0.856    -0.640    27.112     6.981
   761   6 C      2.750     0.286    22.162     7.709
   762   8 O      0.858    -0.492    23.607     6.514
   763   7 N      2.684    -0.230    26.038     7.579
   764   1 H      0.860     0.205     1.080     1.628
   765   6 C      3.787     0.034    20.015     6.372
   766   1 H      0.924     0.077     2.008     2.216
   767   6 C      3.804    -0.065    21.746     6.639
   768   1 H      0.924     0.054     2.268     2.355
   769   1 H      0.924     0.067     2.116     2.275
   770   6 C      3.797    -0.079    22.018     6.681
   771   1 H      0.925     0.050     2.316     2.380
   772   1 H      0.925     0.062     2.181     2.309
   773   6 C      3.803    -0.091    22.229     6.712
   774   1 H      0.924     0.078     1.997     2.210
   775   1 H      0.924     0.075     2.030     2.228
   776   6 C      3.736    -0.040    21.377     6.598
   777   1 H      0.924     0.129     1.542     1.942
   778   1 H      0.925     0.105     1.738     2.062
   779   7 N      3.488    -0.156    24.370     7.332
   780   1 H      0.860     0.299     0.715     1.325
   781   1 H      0.860     0.294     0.732     1.340
   782   1 H      0.860     0.284     0.763     1.368
   783   6 C      2.748     0.266    22.506     7.768
   784   8 O      0.857    -0.494    23.658     6.521
   785   7 N      2.687    -0.170    24.684     7.379
   786   1 H      0.860     0.188     1.170     1.694
   787   6 C      3.787     0.019    20.265     6.412
   788   1 H      0.925     0.087     1.913     2.163
   789   6 C      3.750    -0.130    23.056     6.848
   790   1 H      0.924     0.074     2.047     2.237
   791   1 H      0.925     0.074     2.046     2.237
   792   1 H      0.925     0.069     2.100     2.266
   793   6 C      2.748     0.258    22.654     7.793
   794   8 O      0.856    -0.518    24.183     6.593
   795   7 N      2.683    -0.191    25.134     7.446
   796   1 H      0.860     0.238     0.931     1.511
   797   6 C      3.781     0.007    20.473     6.446
   798   1 H      0.924     0.084     1.940     2.178
   799   6 C      3.837    -0.028    21.045     6.526
   800   1 H      0.925     0.083     1.952     2.185
   801   6 C      3.745    -0.118    22.831     6.816
   802   1 H      0.924     0.030     2.582     2.513
   803   1 H      0.924     0.029     2.598     2.521
   804   1 H      0.925     0.072     2.069     2.249
   805   6 C      3.795    -0.064    21.733     6.638
   806   1 H      0.924     0.038     2.478     2.462
   807   1 H      0.924     0.055     2.259     2.350
   808   6 C      3.746    -0.115    22.779     6.808
   809   1 H      0.925     0.041     2.438     2.442
   810   1 H      0.925     0.056     2.244     2.343
   811   1 H      0.924     0.035     2.517     2.481
   812   6 C      2.744     0.279    22.277     7.728
   813   8 O      0.858    -0.484    23.425     6.489
   814   7 N      2.683    -0.166    24.595     7.366
   815   1 H      0.860     0.192     1.146     1.677
   816   6 C      3.735    -0.026    21.119     6.559
   817   1 H      0.925     0.084     1.939     2.177
   818   1 H      0.925     0.080     1.982     2.201
   819   6 C      2.739     0.286    22.160     7.707
   820   8 O      0.861    -0.485    23.446     6.492
   821   7 N      2.679    -0.176    24.803     7.397
   822   1 H      0.860     0.203     1.090     1.635
   823   6 C      3.767     0.009    20.454     6.446
   824   1 H      0.924     0.080     1.977     2.199
   825   6 C      3.785    -0.082    22.075     6.692
   826   1 H      0.925     0.082     1.957     2.188
   827   1 H      0.925     0.080     1.975     2.198
   828   6 C      3.799    -0.068    21.806     6.649
   829   1 H      0.925     0.052     2.294     2.369
   830   1 H      0.925     0.052     2.299     2.371
   831   6 C      3.730    -0.015    20.939     6.532
   832   1 H      0.924     0.084     1.937     2.177
   833   1 H      0.925     0.091     1.870     2.138
   834   7 N      2.696    -0.170    24.685     7.379
   835   1 H      0.860     0.240     0.925     1.507
   836   6 C      2.733     0.250    22.792     7.816
   837   7 N      2.731    -0.255    26.609     7.661
   838   1 H      0.860     0.228     0.972     1.545
   839   1 H      0.860     0.239     0.926     1.507
   840   7 N      2.733    -0.251    26.534     7.650
   841   1 H      0.860     0.244     0.907     1.492
   842   1 H      0.860     0.241     0.918     1.501
   843   6 C      2.751     0.266    22.507     7.768
   844   8 O      0.858    -0.510    23.996     6.568
   845   7 N      2.697    -0.156    24.381     7.333
   846   1 H      0.860     0.225     0.988     1.557
   847   6 C      3.790     0.033    20.028     6.373
   848   1 H      0.925     0.066     2.130     2.282
   849   6 C      3.809    -0.107    22.528     6.756
   850   1 H      0.924     0.107     1.722     2.052
   851   1 H      0.924     0.074     2.041     2.234
   852   6 C      2.748     0.290    22.083     7.695
   853   8 O      0.864    -0.516    24.142     6.588
   854   7 N      2.645    -0.281    27.253     7.753
   855   1 H      0.860     0.251     0.878     1.468
   856   1 H      0.860     0.225     0.989     1.558
   857   6 C      2.759     0.274    22.377     7.746
   858   8 O      0.860    -0.481    23.367     6.481
   859   7 N      2.689    -0.163    24.528     7.356
   860   1 H      0.860     0.197     1.120     1.658
   861   6 C      3.826     0.008    20.430     6.432
   862   1 H      0.924     0.099     1.794     2.094
   863   6 C      3.803    -0.015    20.848     6.500
   864   1 H      0.925     0.050     2.324     2.384
   865   1 H      0.925     0.084     1.939     2.178
   866  16 S      1.943    -0.221   150.476    20.646
   867   1 H      0.923     0.149     1.401     1.851
   868   6 C      2.748     0.269    22.449     7.758
   869   8 O      0.859    -0.428    22.248     6.324
   870   7 N      2.682    -0.186    25.040     7.432
   871   1 H      0.860     0.204     1.088     1.634
   872   6 C      3.788     0.024    20.190     6.400
   873   1 H      0.924     0.085     1.928     2.171
   874   6 C      3.796    -0.103    22.468     6.750
   875   1 H      0.925     0.082     1.962     2.190
   876   1 H      0.924     0.077     2.010     2.217
   877   6 C      2.737     0.294    22.006     7.681
   878   8 O      0.882    -0.498    23.726     6.531
   879   7 N      2.659    -0.282    27.270     7.756
   880   1 H      0.860     0.252     0.876     1.466
   881   1 H      0.860     0.219     1.014     1.577
   882   6 C      2.745     0.263    22.557     7.777
   883   8 O      0.858    -0.481    23.359     6.480
   884   7 N      2.682    -0.159    24.441     7.342
   885   1 H      0.860     0.191     1.154     1.683
   886   6 C      3.727    -0.043    21.442     6.611
   887   1 H      0.924     0.128     1.552     1.948
   888   1 H      0.925     0.098     1.805     2.101
   889   6 C      2.734     0.259    22.637     7.790
   890   8 O      0.858    -0.456    22.829     6.406
   891   7 N      2.692    -0.146    24.158     7.300
   892   1 H      0.860     0.198     1.119     1.657
   893   6 C      3.781     0.014    20.360     6.428
   894   1 H      0.924     0.097     1.809     2.103
   895   6 C      3.855    -0.022    20.933     6.507
   896   1 H      0.925     0.035     2.513     2.479
   897   6 C      3.755    -0.133    23.122     6.856
   898   1 H      0.924     0.060     2.201     2.320
   899   1 H      0.925     0.029     2.599     2.521
   900   1 H      0.925     0.065     2.143     2.289
   901   6 C      3.750    -0.134    23.149     6.862
   902   1 H      0.924     0.071     2.079     2.255
   903   1 H      0.924     0.073     2.058     2.243
   904   1 H      0.924     0.067     2.121     2.277
   905   6 C      2.743     0.256    22.691     7.800
   906   8 O      0.857    -0.515    24.131     6.586
   907   7 N      2.677    -0.167    24.619     7.369
   908   1 H      0.860     0.234     0.948     1.526
   909   6 C      3.786     0.017    20.308     6.419
   910   1 H      0.925     0.070     2.082     2.256
   911   6 C      3.844    -0.022    20.927     6.507
   912   1 H      0.924     0.025     2.661     2.551
   913   6 C      3.754    -0.112    22.702     6.794
   914   1 H      0.925     0.041     2.439     2.442
   915   1 H      0.925     0.046     2.376     2.411
   916   1 H      0.924     0.066     2.133     2.284
   917   6 C      3.798    -0.062    21.697     6.632
   918   1 H      0.925     0.039     2.462     2.454
   919   1 H      0.925     0.058     2.228     2.334
   920   6 C      3.753    -0.112    22.696     6.794
   921   1 H      0.924     0.047     2.352     2.398
   922   1 H      0.925     0.021     2.720     2.579
   923   1 H      0.925     0.047     2.364     2.404
   924   6 C      2.747     0.257    22.681     7.798
   925   8 O      0.860    -0.479    23.325     6.475
   926   7 N      2.686    -0.162    24.497     7.351
   927   1 H      0.860     0.197     1.124     1.661
   928   6 C      3.792     0.012    20.379     6.429
   929   1 H      0.925     0.102     1.762     2.076
   930   6 C      3.731     0.120    18.715     6.175
   931   1 H      0.925     0.030     2.581     2.513
   932   6 C      3.741    -0.151    23.508     6.918
   933   1 H      0.925     0.050     2.315     2.380
   934   1 H      0.925     0.069     2.096     2.264
   935   1 H      0.924     0.062     2.174     2.306
   936   8 O      1.664    -0.484    22.538     6.409
   937   1 H      0.807     0.342     0.607     1.224
   938   6 C      2.749     0.277    22.315     7.735
   939   8 O      0.866    -0.477    23.269     6.468
   940   7 N      2.685    -0.195    25.241     7.462
   941   1 H      0.860     0.218     1.017     1.580
   942   6 C      3.784     0.012    20.386     6.431
   943   1 H      0.925     0.104     1.748     2.067
   944   6 C      3.804    -0.088    22.175     6.704
   945   1 H      0.925     0.079     1.994     2.208
   946   1 H      0.925     0.064     2.151     2.293
   947   6 C      3.793    -0.087    22.163     6.704
   948   1 H      0.925     0.072     2.068     2.249
   949   1 H      0.924     0.073     2.052     2.240
   950   6 C      3.803    -0.100    22.414     6.740
   951   1 H      0.924     0.081     1.964     2.192
   952   1 H      0.925     0.084     1.942     2.179
   953   6 C      3.726    -0.062    21.804     6.667
   954   1 H      0.924     0.127     1.562     1.954
   955   1 H      0.924     0.130     1.538     1.940
   956   7 N      3.486    -0.133    23.877     7.257
   957   1 H      0.860     0.291     0.741     1.348
   958   1 H      0.860     0.290     0.745     1.352
   959   1 H      0.860     0.307     0.693     1.304
   960   6 C      2.761     0.267    22.492     7.767
   961   8 O      0.858    -0.522    24.280     6.606
   962   7 N      2.686    -0.185    25.006     7.427
   963   1 H      0.860     0.221     1.005     1.570
   964   6 C      3.803     0.040    19.896     6.350
   965   1 H      0.925     0.059     2.211     2.325
   966   6 C      3.808    -0.097    22.343     6.729
   967   1 H      0.925     0.046     2.372     2.408
   968   1 H      0.925     0.051     2.307     2.375
   969   6 C      2.692     0.359    20.905     7.483
   970   8 O      0.857    -0.626    26.758     6.935
   971   8 O      0.856    -0.648    27.337     7.010
   972   6 C      2.748     0.282    22.233     7.721
   973   8 O      0.859    -0.475    23.244     6.464
   974   7 N      2.685    -0.195    25.234     7.461
   975   1 H      0.860     0.209     1.063     1.615
   976   6 C      3.783     0.030    20.085     6.384
   977   1 H      0.924     0.076     2.021     2.223
   978   6 C      3.785    -0.063    21.721     6.638
   979   1 H      0.924     0.052     2.293     2.368
   980   1 H      0.925     0.056     2.245     2.343
   981   6 C      3.781    -0.102    22.460     6.751
   982   1 H      0.924     0.032     2.562     2.503
   983   1 H      0.925     0.023     2.687     2.563
   984   6 C      2.679     0.367    20.780     7.460
   985   8 O      0.856    -0.601    26.137     6.854
   986   8 O      0.856    -0.579    25.613     6.785
   987   6 C      2.750     0.252    22.758     7.812
   988   8 O      0.857    -0.498    23.735     6.532
   989   7 N      2.687    -0.175    24.795     7.395
   990   1 H      0.860     0.223     0.996     1.563
   991   6 C      3.790     0.025    20.159     6.394
   992   1 H      0.924     0.095     1.828     2.114
   993   6 C      3.765    -0.135    23.138     6.856
   994   1 H      0.924     0.090     1.878     2.143
   995   1 H      0.924     0.078     1.998     2.210
   996   1 H      0.925     0.066     2.126     2.280
   997   6 C      2.758     0.267    22.491     7.766
   998   8 O      0.858    -0.497    23.725     6.531
   999   7 N      2.685    -0.180    24.900     7.411
  1000   1 H      0.860     0.219     1.012     1.576
  1001   6 C      3.787     0.012    20.386     6.431
  1002   1 H      0.924     0.093     1.847     2.125
  1003   6 C      3.802    -0.060    21.662     6.626
  1004   1 H      0.925     0.065     2.142     2.289
  1005   1 H      0.925     0.037     2.484     2.465
  1006   6 C      3.797    -0.093    22.268     6.719
  1007   1 H      0.925     0.011     2.872     2.650
  1008   1 H      0.925     0.028     2.620     2.531
  1009   6 C      2.690     0.380    20.567     7.422
  1010   8 O      0.858    -0.650    27.384     7.016
  1011   8 O      0.858    -0.654    27.480     7.028
  1012   6 C      2.749     0.275    22.344     7.740
  1013   8 O      0.859    -0.478    23.292     6.471
  1014   7 N      2.686    -0.181    24.922     7.414
  1015   1 H      0.860     0.206     1.078     1.626
  1016   6 C      3.806     0.015    20.325     6.418
  1017   1 H      0.925     0.080     1.976     2.198
  1018   6 C      3.816    -0.069    21.808     6.646
  1019   1 H      0.924     0.064     2.158     2.297
  1020   1 H      0.925     0.060     2.197     2.318
  1021   6 C      3.821    -0.082    22.045     6.682
  1022   1 H      0.925     0.052     2.297     2.370
  1023   1 H      0.925     0.068     2.103     2.268
  1024   6 C      3.807    -0.083    22.071     6.688
  1025   1 H      0.924     0.083     1.945     2.181
  1026   1 H      0.925     0.060     2.198     2.318
  1027   6 C      3.731    -0.049    21.543     6.625
  1028   1 H      0.925     0.132     1.517     1.926
  1029   1 H      0.925     0.117     1.637     2.001
  1030   7 N      3.488    -0.122    23.654     7.223
  1031   1 H      0.860     0.278     0.783     1.386
  1032   1 H      0.860     0.267     0.821     1.420
  1033   1 H      0.860     0.290     0.745     1.352
  1034   6 C      2.750     0.252    22.763     7.812
  1035   8 O      0.857    -0.514    24.099     6.582
  1036   7 N      2.686    -0.185    25.005     7.427
  1037   1 H      0.860     0.233     0.951     1.527
  1038   6 C      3.793     0.020    20.247     6.408
  1039   1 H      0.924     0.078     2.003     2.213
  1040   6 C      3.828    -0.082    22.042     6.680
  1041   1 H      0.925     0.057     2.236     2.338
  1042   1 H      0.925     0.075     2.027     2.226
  1043   6 C      3.849    -0.018    20.854     6.495
  1044   1 H      0.925     0.029     2.597     2.520
  1045   6 C      3.781    -0.130    23.023     6.835
  1046   1 H      0.925     0.028     2.614     2.529
  1047   1 H      0.924     0.046     2.364     2.405
  1048   1 H      0.925     0.066     2.132     2.283
  1049   6 C      3.787    -0.138    23.161     6.855
  1050   1 H      0.925     0.072     2.059     2.244
  1051   1 H      0.925     0.062     2.180     2.309
  1052   1 H      0.924     0.047     2.360     2.402
  1053   6 C      2.764     0.283    22.204     7.717
  1054   8 O      0.861    -0.498    23.735     6.532
  1055   7 N      2.696    -0.210    25.580     7.512
  1056   1 H      0.860     0.225     0.987     1.556
  1057   6 C      3.794     0.036    19.970     6.364
  1058   1 H      0.925     0.065     2.136     2.286
  1059   6 C      3.816    -0.083    22.063     6.685
  1060   1 H      0.924     0.056     2.246     2.344
  1061   1 H      0.925     0.073     2.058     2.243
  1062   6 C      2.966     0.004    27.942     8.671
  1063   6 C      2.895    -0.041    29.023     8.833
  1064   1 H      0.926     0.048     2.344     2.394
  1065   6 C      2.906    -0.038    28.946     8.822
  1066   1 H      0.926     0.040     2.447     2.446
  1067   6 C      2.911    -0.033    28.815     8.802
  1068   1 H      0.926     0.038     2.475     2.460
  1069   6 C      2.912    -0.026    28.659     8.778
  1070   1 H      0.926     0.052     2.298     2.371
  1071   6 C      2.913    -0.041    29.020     8.834
  1072   1 H      0.926     0.040     2.444     2.445
  1073   6 C      2.747     0.268    22.472     7.762
  1074   8 O      0.857    -0.503    23.855     6.548
  1075   7 N      2.683    -0.183    24.966     7.421
  1076   1 H      0.860     0.216     1.028     1.588
  1077   6 C      3.790     0.033    20.023     6.373
  1078   1 H      0.924     0.100     1.783     2.088
  1079   6 C      3.810    -0.110    22.588     6.765
  1080   1 H      0.925     0.076     2.026     2.226
  1081   1 H      0.924     0.108     1.710     2.045
  1082   6 C      2.751     0.293    22.027     7.685
  1083   8 O      0.868    -0.476    23.262     6.467
  1084   7 N      2.649    -0.318    28.195     7.886
  1085   1 H      0.860     0.247     0.896     1.483
  1086   1 H      0.860     0.229     0.972     1.544
  1087   6 C      2.747     0.274    22.362     7.743
  1088   8 O      0.859    -0.508    23.952     6.562
  1089   7 N      2.686    -0.164    24.543     7.358
  1090   1 H      0.860     0.206     1.075     1.624
  1091   6 C      3.796     0.030    20.082     6.381
  1092   1 H      0.924     0.079     1.990     2.206
  1093   6 C      3.810    -0.054    21.541     6.606
  1094   1 H      0.925     0.066     2.128     2.281
  1095   1 H      0.924     0.059     2.208     2.324
  1096   6 C      3.804    -0.099    22.391     6.737
  1097   1 H      0.924     0.086     1.914     2.163
  1098   1 H      0.925     0.059     2.215     2.328
  1099   6 C      2.737     0.285    22.168     7.709
  1100   8 O      0.859    -0.497    23.718     6.530
  1101   7 N      2.635    -0.289    27.448     7.781
  1102   1 H      0.860     0.241     0.919     1.502
  1103   1 H      0.860     0.229     0.969     1.542
  1104   6 C      2.746     0.267    22.485     7.764
  1105   8 O      0.859    -0.502    23.824     6.544
  1106   7 N      2.678    -0.199    25.326     7.474
  1107   1 H      0.860     0.194     1.137     1.671
  1108   6 C      3.782     0.033    20.044     6.378
  1109   1 H      0.924     0.082     1.955     2.186
  1110   6 C      3.802    -0.081    22.047     6.685
  1111   1 H      0.924     0.056     2.243     2.342
  1112   1 H      0.925     0.048     2.345     2.395
  1113   6 C      2.685     0.348    21.089     7.515
  1114   8 O      0.855    -0.642    27.169     6.988
  1115   8 O      0.856    -0.605    26.236     6.867
  1116   6 C      2.749     0.278    22.298     7.732
  1117   8 O      0.861    -0.490    23.572     6.509
  1118   7 N      2.687    -0.183    24.957     7.420
  1119   1 H      0.860     0.202     1.098     1.642
  1120   6 C      3.799     0.024    20.167     6.394
  1121   1 H      0.925     0.090     1.874     2.141
  1122   6 C      3.850    -0.012    20.759     6.480
  1123   1 H      0.924     0.040     2.442     2.444
  1124   6 C      3.755    -0.116    22.786     6.806
  1125   1 H      0.925     0.072     2.061     2.245
  1126   1 H      0.925     0.044     2.399     2.422
  1127   1 H      0.925     0.054     2.273     2.358
  1128   6 C      3.759    -0.119    22.824     6.811
  1129   1 H      0.925     0.053     2.284     2.364
  1130   1 H      0.925     0.055     2.258     2.350
  1131   1 H      0.925     0.032     2.556     2.500
  1132   6 C      2.744     0.275    22.357     7.742
  1133   8 O      0.861    -0.445    22.593     6.373
  1134   7 N      2.682    -0.211    25.592     7.513
  1135   1 H      0.860     0.170     1.270     1.765
  1136   6 C      3.780     0.041    19.913     6.357
  1137   1 H      0.925     0.069     2.095     2.264
  1138   6 C      3.802    -0.087    22.157     6.702
  1139   1 H      0.925     0.022     2.706     2.572
  1140   1 H      0.925     0.038     2.481     2.463
  1141   6 C      2.688     0.379    20.580     7.424
  1142   8 O      0.857    -0.671    27.937     7.086
  1143   8 O      0.858    -0.615    26.485     6.900
  1144   6 C      2.769     0.287    22.137     7.706
  1145   8 O      0.861    -0.465    23.012     6.432
  1146   7 N      2.689    -0.167    24.614     7.368
  1147   1 H      0.860     0.185     1.186     1.706
  1148   6 C      3.806     0.018    20.269     6.409
  1149   1 H      0.925     0.086     1.917     2.165
  1150   6 C      3.756    -0.140    23.255     6.876
  1151   1 H      0.925     0.054     2.273     2.358
  1152   1 H      0.925     0.067     2.118     2.276
  1153   1 H      0.925     0.076     2.017     2.221
  1154   6 C      2.757     0.269    22.458     7.760
  1155   8 O      0.865    -0.470    23.119     6.447
  1156   7 N      2.697    -0.158    24.425     7.340
  1157   1 H      0.860     0.203     1.089     1.635
[...]
  2291  N   3.467        C 2289 1.313    C 2293 0.962    H 2292 0.918    O 2290 0.195
  2292  H   0.955        N 2291 0.918
  2293  C   3.956        C 2295 0.985    N 2291 0.962    H 2294 0.947    C 2313 0.933
  2294  H   0.991        C 2293 0.947
  2295  C   3.985        C 2298 1.009    C 2293 0.985    H 2296 0.967    H 2297 0.964
  2296  H   0.994        C 2295 0.967
  2297  H   0.994        C 2295 0.964
  2298  C   3.982        C 2295 1.009    C 2301 1.002    H 2299 0.968    H 2300 0.967
  2299  H   0.994        C 2298 0.968
  2300  H   0.994        C 2298 0.967
  2301  C   3.946        C 2298 1.002    N 2304 0.978    H 2303 0.958    H 2302 0.956
  2302  H   0.993        C 2301 0.956
  2303  H   0.993        C 2301 0.958
  2304  N   3.523        C 2306 1.402    C 2301 0.978    H 2305 0.854    N 2307 0.117
  2305  H   0.936        N 2304 0.854
  2306  C   3.978        N 2304 1.402    N 2307 1.299    N 2310 1.237
  2307  N   3.390        C 2306 1.299    H 2308 0.929    H 2309 0.915    N 2304 0.117
  2308  H   0.949        N 2307 0.929
  2309  H   0.939        N 2307 0.915
  2310  N   3.311        C 2306 1.237    H 2311 0.937    H 2312 0.903
  2311  H   0.958        N 2310 0.937
  2312  H   0.945        N 2310 0.903
  2313  C   3.957        O 2314 1.622    N 2315 1.326    C 2293 0.933
  2314  O   1.956        C 2313 1.622    N 2315 0.202
  2315  N   3.486        C 2313 1.326    C 2317 0.972    H 2316 0.906    O 2314 0.202
  2316  H   0.952        N 2315 0.906
  2317  C   3.961        C 2319 0.995    N 2315 0.972    C 2323 0.950    H 2318 0.938
  2318  H   0.992        C 2317 0.938
  2319  C   3.980        C 2317 0.995    H 2321 0.978    H 2320 0.971    H 2322 0.968
  2320  H   0.995        C 2319 0.971
  2321  H   0.994        C 2319 0.978
  2322  H   0.993        C 2319 0.968
  2323  C   3.958        O 2324 1.585    N 2325 1.342    C 2317 0.950
  2324  O   1.958        C 2323 1.585    N 2325 0.206
  2325  N   3.478        C 2323 1.342    C 2327 0.959    H 2326 0.874    O 2324 0.206
  2326  H   0.940        N 2325 0.874
  2327  C   3.959        C 2329 0.973    C 2345 0.966    N 2325 0.959    H 2328 0.944
  2328  H   0.990        C 2327 0.944
  2329  C   3.979        C 2332 1.000    H 2330 0.974    C 2327 0.973    H 2331 0.963
  2330  H   0.996        C 2329 0.974
  2331  H   0.992        C 2329 0.963
  2332  C   3.989        C 2335 1.004    C 2329 1.000    H 2334 0.978    H 2333 0.973
  2333  H   0.995        C 2332 0.973
  2334  H   0.997        C 2332 0.978
  2335  C   3.986        C 2338 1.017    C 2332 1.004    H 2336 0.972    H 2337 0.965
  2336  H   0.994        C 2335 0.972
  2337  H   0.993        C 2335 0.965
  2338  C   3.899        C 2335 1.017    H 2340 0.967    H 2339 0.962    N 2341 0.935
  2339  H   0.983        C 2338 0.962
  2340  H   0.987        C 2338 0.967
  2341  N   3.652        C 2338 0.935    H 2342 0.900    H 2344 0.897    H 2343 0.895
  2342  H   0.911        N 2341 0.900
  2343  H   0.910        N 2341 0.895
  2344  H   0.912        N 2341 0.897
  2345  C   3.943        O 2346 1.606    N 2347 1.282    C 2327 0.966
  2346  O   1.973        C 2345 1.606    N 2347 0.190
  2347  N   3.455        C 2345 1.282    C 2349 0.971    H 2348 0.915    O 2346 0.190
  2348  H   0.951        N 2347 0.915
  2349  C   3.967        C 2351 0.986    N 2347 0.971    C 2369 0.952    H 2350 0.947
  2350  H   0.992        C 2349 0.947
  2351  C   3.982        C 2354 1.004    C 2349 0.986    H 2352 0.965    H 2353 0.963
  2352  H   0.993        C 2351 0.965
  2353  H   0.992        C 2351 0.963
  2354  C   3.988        C 2351 1.004    C 2357 1.002    H 2356 0.972    H 2355 0.969
  2355  H   0.995        C 2354 0.969
  2356  H   0.996        C 2354 0.972
  2357  C   3.946        C 2354 1.002    N 2360 0.966    H 2359 0.966    H 2358 0.960
  2358  H   0.992        C 2357 0.960
  2359  H   0.994        C 2357 0.966
  2360  N   3.464        C 2362 1.323    C 2357 0.966    H 2361 0.909    N 2366 0.100
  2361  H   0.949        N 2360 0.909
  2362  C   3.978        N 2360 1.323    N 2363 1.319    N 2366 1.312
  2363  N   3.386        C 2362 1.319    H 2365 0.910    H 2364 0.909    N 2366 0.101
  2364  H   0.935        N 2363 0.909
  2365  H   0.940        N 2363 0.910
  2366  N   3.376        C 2362 1.312    H 2367 0.916    H 2368 0.864    N 2363 0.101    N 2360 0.100
  2367  H   0.945        N 2366 0.916
  2368  H   0.939        N 2366 0.864
  2369  C   3.948        O 2370 1.572    N 2371 1.335    C 2349 0.952
  2370  O   1.952        C 2369 1.572    N 2371 0.199
  2371  N   3.487        C 2369 1.335    C 2373 0.953    H 2372 0.909    O 2370 0.199
  2372  H   0.949        N 2371 0.909
  2373  C   3.950        C 2375 0.965    H 2374 0.953    N 2371 0.953    C 2385 0.941
  2374  H   0.993        C 2373 0.953
  2375  C   3.983        C 2381 1.013    C 2377 1.001    C 2373 0.965    H 2376 0.958
  2376  H   0.994        C 2375 0.958
  2377  C   3.989        C 2375 1.001    H 2380 0.979    H 2379 0.978    H 2378 0.974
  2378  H   0.996        C 2377 0.974
  2379  H   0.998        C 2377 0.978
  2380  H   0.998        C 2377 0.979
  2381  C   3.992        C 2375 1.013    H 2383 0.984    H 2384 0.983    H 2382 0.981
  2382  H   0.997        C 2381 0.981
  2383  H   0.997        C 2381 0.984
  2384  H   0.998        C 2381 0.983
  2385  C   3.951        O 2386 1.623    N 2387 1.305    C 2373 0.941
  2386  O   1.983        C 2385 1.623    N 2387 0.206
  2387  N   3.459        C 2385 1.305    C 2389 0.966    H 2388 0.881    O 2386 0.206
  2388  H   0.945        N 2387 0.881
  2389  C   3.954        N 2387 0.966    C 2391 0.958    H 2390 0.953    C 2404 0.935
  2390  H   0.992        C 2389 0.953
  2391  C   3.984        C 2393 1.008    C 2397 0.996    H 2392 0.964    C 2389 0.958
  2392  H   0.997        C 2391 0.964
  2393  C   3.987        C 2391 1.008    H 2395 0.984    H 2394 0.981    H 2396 0.979
  2394  H   0.997        C 2393 0.981
  2395  H   0.999        C 2393 0.984
  2396  H   0.995        C 2393 0.979
  2397  C   3.991        C 2400 1.009    C 2391 0.996    H 2398 0.977    H 2399 0.975
  2398  H   0.998        C 2397 0.977
  2399  H   0.997        C 2397 0.975
  2400  C   3.992        C 2397 1.009    H 2402 0.987    H 2403 0.986    H 2401 0.986
  2401  H   0.998        C 2400 0.986
  2402  H   0.998        C 2400 0.987
  2403  H   0.997        C 2400 0.986
  2404  C   3.948        O 2405 1.603    N 2406 1.341    C 2389 0.935
  2405  O   1.937        C 2404 1.603    N 2406 0.195
  2406  N   3.462        C 2404 1.341    C 2408 0.945    H 2407 0.881    O 2405 0.195
  2407  H   0.949        N 2406 0.881
  2408  C   3.961        C 2410 0.971    H 2409 0.954    N 2406 0.945    C 2418 0.942
  2409  H   0.990        C 2408 0.954
  2410  C   3.964        C 2412 1.004    O 2416 0.984    C 2408 0.971    H 2411 0.960
  2411  H   0.998        C 2410 0.960
  2412  C   3.989        C 2410 1.004    H 2415 0.983    H 2413 0.981    H 2414 0.981
  2413  H   0.996        C 2412 0.981
  2414  H   0.995        C 2412 0.981
  2415  H   0.999        C 2412 0.983
  2416  O   1.930        C 2410 0.984    H 2417 0.862
  2417  H   0.891        O 2416 0.862
  2418  C   3.948        O 2419 1.598    N 2420 1.330    C 2408 0.942
  2419  O   1.948        C 2418 1.598    N 2420 0.196
  2420  N   3.476        C 2418 1.330    C 2422 0.958    H 2421 0.889    O 2419 0.196
  2421  H   0.950        N 2420 0.889
  2422  C   3.960        C 2424 0.979    N 2420 0.958    C 2432 0.948    H 2423 0.946
  2423  H   0.991        C 2422 0.946
  2424  C   3.953        C 2426 1.006    C 2422 0.979    O 2430 0.960    H 2425 0.958
  2425  H   0.998        C 2424 0.958
  2426  C   3.985        C 2424 1.006    H 2427 0.981    H 2428 0.981    H 2429 0.978
  2427  H   0.995        C 2426 0.981
  2428  H   0.996        C 2426 0.981
  2429  H   0.995        C 2426 0.978
  2430  O   1.913        C 2424 0.960    H 2431 0.864
  2431  H   0.903        O 2430 0.864
  2432  C   3.956        O 2433 1.657    N 2434 1.273    C 2422 0.948
  2433  O   1.976        C 2432 1.657    N 2434 0.200
  2434  N   3.437        C 2432 1.273    C 2436 0.977    H 2435 0.887    O 2433 0.200
  2435  H   0.945        N 2434 0.887
  2436  C   3.960        N 2434 0.977    C 2438 0.971    C 2452 0.941    H 2437 0.936
  2437  H   0.991        C 2436 0.936
  2438  C   3.982        C 2441 0.996    C 2436 0.971    H 2440 0.965    H 2439 0.953
  2439  H   0.994        C 2438 0.953
  2440  H   0.995        C 2438 0.965
  2441  C   3.983        C 2442 1.416    C 2450 1.415    C 2438 0.996    C 2446 0.106
  2442  C   3.987        C 2444 1.441    C 2441 1.416    H 2443 0.964    C 2448 0.108
  2443  H   0.997        C 2442 0.964
  2444  C   3.988        C 2442 1.441    C 2446 1.426    H 2445 0.967    C 2450 0.120
  2445  H   0.997        C 2444 0.967
  2446  C   3.990        C 2448 1.458    C 2444 1.426    H 2447 0.964    C 2441 0.106
  2447  H   0.997        C 2446 0.964
  2448  C   3.990        C 2446 1.458    C 2450 1.430    H 2449 0.965    C 2442 0.108
  2449  H   0.997        C 2448 0.965
  2450  C   3.988        C 2448 1.430    C 2441 1.415    H 2451 0.969    C 2444 0.120
  2451  H   0.999        C 2450 0.969
  2452  C   3.950        O 2453 1.640    N 2454 1.284    C 2436 0.941
  2453  O   1.972        C 2452 1.640    N 2454 0.190
  2454  N   3.455        C 2452 1.284    C 2456 0.985    H 2455 0.905    O 2453 0.190
  2455  H   0.953        N 2454 0.905
  2456  C   3.962        N 2454 0.985    C 2458 0.965    H 2457 0.946    C 2476 0.944
  2457  H   0.991        C 2456 0.946
  2458  C   3.981        C 2461 0.992    H 2459 0.979    H 2460 0.971    C 2456 0.965
  2459  H   0.996        C 2458 0.979
  2460  H   0.993        C 2458 0.971
  2461  C   3.991        C 2464 1.017    C 2458 0.992    H 2462 0.973    H 2463 0.972
  2462  H   0.996        C 2461 0.973
  2463  H   0.995        C 2461 0.972
  2464  C   3.949        C 2461 1.017    H 2465 0.964    N 2467 0.962    H 2466 0.961
  2465  H   0.993        C 2464 0.964
  2466  H   0.993        C 2464 0.961
  2467  N   3.398        C 2469 1.243    C 2464 0.962    H 2468 0.921
  2468  H   0.959        N 2467 0.921
  2469  C   3.976        N 2473 1.366    N 2470 1.341    N 2467 1.243
  2470  N   3.406        C 2469 1.341    H 2472 0.914    H 2471 0.911    N 2473 0.113
  2471  H   0.936        N 2470 0.911
  2472  H   0.937        N 2470 0.914
  2473  N   3.420        C 2469 1.366    H 2474 0.910    H 2475 0.868    N 2470 0.113
  2474  H   0.937        N 2473 0.910
  2475  H   0.934        N 2473 0.868
  2476  C   3.947        O 2477 1.606    N 2478 1.323    C 2456 0.944
  2477  O   1.920        C 2476 1.606    N 2478 0.194
  2478  N   3.481        C 2476 1.323    C 2480 0.979    H 2479 0.890    O 2477 0.194
  2479  H   0.948        N 2478 0.890
  2480  C   3.965        N 2478 0.979    C 2482 0.960    H 2481 0.951    C 2490 0.933
  2481  H   0.992        C 2480 0.951
  2482  C   3.955        O 2488 0.998    C 2484 0.983    H 2483 0.965    C 2480 0.960
  2483  H   0.999        C 2482 0.965
  2484  C   3.985        H 2486 0.987    H 2487 0.984    C 2482 0.983    H 2485 0.976
  2485  H   0.994        C 2484 0.976
  2486  H   0.996        C 2484 0.987
  2487  H   0.997        C 2484 0.984
  2488  O   1.947        C 2482 0.998    H 2489 0.849
  2489  H   0.899        O 2488 0.849
  2490  C   3.952        O 2491 1.566    N 2492 1.372    C 2480 0.933
  2491  O   1.873        C 2490 1.566    N 2492 0.192
  2492  N   3.511        C 2490 1.372    C 2494 0.976    H 2493 0.916    O 2491 0.192
  2493  H   0.954        N 2492 0.916
  2494  C   3.948        N 2492 0.976    H 2495 0.955    H 2496 0.952    C 2497 0.938
  2495  H   0.986        C 2494 0.955
  2496  H   0.986        C 2494 0.952
  2497  C   3.944        O 2498 1.676    N 2499 1.264    C 2494 0.938
  2498  O   1.998        C 2497 1.676    N 2499 0.198
  2499  N   3.458        C 2497 1.264    C 2501 1.002    H 2500 0.920    O 2498 0.198
  2500  H   0.956        N 2499 0.920
  2501  C   3.974        N 2499 1.002    H 2502 0.952    C 2511 0.936    C 2503 0.926
  2502  H   0.993        C 2501 0.952
  2503  C   3.955        C 2505 1.018    O 2509 0.976    H 2504 0.966    C 2501 0.926
  2504  H   0.999        C 2503 0.966
  2505  C   3.987        C 2503 1.018    H 2506 0.982    H 2507 0.976    H 2508 0.976
  2506  H   0.996        C 2505 0.982
  2507  H   0.996        C 2505 0.976
  2508  H   0.995        C 2505 0.976
  2509  O   1.963        C 2503 0.976    H 2510 0.833
  2510  H   0.897        O 2509 0.833
  2511  C   3.948        O 2512 1.686    N 2513 1.257    C 2501 0.936
  2512  O   1.998        C 2511 1.686    N 2513 0.190
  2513  N   3.417        C 2511 1.257    C 2515 0.956    H 2514 0.924    O 2512 0.190
  2514  H   0.956        N 2513 0.924
  2515  C   3.948        C 2517 0.972    N 2513 0.956    H 2516 0.946    C 2535 0.928
  2516  H   0.988        C 2515 0.946
  2517  C   3.978        C 2520 1.004    C 2515 0.972    H 2519 0.969    H 2518 0.955
  2518  H   0.992        C 2517 0.955
  2519  H   0.996        C 2517 0.969
  2520  C   3.965        C 2521 1.617    C 2534 1.156    C 2517 1.004
  2521  C   3.961        C 2520 1.617    N 2523 1.204    H 2522 0.966
  2522  H   0.997        C 2521 0.966
  2523  N   3.536        C 2521 1.204    C 2525 1.164    H 2524 0.937
  2524  H   0.964        N 2523 0.937
  2525  C   3.954        C 2526 1.321    C 2534 1.273    N 2523 1.164
  2526  C   3.981        C 2528 1.469    C 2525 1.321    H 2527 0.968    C 2532 0.131
  2527  H   0.997        C 2526 0.968
  2528  C   3.985        C 2526 1.469    C 2530 1.393    H 2529 0.963
  2529  H   0.994        C 2528 0.963
  2530  C   3.986        C 2532 1.449    C 2528 1.393    H 2531 0.969
  2531  H   0.997        C 2530 0.969
  2532  C   3.986        C 2530 1.449    C 2534 1.354    H 2533 0.970    C 2526 0.131
  2533  H   0.998        C 2532 0.970
  2534  C   3.981        C 2532 1.354    C 2525 1.273    C 2520 1.156
  2535  C   3.932        O 2536 1.621    N 2537 1.293    C 2515 0.928
  2536  O   2.002        C 2535 1.621    N 2537 0.189
  2537  N   3.458        C 2535 1.293    C 2539 0.974    H 2538 0.918    O 2536 0.189
  2538  H   0.958        N 2537 0.918
  2539  C   3.968        N 2537 0.974    C 2541 0.973    H 2540 0.951    C 2547 0.941
  2540  H   0.996        C 2539 0.951
  2541  C   3.979        H 2543 0.974    C 2539 0.973    H 2542 0.958    C 2544 0.933
  2542  H   0.997        C 2541 0.958
  2543  H   0.998        C 2541 0.974
  2544  C   3.941        O 2546 1.501    O 2545 1.479    C 2541 0.933
  2545  O   1.837        C 2544 1.479    O 2546 0.216
  2546  O   1.794        C 2544 1.501    O 2545 0.216
  2547  C   3.944        O 2548 1.618    N 2549 1.310    C 2539 0.941
  2548  O   1.921        C 2547 1.618    N 2549 0.189
  2549  N   3.463        C 2547 1.310    C 2551 0.967    H 2550 0.917    O 2548 0.189
  2550  H   0.957        N 2549 0.917
  2551  C   3.950        C 2553 0.983    N 2549 0.967    H 2552 0.951    C 2557 0.938
  2552  H   0.993        C 2551 0.951
  2553  C   3.974        C 2551 0.983    H 2555 0.982    H 2556 0.977    H 2554 0.977
  2554  H   0.995        C 2553 0.977
  2555  H   0.994        C 2553 0.982
  2556  H   0.992        C 2553 0.977
  2557  C   3.946        O 2558 1.663    N 2559 1.269    C 2551 0.938
  2558  O   1.977        C 2557 1.663    N 2559 0.197
  2559  N   3.428        C 2557 1.269    C 2561 0.959    H 2560 0.906    O 2558 0.197
  2560  H   0.960        N 2559 0.906
  2561  C   3.950        N 2559 0.959    C 2563 0.953    C 2578 0.952    H 2562 0.949
  2562  H   0.994        C 2561 0.949
  2563  C   3.983        C 2566 1.020    H 2565 0.960    H 2564 0.959    C 2561 0.953
  2564  H   0.995        C 2563 0.959
  2565  H   0.992        C 2563 0.960
  2566  C   3.983        C 2576 1.445    C 2567 1.343    C 2563 1.020
  2567  C   3.986        C 2569 1.515    C 2566 1.343    H 2568 0.968    C 2574 0.104
  2568  H   0.997        C 2567 0.968
  2569  C   3.985        C 2567 1.515    C 2571 1.319    H 2570 0.963    C 2576 0.101
  2570  H   0.995        C 2569 0.963
  2571  C   3.945        C 2574 1.412    C 2569 1.319    O 2572 1.076
  2572  O   2.098        C 2571 1.076    H 2573 0.838
  2573  H   0.890        O 2572 0.838
  2574  C   3.987        C 2571 1.412    C 2576 1.405    H 2575 0.964    C 2567 0.104
  2575  H   0.999        C 2574 0.964
  2576  C   3.989        C 2566 1.445    C 2574 1.405    H 2577 0.964    C 2569 0.101
  2577  H   0.999        C 2576 0.964
  2578  C   3.944        O 2579 1.609    N 2580 1.282    C 2561 0.952
  2579  O   1.928        C 2578 1.609    N 2580 0.200
  2580  N   3.464        C 2578 1.282    C 2582 0.997    H 2581 0.884    O 2579 0.200
  2581  H   0.948        N 2580 0.884
  2582  C   3.955        N 2580 0.997    C 2584 0.979    H 2583 0.953    C 2600 0.883
  2583  H   0.998        C 2582 0.953
  2584  C   3.988        C 2587 1.025    C 2582 0.979    H 2585 0.973    H 2586 0.961
  2585  H   0.999        C 2584 0.973
  2586  H   0.994        C 2584 0.961
  2587  C   3.991        C 2584 1.025    C 2590 0.992    H 2589 0.972    H 2588 0.967
  2588  H   0.998        C 2587 0.967
  2589  H   0.998        C 2587 0.972
  2590  C   3.984        C 2593 1.033    C 2587 0.992    H 2591 0.968    H 2592 0.957
  2591  H   0.992        C 2590 0.968
  2592  H   0.989        C 2590 0.957
  2593  C   3.890        C 2590 1.033    H 2595 0.961    H 2594 0.959    N 2596 0.914
  2594  H   0.976        C 2593 0.959
  2595  H   0.984        C 2593 0.961
  2596  N   3.650        C 2593 0.914    H 2598 0.910    H 2597 0.898    H 2599 0.896
  2597  H   0.913        N 2596 0.898
  2598  H   0.925        N 2596 0.910
  2599  H   0.908        N 2596 0.896
  2600  C   3.918        O 2602 1.505    O 2601 1.477    C 2582 0.883
  2601  O   1.771        C 2600 1.477    O 2602 0.214
  2602  O   1.794        C 2600 1.505    O 2601 0.214
  2603  O   2.133        C 2605 1.130    H 2604 0.751
  2604  H   0.871        O 2603 0.751
  2605  C   3.954        C 2606 1.389    C 2614 1.322    O 2603 1.130
  2606  C   3.976        C 2605 1.389    C 2608 1.355    H 2607 0.962    C 2612 0.107
  2607  H   0.997        C 2606 0.962
  2608  C   3.899        C 2610 1.430    C 2606 1.355    Cl2609 0.967    C 2614 0.107
  2609  Cl  1.106        C 2608 0.967
  2610  C   3.980        C 2608 1.430    C 2612 1.401    H 2611 0.959
  2611  H   0.997        C 2610 0.959
  2612  C   3.985        C 2614 1.469    C 2610 1.401    H 2613 0.967    C 2606 0.107
  2613  H   0.996        C 2612 0.967
  2614  C   3.985        C 2612 1.469    C 2605 1.322    H 2615 0.962    C 2608 0.107
  2615  H   0.996        C 2614 0.962

molecular dipole:
                 x           y           z       tot (Debye)
 q only:      615.577     675.383     628.422
   full:      618.030     677.107     637.957    2838.830
molecular quadrupole (traceless):
                xx          xy          yy          xz          yz          zz
 q only:    -6066.177   72617.138   10211.029   69314.336   75239.466   -4144.852
  q+dip:    -6628.131   72666.247    9348.212   70518.379   76413.393   -2720.081
   full:    -6619.732   72660.960    9328.453   70520.565   76412.340   -2708.721


           -------------------------------------------------
          | TOTAL ENERGY            -4109.199496480716 Eh   |
          | GRADIENT NORM               1.360087642276 Eh/α |
          | HOMO-LUMO GAP               1.509564418542 eV   |
           -------------------------------------------------

------------------------------------------------------------------------
 * finished run on 2020/07/25 at 20:14:57.791     
------------------------------------------------------------------------
 total:
 * wall-time:     0 d,  0 h,  7 min, 47.142 sec
 *  cpu-time:     0 d,  5 h, 51 min, 56.698 sec
 * ratio c/w:    45.204 speedup
 SCF:
 * wall-time:     0 d,  0 h,  7 min, 15.258 sec
 *  cpu-time:     0 d,  5 h, 39 min, 25.508 sec
 * ratio c/w:    46.790 speedup

