      -----------------------------------------------------------      
     |                   =====================                   |     
     |                           x T B                           |     
     |                   =====================                   |     
     |                         S. Grimme                         |     
     |          Mulliken Center for Theoretical Chemistry        |     
     |                    University of Bonn                     |     
      -----------------------------------------------------------      

   * xtb version 6.2.3 (d7bf61a) compiled by 'conda@06d140edd85e' on 2020-05-12

   xtb is free software: you can redistribute it and/or modify it under
   the terms of the GNU Lesser General Public License as published by
   the Free Software Foundation, either version 3 of the License, or
   (at your option) any later version.
   
   xtb is distributed in the hope that it will be useful,
   but WITHOUT ANY WARRANTY; without even the implied warranty of
   MERCHANTABILITY or FITNESS FOR A PARTICULAR PURPOSE.  See the
   GNU Lesser General Public License for more details.
   
   Cite this work as:
   * S. Grimme, C. Bannwarth, P. Shushkov, J. Chem. Theory Comput., 2017,
     13, 1989-2009. DOI: 10.1021/acs.jctc.7b00118
   * C. Bannwarth, S. Ehlert and S. Grimme., J. Chem. Theory Comput., 2019,
     15, 1652-1671. DOI: 10.1021/acs.jctc.8b01176
   * P. Pracht, E. Caldeweyher, S. Ehlert, S. Grimme, ChemRxiv, 2019, preprint.
     DOI: 10.26434/chemrxiv.8326202.v1
   
   for DFT-D4:
   * E. Caldeweyher, C. Bannwarth and S. Grimme, J. Chem. Phys., 2017,
     147, 034112. DOI: 10.1063/1.4993215
   * E. Caldeweyher, S. Ehlert, A. Hansen, H. Neugebauer, S. Spicher,
     C. Bannwarth and S. Grimme, J. Chem. Phys., 2019, 150, 154122.
     DOI: 10.1063/1.5090222
   
   for sTDA-xTB:
   * S. Grimme and C. Bannwarth, J. Chem. Phys., 2016, 145, 054103.
     DOI: 10.1063/1.4959605
   
   in the mass-spec context:
   * V. Asgeirsson, C. Bauer and S. Grimme, Chem. Sci., 2017, 8, 4879.
     DOI: 10.1039/c7sc00601b
   
   for metadynamics refer to:
   * S. Grimme, J. Chem. Theory Comput., 2019, 155, 2847-2862
     DOI: 10.1021/acs.jctc.9b00143
   
   with help from (in alphabetical order)
   C. Bannwarth, F. Bohle, G. Brandenburg, E. Caldeweyher, M. Checinski,
   S. Dohm, S. Ehlert, S. Ehrlich, F. März, H. Neugebauer, J. Pisarek,
   P. Pracht, P. Shushkov, and S. Spicher.
   
 * started run on 2020/07/25 at 23:09:17.575     

           -------------------------------------------------
          |                Calculation Setup                |
           -------------------------------------------------

          program call               : xtb complex_35821.xyz --chrg +9 --uhf 0 --gbsa water
          hostname                   : gold54.cluster.local
          coordinate file            : complex_35821.xyz
          omp threads                :                    64
          number of atoms            :                  2615
          number of electrons        :                  7234
          charge                     :                     9
          spin                       :                   0.0
          first test random number   :      0.25471042705930


molecular fragmentation (1/2 indicates fragments):
111111111111111111111111111111111111111111111111111111111111111111111111
111111111111111111111111111111111111111111111111111111111111111111111111
111111111111111111111111111111111111111111111111111111111111111111111111
111111111111111111111111111111111111111111111111111111111111111111111111
111111111111111111111111111111111111111111111111111111111111111111111111
111111111111111111111111111111111111111111111111111111111111111111111111
111111111111111111111111111111111111111111111111111111111111111111111111
111111111111111111111111111111111111111111111111111111111111111111111111
111111111111111111111111111111111111111111111111111111111111111111111111
111111111111111111111111111111111111111111111111111111111111111111111111
111111111111111111111111111111111111111111111111111111111111111111111111
111111111111111111111111111111111111111111111111111111111111111111111111
111111111111111111111111111111111111111111111111111111111111111111111111
111111111111111111111111111111111111111111111111111111111111111111111111
111111111111111111111111111111111111111111111111111111111111111111111111
111111111111111111111111111111111111111111111111111111111111111111111111
111111111111111111111111111111111111111111111111111111111111111111111111
111111111111111111111111111111111111111111111111111111111111111111111111
111111111111111111111111111111111111111111111111111111111111111111111111
111111111111111111111111111111111111111111111111111111111111111111111111
111111111111111111111111111111111111111111111111111111111111111111111111
111111111111111111111111111111111111111111111111111111111111111111111111
111111111111111111111111111111111111111111111111111111111111111111111111
111111111111111111111111111111111111111111111111111111111111111111111111
111111111111111111111111111111111111111111111111111111111111111111111111
111111111111111111111111111111111111111111111111111111111111111111111111
111111111111111111111111111111111111111111111111111111111111111111111111
111111111111111111111111111111111111111111111111111111111111111111111111
111111111111111111111111111111111111111111111111111111111111111111111111
111111111111111111111111111111111111111111111111111111111111111111111111
111111111111111111111111111111111111111111111111111111111111111111111111
111111111111111111111111111111111111111111111111111111111111111111111111
111111111111111111111111111111111111111111111111111111111111111111111111
111111111111111111111111111111111111111111111111111111111111111111111111
111111111111111111111111111111111111111111111111111111111111111111111111
111111111111111111111111111111111111111111111111111111111111111111111111
11111111112222222222222
# atoms in fragment 1/2:  2602    13
 fragment masses (1/2) :    18371.93      128.56
CMA distance (Bohr)    :  22.239
constraining FC (au)   :  0.0500
########################################################################
[WARNING] Please study the warnings concerning your input carefully
-2- prog_main: XTBPATH is not set, using XTBHOME instead
-1- prog_main: XTBHOME is not set, using HOME instead
########################################################################
           ------------------------------------------------- 
          |                 G F N 2 - x T B                 |
          | Geometry, Frequencies, Noncovalent interactions |
          |            JCTC 2019 parametrisation            |
           ------------------------------------------------- 
             k(s)              :                1.8500
             k(p)              :                2.2300
             k(d)              :                2.2300
             k(f)              :                2.0000
             kEN (H0ij)        :               -2.0000
             D4 a1             :                0.5200
             D4 a2             :                5.0000
             D4 s6             :                1.0000
             D4 s8             :                2.7000
             D4 s9             :                5.0000
             alphaj            :                2.0000

  Z AO/shell   Hii/eV     exponent
  1     Wed Apr 25 08:07:45 CEST 2018   EN: 2.200 GM2: 0.406  GM3: 0.0800  RAES: 1.40
     1s    -10.707211    1.230000
  6     Wed Apr 25 08:07:45 CEST 2018   EN: 2.550 GM2: 0.538  GM3: 0.1500  RAES: 3.00
     2s    -13.970922    2.096432
     2p    -10.063292    1.800000
  7     Wed Apr 25 08:07:45 CEST 2018   EN: 3.040 GM2: 0.461  GM3:-0.0640  RAES: 1.90
     2s    -16.686243    2.339881
     2p    -12.523956    2.014332
  8     Wed Apr 25 08:07:45 CEST 2018   EN: 3.440 GM2: 0.452  GM3:-0.0517  RAES: 1.80
     2s    -20.229985    2.439742
     2p    -15.503117    2.137023
 16     Tue Apr 24 11:44:34 CEST 2018   EN: 2.580 GM2: 0.340  GM3:-0.0502  RAES: 3.10
     3s    -20.029654    1.981333
     3p    -11.377694    2.025643
     3d     -0.420282    1.702555
 17     Mon Apr 23 14:09:22 CEST 2018   EN: 3.160 GM2: 0.249  GM3: 0.1495  RAES: 2.50
     3s    -29.278781    2.485265
     3p    -12.673758    2.199650
     3d     -0.240338    2.476089

 Solvent             : water
 Using internal parameter file: .param_gbsa2_water
 Gsolv ref. state (COSMO-RS): gsolv [1 M gas/solution]
 temperature (mdtemp)       :    298.14999999999998     
 dielectric constant        :    80.200000000000003     
 rho                        :    1.0000000000000000     
 mass                       :    18.000000000000000     
 surface tension            :    15.568945408385856     
 probe radius               :   0.97531378999999996     
 Gshift (Eh)                :    1.8574431267947933E-003
 c1                         :    1.5524381700000001     
 soset                      :   0.13032636000000000     
 HB correction              :  T
           ------------------------------------------------- 
          |        Self-Consistent Charge Iterations        |
           ------------------------------------------------- 

          ...................................................
          :                      SETUP                      :
          :.................................................:
          :  # basis functions                6554          :
          :  # atomic orbitals                6547          :
          :  # shells                         3921          :
          :  # electrons                      7234          :
          :  max. iterations                   250          :
          :  Hamiltonian                  GFN2-xTB          :
          :  restarted?                      false          :
          :  GBSA solvation                   true          :
          :  PC potential                    false          :
          :  electronic temp.          300.0000000     K    :
          :  accuracy                    1.0000000          :
          :  -> integral cutoff          0.2500000E+02      :
          :  -> integral neglect         0.1000000E-07      :
          :  -> SCF convergence          0.1000000E-05 Eh   :
          :  -> wf. convergence          0.1000000E-03 e    :
          :  Broyden damping             0.4000000          :
          ...................................................

 iter      E             dE          RMSdq      gap      omega  full diag
   1  -4145.1102742 -0.414511E+04  0.429E+00    2.18       0.0  T
   2  -4157.4102290 -0.123000E+02  0.227E+00    2.35       1.0  T
   3  -4157.8884345 -0.478205E+00  0.120E+00    2.20       1.0  T
   4  -4157.9645881 -0.761536E-01  0.297E-01    1.76       1.0  T
   5  -4158.0698340 -0.105246E+00  0.145E-01    1.73       1.0  T
   6  -4158.0827022 -0.128681E-01  0.755E-02    1.76       1.0  T
   7  -4158.0850209 -0.231870E-02  0.389E-02    1.73       1.0  T
   8  -4158.0861149 -0.109402E-02  0.174E-02    1.70       1.0  T
   9  -4158.0862729 -0.158039E-03  0.102E-02    1.67       1.0  T
  10  -4158.0863526 -0.796511E-04  0.530E-03    1.65       1.0  T
  11  -4158.0863746 -0.220378E-04  0.258E-03    1.64       1.0  T
  12  -4158.0863800 -0.542270E-05  0.142E-03    1.63       1.4  T
  13  -4158.0863818 -0.172859E-05  0.791E-04    1.63       2.5  T
  14  -4158.0863823 -0.541097E-06  0.427E-04    1.63       4.6  T
  15  -4158.0863825 -0.179102E-06  0.237E-04    1.63       8.2  T

   *** convergence criteria satisfied after 15 iterations ***

         #    Occupation            Energy/Eh            Energy/eV
      -------------------------------------------------------------
         1        2.0000           -1.0393344             -28.2817
       ...           ...                  ...                  ...
      3611        2.0000           -0.3607283              -9.8159
      3612        2.0000           -0.3601764              -9.8009
      3613        2.0000           -0.3589352              -9.7671
      3614        2.0000           -0.3541419              -9.6367
      3615        2.0000           -0.3532350              -9.6120
      3616        2.0000           -0.3496217              -9.5137
      3617        2.0000           -0.3421865              -9.3114 (HOMO)
      3618                         -0.2823475              -7.6831 (LUMO)
      3619                         -0.2700801              -7.3493
      3620                         -0.2675973              -7.2817
      3621                         -0.2675712              -7.2810
      3622                         -0.2667911              -7.2598
       ...                                ...                  ...
      6547                          0.7705515              20.9678
      -------------------------------------------------------------
                  HL-Gap            0.0598390 Eh            1.6283 eV
             Fermi-level           -0.3122670 Eh           -8.4972 eV

 SCC (total)                   0 d,  0 h,  6 min, 47.413 sec
 SCC setup                      ...        0 min,  3.078 sec (  0.756%)
 Dispersion                     ...        0 min,  1.974 sec (  0.485%)
 integral evaluation            ...        0 min,  8.790 sec (  2.157%)
 zeroth order Hamiltonian       ...        0 min,  0.342 sec (  0.084%)
 iterations                     ...        6 min, 15.261 sec ( 92.108%)
 molecular gradient             ...        0 min, 17.222 sec (  4.227%)
 printout                       ...        0 min,  0.745 sec (  0.183%)

         :::::::::::::::::::::::::::::::::::::::::::::::::::::
         ::                     SUMMARY                     ::
         :::::::::::::::::::::::::::::::::::::::::::::::::::::
         :: total energy           -4109.277933299428 Eh    ::
         :: total w/o Gsasa/hb     -4108.877641817678 Eh    ::
         :: gradient norm              1.340306405872 Eh/a0 ::
         :: HOMO-LUMO gap              1.628300990481 eV    ::
         ::.................................................::
         :: SCC energy             -4158.149747525786 Eh    ::
         :: -> isotropic ES           14.438515128913 Eh    ::
         :: -> anisotropic ES         -0.793080602857 Eh    ::
         :: -> anisotropic XC          1.159476499782 Eh    ::
         :: -> dispersion             -3.917781670134 Eh    ::
         :: -> Gsolv                  -4.291447804592 Eh    ::
         ::    -> Gborn               -3.891156322841 Eh    ::
         ::    -> Gsasa               -0.065222473186 Eh    ::
         ::    -> Ghb                 -0.336926451691 Eh    ::
         ::    -> Gshift               0.001857443127 Eh    ::
         :: repulsion energy          48.327721498853 Eh    ::
         :: add. restraining           0.000000000000 Eh    ::
         :::::::::::::::::::::::::::::::::::::::::::::::::::::

           -------------------------------------------------
          |                Property Printout                |
           -------------------------------------------------

    * Orbital Energies and Occupations

         #    Occupation            Energy/Eh            Energy/eV
      -------------------------------------------------------------
         1        2.0000           -1.0393344             -28.2817
       ...           ...                  ...                  ...
      3605        2.0000           -0.3682874             -10.0216
      3606        2.0000           -0.3682164             -10.0197
      3607        2.0000           -0.3643347              -9.9141
      3608        2.0000           -0.3641728              -9.9096
      3609        2.0000           -0.3631058              -9.8806
      3610        2.0000           -0.3613147              -9.8319
      3611        2.0000           -0.3607283              -9.8159
      3612        2.0000           -0.3601764              -9.8009
      3613        2.0000           -0.3589352              -9.7671
      3614        2.0000           -0.3541419              -9.6367
      3615        2.0000           -0.3532350              -9.6120
      3616        2.0000           -0.3496217              -9.5137
      3617        2.0000           -0.3421865              -9.3114 (HOMO)
      3618                         -0.2823475              -7.6831 (LUMO)
      3619                         -0.2700801              -7.3493
      3620                         -0.2675973              -7.2817
      3621                         -0.2675712              -7.2810
      3622                         -0.2667911              -7.2598
      3623                         -0.2665794              -7.2540
      3624                         -0.2658706              -7.2347
      3625                         -0.2654815              -7.2241
      3626                         -0.2641644              -7.1883
      3627                         -0.2634160              -7.1679
      3628                         -0.2630049              -7.1567
       ...                                ...                  ...
      6547                          0.7705515              20.9678
      -------------------------------------------------------------
                  HL-Gap            0.0598390 Eh            1.6283 eV
             Fermi-level           -0.3122670 Eh           -8.4972 eV

     #   Z        covCN         q      C6AA      α(0)
     1   7 N      3.488    -0.137    23.966     7.271
     2   1 H      0.860     0.301     0.711     1.320
     3   1 H      0.860     0.311     0.681     1.293
     4   1 H      0.860     0.302     0.706     1.317
     5   6 C      3.803    -0.039    21.267     6.565
     6   1 H      0.924     0.141     1.457     1.887
     7   6 C      3.815    -0.111    22.602     6.766
     8   1 H      0.924     0.104     1.745     2.066
     9   1 H      0.924     0.120     1.615     1.988
    10   6 C      3.790    -0.038    21.262     6.567
    11   1 H      0.925     0.079     1.995     2.209
    12   1 H      0.925     0.087     1.910     2.161
    13  16 S      1.963    -0.225   150.652    20.658
    14   6 C      3.747    -0.038    21.320     6.586
    15   1 H      0.925     0.025     2.654     2.548
    16   1 H      0.925     0.029     2.598     2.521
    17   1 H      0.925     0.064     2.156     2.296
    18   6 C      2.762     0.278    22.290     7.732
    19   8 O      0.859    -0.449    22.690     6.386
    20   7 N      2.704    -0.146    24.168     7.301
    21   1 H      0.860     0.221     1.005     1.571
    22   6 C      3.794     0.013    20.367     6.427
    23   1 H      0.925     0.113     1.673     2.023
    24   6 C      3.810    -0.116    22.717     6.784
    25   1 H      0.924     0.078     1.995     2.209
    26   1 H      0.925     0.087     1.904     2.158
    27   6 C      2.744     0.279    22.269     7.727
    28   8 O      0.862    -0.520    24.223     6.599
    29   7 N      2.644    -0.268    26.941     7.709
    30   1 H      0.860     0.249     0.886     1.475
    31   1 H      0.860     0.249     0.889     1.477
    32   6 C      2.751     0.262    22.578     7.781
    33   8 O      0.858    -0.499    23.766     6.536
    34   7 N      2.679    -0.191    25.145     7.447
    35   1 H      0.860     0.229     0.968     1.542
    36   6 C      3.787     0.019    20.272     6.413
    37   1 H      0.924     0.097     1.812     2.105
    38   6 C      3.859    -0.027    21.023     6.521
    39   1 H      0.925     0.089     1.893     2.152
    40   6 C      3.757    -0.130    23.046     6.845
    41   1 H      0.924     0.060     2.203     2.321
    42   1 H      0.925     0.025     2.661     2.551
    43   1 H      0.925     0.050     2.316     2.380
    44   6 C      3.808    -0.072    21.866     6.656
    45   1 H      0.925     0.036     2.499     2.472
    46   1 H      0.925     0.053     2.283     2.363
    47   6 C      3.750    -0.123    22.917     6.827
    48   1 H      0.924     0.040     2.450     2.448
    49   1 H      0.925     0.071     2.072     2.251
    50   1 H      0.925     0.052     2.297     2.370
    51   6 C      2.747     0.264    22.538     7.773
    52   8 O      0.860    -0.538    24.645     6.656
    53   7 N      2.685    -0.169    24.656     7.375
    54   1 H      0.860     0.228     0.976     1.547
    55   6 C      3.773     0.023    20.222     6.408
    56   1 H      0.925     0.072     2.069     2.249
    57   6 C      3.818    -0.075    21.913     6.662
    58   1 H      0.924     0.064     2.158     2.297
    59   1 H      0.925     0.077     2.009     2.216
    60   6 C      2.960     0.016    27.657     8.626
    61   6 C      2.917    -0.052    29.282     8.874
    62   1 H      0.926     0.022     2.709     2.574
    63   6 C      2.904    -0.030    28.756     8.793
    64   1 H      0.926     0.012     2.858     2.643
    65   6 C      2.909    -0.035    28.867     8.810
    66   1 H      0.926     0.032     2.560     2.502
    67   6 C      2.913    -0.041    29.027     8.835
    68   1 H      0.926     0.059     2.206     2.322
    69   6 C      2.904    -0.045    29.126     8.849
    70   1 H      0.926     0.071     2.072     2.251
    71   6 C      2.728     0.267    22.493     7.764
    72   8 O      0.860    -0.466    23.034     6.435
    73   7 N      2.681    -0.189    25.102     7.441
    74   1 H      0.860     0.205     1.079     1.627
    75   6 C      3.773     0.016    20.338     6.426
    76   1 H      0.925     0.080     1.978     2.200
    77   6 C      3.799    -0.061    21.677     6.629
    78   1 H      0.924     0.063     2.165     2.301
    79   1 H      0.925     0.059     2.205     2.322
    80   6 C      3.802    -0.093    22.277     6.720
    81   1 H      0.924     0.036     2.506     2.476
    82   1 H      0.925     0.048     2.341     2.392
    83   6 C      2.687     0.360    20.887     7.479
    84   8 O      0.858    -0.643    27.199     6.992
    85   8 O      0.857    -0.645    27.244     6.998
    86   6 C      2.740     0.270    22.436     7.755
    87   8 O      0.861    -0.470    23.138     6.449
    88   7 N      2.679    -0.202    25.391     7.484
    89   1 H      0.860     0.222     1.001     1.567
    90   6 C      3.780     0.022    20.225     6.407
    91   1 H      0.925     0.092     1.862     2.134
    92   6 C      3.825    -0.072    21.854     6.652
    93   1 H      0.925     0.086     1.917     2.165
    94   1 H      0.925     0.060     2.200     2.320
    95   6 C      3.801    -0.017    20.876     6.505
    96   1 H      0.925     0.023     2.683     2.561
    97   1 H      0.925     0.055     2.258     2.350
    98  16 S      1.965    -0.144   147.099    20.413
    99   6 C      3.744    -0.067    21.861     6.670
   100   1 H      0.925     0.046     2.365     2.405
   101   1 H      0.925     0.041     2.434     2.440
   102   1 H      0.927     0.081     1.968     2.194
   103   6 C      2.752     0.262    22.575     7.780
   104   8 O      0.861    -0.474    23.219     6.461
   105   7 N      2.703    -0.187    25.060     7.435
   106   1 H      0.860     0.194     1.138     1.671
   107   6 C      3.782     0.021    20.243     6.409
   108   1 H      0.925     0.083     1.947     2.182
   109   6 C      3.813    -0.071    21.847     6.653
   110   1 H      0.925     0.047     2.363     2.404
   111   1 H      0.924     0.049     2.337     2.391
   112   6 C      3.845    -0.013    20.782     6.485
   113   1 H      0.924     0.056     2.243     2.342
   114   6 C      3.753    -0.115    22.761     6.803
   115   1 H      0.925     0.053     2.278     2.360
   116   1 H      0.924     0.017     2.781     2.608
   117   1 H      0.924     0.045     2.378     2.412
   118   6 C      3.752    -0.113    22.717     6.797
   119   1 H      0.925     0.041     2.439     2.442
   120   1 H      0.925     0.058     2.218     2.329
   121   1 H      0.925     0.033     2.538     2.491
   122   6 C      2.747     0.253    22.746     7.809
   123   8 O      0.858    -0.507    23.948     6.561
   124   7 N      2.694    -0.158    24.424     7.340
   125   1 H      0.860     0.193     1.141     1.673
   126   6 C      3.789     0.014    20.355     6.426
   127   1 H      0.924     0.086     1.919     2.166
   128   6 C      3.816    -0.077    21.965     6.670
   129   1 H      0.925     0.057     2.233     2.337
   130   1 H      0.925     0.064     2.158     2.297
   131   6 C      3.798    -0.078    21.985     6.676
   132   1 H      0.924     0.064     2.149     2.292
   133   1 H      0.925     0.074     2.044     2.236
   134   6 C      3.727    -0.021    21.044     6.549
   135   1 H      0.924     0.085     1.929     2.172
   136   1 H      0.924     0.077     2.008     2.216
   137   7 N      2.702    -0.182    24.935     7.416
   138   1 H      0.860     0.224     0.990     1.559
   139   6 C      2.733     0.258    22.661     7.794
   140   7 N      2.711    -0.232    26.072     7.584
   141   1 H      0.860     0.245     0.904     1.489
   142   1 H      0.860     0.249     0.887     1.475
   143   7 N      2.705    -0.289    27.454     7.782
   144   1 H      0.860     0.234     0.946     1.524
   145   1 H      0.860     0.246     0.901     1.487
   146   6 C      2.742     0.276    22.326     7.736
   147   8 O      0.858    -0.460    22.915     6.418
   148   7 N      2.690    -0.175    24.795     7.395
   149   1 H      0.860     0.198     1.117     1.655
   150   6 C      3.790     0.016    20.323     6.420
   151   1 H      0.925     0.091     1.866     2.136
   152   6 C      3.855    -0.028    21.040     6.524
   153   1 H      0.925     0.067     2.123     2.279
   154   6 C      3.743    -0.124    22.955     6.835
   155   1 H      0.925     0.054     2.267     2.355
   156   1 H      0.924     0.046     2.367     2.406
   157   1 H      0.925     0.043     2.412     2.429
   158   6 C      3.800    -0.059    21.644     6.624
   159   1 H      0.924     0.040     2.444     2.445
   160   1 H      0.924     0.050     2.321     2.382
   161   6 C      3.747    -0.107    22.615     6.783
   162   1 H      0.924     0.042     2.417     2.431
   163   1 H      0.925     0.041     2.436     2.441
   164   1 H      0.925     0.030     2.587     2.515
   165   6 C      2.735     0.270    22.429     7.754
   166   8 O      0.857    -0.453    22.778     6.399
   167   7 N      2.674    -0.208    25.522     7.503
   168   1 H      0.860     0.189     1.163     1.689
   169   6 C      3.780     0.027    20.139     6.393
   170   1 H      0.925     0.090     1.883     2.146
   171   6 C      3.808    -0.095    22.299     6.722
   172   1 H      0.925     0.039     2.469     2.457
   173   1 H      0.925     0.054     2.273     2.358
   174   6 C      2.689     0.374    20.656     7.438
   175   8 O      0.858    -0.589    25.847     6.816
   176   8 O      0.858    -0.550    24.910     6.692
   177   6 C      2.749     0.263    22.571     7.779
   178   8 O      0.859    -0.463    22.984     6.428
   179   7 N      2.686    -0.172    24.724     7.385
   180   1 H      0.860     0.192     1.147     1.677
   181   6 C      3.789     0.029    20.095     6.385
   182   1 H      0.924     0.074     2.038     2.233
   183   6 C      3.799    -0.053    21.525     6.606
   184   1 H      0.925     0.029     2.597     2.520
   185   1 H      0.924     0.043     2.405     2.425
   186   6 C      3.803    -0.110    22.599     6.768
   187   1 H      0.925     0.041     2.432     2.439
   188   1 H      0.925     0.038     2.473     2.459
   189   6 C      2.691     0.377    20.615     7.431
   190   8 O      0.858    -0.633    26.947     6.960
   191   8 O      0.860    -0.631    26.892     6.953
   192   6 C      2.749     0.267    22.490     7.765
   193   8 O      0.861    -0.520    24.222     6.599
   194   7 N      2.681    -0.168    24.635     7.372
   195   1 H      0.860     0.230     0.967     1.540
   196   6 C      3.736    -0.046    21.482     6.614
   197   1 H      0.925     0.107     1.724     2.053
   198   1 H      0.925     0.075     2.036     2.231
   199   6 C      2.747     0.282    22.226     7.720
   200   8 O      0.861    -0.469    23.099     6.444
   201   7 N      2.690    -0.174    24.767     7.391
   202   1 H      0.860     0.207     1.070     1.620
   203   6 C      3.793     0.020    20.252     6.409
   204   1 H      0.925     0.059     2.216     2.328
   205   6 C      3.809    -0.077    21.954     6.670
   206   1 H      0.924     0.069     2.098     2.265
   207   1 H      0.925     0.058     2.221     2.331
   208   6 C      3.854    -0.019    20.869     6.497
   209   1 H      0.925     0.033     2.539     2.492
   210   6 C      3.799    -0.128    22.966     6.823
   211   1 H      0.924     0.045     2.389     2.417
   212   1 H      0.925     0.053     2.287     2.365
   213   1 H      0.925     0.032     2.563     2.504
   214   6 C      3.791    -0.128    22.969     6.825
   215   1 H      0.924     0.036     2.506     2.476
   216   1 H      0.924     0.059     2.208     2.324
   217   1 H      0.925     0.056     2.242     2.341
   218   6 C      2.749     0.276    22.335     7.739
   219   8 O      0.860    -0.479    23.334     6.477
   220   7 N      2.684    -0.162    24.499     7.351
   221   1 H      0.860     0.213     1.042     1.599
   222   6 C      3.786     0.008    20.460     6.443
   223   1 H      0.925     0.090     1.881     2.145
   224   6 C      3.804    -0.082    22.055     6.686
   225   1 H      0.924     0.081     1.968     2.194
   226   1 H      0.925     0.066     2.134     2.285
   227   6 C      3.801    -0.093    22.272     6.719
   228   1 H      0.924     0.084     1.942     2.179
   229   1 H      0.924     0.096     1.826     2.113
   230   6 C      3.736    -0.026    21.121     6.559
   231   1 H      0.924     0.076     2.018     2.221
   232   1 H      0.925     0.068     2.111     2.272
   233   7 N      2.685    -0.152    24.285     7.319
   234   1 H      0.860     0.256     0.859     1.452
   235   6 C      2.734     0.228    23.198     7.886
   236   7 N      2.665    -0.245    26.390     7.630
   237   1 H      0.860     0.216     1.029     1.589
   238   1 H      0.860     0.228     0.973     1.545
   239   7 N      2.667    -0.258    26.702     7.675
   240   1 H      0.860     0.243     0.912     1.496
   241   1 H      0.860     0.269     0.812     1.412
   242   6 C      2.744     0.251    22.786     7.816
   243   8 O      0.859    -0.493    23.628     6.517
   244   7 N      2.682    -0.162    24.504     7.352
   245   1 H      0.860     0.221     1.005     1.570
   246   6 C      3.773     0.003    20.563     6.461
   247   1 H      0.925     0.093     1.851     2.127
   248   6 C      3.785    -0.082    22.084     6.694
   249   1 H      0.925     0.080     1.983     2.202
   250   1 H      0.925     0.062     2.172     2.305
   251   6 C      3.844    -0.014    20.795     6.487
   252   1 H      0.924     0.047     2.353     2.399
   253   6 C      3.759    -0.121    22.870     6.818
   254   1 H      0.924     0.042     2.428     2.437
   255   1 H      0.925     0.041     2.433     2.439
   256   1 H      0.924     0.040     2.454     2.450
   257   6 C      3.756    -0.120    22.851     6.816
   258   1 H      0.924     0.037     2.494     2.470
   259   1 H      0.925     0.032     2.560     2.502
   260   1 H      0.925     0.052     2.291     2.367
   261   6 C      2.759     0.269    22.451     7.759
   262   8 O      0.868    -0.504    23.877     6.552
   263   7 N      2.694    -0.121    23.638     7.221
   264   1 H      0.860     0.198     1.117     1.656
   265   6 C      3.785    -0.009    20.749     6.488
   266   1 H      0.925     0.093     1.850     2.127
   267   6 C      3.794    -0.091    22.235     6.715
   268   1 H      0.924     0.066     2.131     2.283
   269   1 H      0.925     0.083     1.945     2.181
   270   6 C      3.803    -0.079    22.004     6.678
   271   1 H      0.924     0.060     2.198     2.319
   272   1 H      0.925     0.053     2.289     2.366
   273   6 C      3.802    -0.102    22.440     6.744
   274   1 H      0.924     0.088     1.898     2.154
   275   1 H      0.925     0.083     1.948     2.183
   276   6 C      3.730    -0.061    21.779     6.662
   277   1 H      0.925     0.124     1.583     1.968
   278   1 H      0.924     0.121     1.608     1.983
   279   7 N      3.486    -0.157    24.376     7.333
   280   1 H      0.860     0.298     0.720     1.329
   281   1 H      0.860     0.296     0.725     1.334
   282   1 H      0.860     0.308     0.689     1.300
   283   6 C      2.738     0.258    22.656     7.793
   284   8 O      0.860    -0.470    23.133     6.449
   285   7 N      2.700    -0.165    24.573     7.362
   286   1 H      0.860     0.214     1.035     1.594
   287   6 C      3.789     0.004    20.524     6.452
   288   1 H      0.925     0.081     1.966     2.193
   289   6 C      3.850    -0.029    21.051     6.526
   290   1 H      0.925     0.079     1.994     2.208
   291   6 C      3.761    -0.126    22.969     6.832
   292   1 H      0.925     0.069     2.100     2.266
   293   1 H      0.924     0.029     2.607     2.525
   294   1 H      0.925     0.038     2.479     2.462
   295   6 C      3.809    -0.081    22.045     6.684
   296   1 H      0.925     0.058     2.224     2.332
   297   1 H      0.924     0.026     2.645     2.543
   298   6 C      3.751    -0.127    22.993     6.838
   299   1 H      0.924     0.036     2.498     2.471
   300   1 H      0.925     0.041     2.434     2.440
   301   1 H      0.925     0.068     2.110     2.272
   302   6 C      2.758     0.272    22.412     7.753
   303   8 O      0.858    -0.434    22.362     6.340
   304   7 N      2.706    -0.182    24.951     7.419
   305   1 H      0.860     0.205     1.080     1.628
   306   6 C      3.792     0.012    20.388     6.430
   307   1 H      0.924     0.113     1.671     2.021
   308   6 C      3.811    -0.100    22.392     6.736
   309   1 H      0.925     0.097     1.809     2.104
   310   1 H      0.924     0.081     1.974     2.197
   311   6 C      2.950    -0.005    28.152     8.702
   312   6 C      2.905    -0.047    29.158     8.854
   313   1 H      0.926     0.063     2.169     2.303
   314   6 C      2.905    -0.084    30.096     8.995
   315   1 H      0.926     0.024     2.666     2.553
   316   6 C      2.834     0.133    25.088     8.208
   317   8 O      1.661    -0.420    21.239     6.221
   318   1 H      0.805     0.319     0.666     1.282
   319   6 C      2.896    -0.074    29.855     8.959
   320   1 H      0.926     0.034     2.525     2.485
   321   6 C      2.904    -0.046    29.145     8.852
   322   1 H      0.926     0.092     1.862     2.134
   323   6 C      2.756     0.267    22.489     7.766
   324   8 O      0.858    -0.497    23.709     6.528
   325   7 N      2.693    -0.164    24.550     7.359
   326   1 H      0.860     0.227     0.980     1.551
   327   6 C      3.789     0.014    20.361     6.427
   328   1 H      0.925     0.088     1.895     2.153
   329   6 C      3.809    -0.076    21.938     6.667
   330   1 H      0.924     0.047     2.356     2.401
   331   1 H      0.924     0.072     2.066     2.248
   332   6 C      3.806    -0.082    22.063     6.687
   333   1 H      0.925     0.083     1.944     2.180
   334   1 H      0.925     0.058     2.223     2.332
   335   6 C      3.798    -0.094    22.295     6.723
   336   1 H      0.925     0.062     2.179     2.308
   337   1 H      0.925     0.085     1.927     2.171
   338   6 C      3.725    -0.058    21.733     6.657
   339   1 H      0.925     0.145     1.428     1.869
   340   1 H      0.925     0.112     1.677     2.025
   341   7 N      3.484    -0.142    24.054     7.284
   342   1 H      0.860     0.295     0.728     1.337
   343   1 H      0.860     0.303     0.705     1.315
   344   1 H      0.860     0.283     0.766     1.371
   345   6 C      2.749     0.254    22.734     7.807
   346   8 O      0.856    -0.521    24.251     6.603
   347   7 N      2.690    -0.162    24.505     7.352
   348   1 H      0.860     0.234     0.948     1.525
   349   6 C      3.791     0.036    19.979     6.366
   350   1 H      0.924     0.079     1.994     2.208
   351   6 C      3.800    -0.110    22.594     6.768
   352   1 H      0.925     0.034     2.534     2.489
   353   1 H      0.925     0.056     2.241     2.341
   354   6 C      2.681     0.358    20.927     7.486
   355   8 O      0.857    -0.614    26.476     6.899
   356   8 O      0.857    -0.631    26.896     6.953
   357   6 C      2.743     0.260    22.614     7.786
   358   8 O      0.858    -0.504    23.882     6.552
   359   7 N      2.684    -0.194    25.204     7.456
   360   1 H      0.860     0.231     0.962     1.537
   361   6 C      3.787     0.019    20.270     6.413
   362   1 H      0.924     0.086     1.913     2.163
   363   6 C      3.725     0.123    18.672     6.170
   364   1 H      0.925     0.014     2.820     2.626
   365   6 C      3.753    -0.128    23.019     6.842
   366   1 H      0.924     0.070     2.087     2.259
   367   1 H      0.925     0.044     2.396     2.420
   368   1 H      0.925     0.065     2.141     2.288
   369   8 O      1.658    -0.472    22.304     6.376
   370   1 H      0.805     0.338     0.617     1.234
   371   6 C      2.754     0.283    22.215     7.718
   372   8 O      0.859    -0.473    23.186     6.456
   373   7 N      2.685    -0.207    25.511     7.501
   374   1 H      0.860     0.191     1.151     1.681
   375   6 C      3.793     0.016    20.307     6.417
   376   1 H      0.925     0.078     1.996     2.210
   377   6 C      3.798    -0.055    21.565     6.612
   378   1 H      0.925     0.041     2.440     2.443
   379   1 H      0.924     0.045     2.378     2.412
   380   6 C      3.797    -0.095    22.316     6.727
   381   1 H      0.925     0.032     2.552     2.498
   382   1 H      0.925     0.063     2.165     2.301
   383   6 C      2.687     0.363    20.840     7.471
   384   8 O      0.859    -0.589    25.850     6.817
   385   8 O      0.856    -0.650    27.380     7.015
   386   6 C      2.752     0.274    22.363     7.744
   387   8 O      0.859    -0.502    23.832     6.545
   388   7 N      2.691    -0.185    25.008     7.427
   389   1 H      0.860     0.214     1.036     1.594
   390   6 C      3.746    -0.028    21.146     6.559
   391   1 H      0.925     0.109     1.707     2.043
   392   1 H      0.925     0.104     1.752     2.070
   393   6 C      2.752     0.281    22.239     7.722
   394   8 O      0.866    -0.476    23.258     6.466
   395   7 N      2.697    -0.166    24.584     7.364
   396   1 H      0.860     0.166     1.298     1.784
   397   6 C      3.797     0.028    20.100     6.384
   398   1 H      0.925     0.086     1.920     2.167
   399   6 C      3.810    -0.073    21.887     6.659
   400   1 H      0.925     0.089     1.892     2.151
   401   1 H      0.924     0.046     2.372     2.409
   402   6 C      2.949    -0.010    28.258     8.719
   403   6 C      2.915    -0.058    29.442     8.898
   404   1 H      0.926     0.041     2.434     2.440
   405   6 C      2.904    -0.063    29.567     8.916
   406   1 H      0.926     0.073     2.054     2.241
   407   6 C      2.842     0.144    24.863     8.172
   408   8 O      1.660    -0.440    21.634     6.279
   409   1 H      0.805     0.345     0.599     1.216
   410   6 C      2.905    -0.067    29.675     8.932
   411   1 H      0.926     0.053     2.288     2.365
   412   6 C      2.917    -0.041    29.021     8.834
   413   1 H      0.926     0.043     2.403     2.424
   414   6 C      2.756     0.266    22.509     7.769
   415   8 O      0.857    -0.514    24.100     6.582
   416   7 N      2.689    -0.166    24.602     7.367
   417   1 H      0.860     0.238     0.932     1.512
   418   6 C      3.791     0.016    20.320     6.420
   419   1 H      0.925     0.088     1.895     2.153
   420   6 C      3.803    -0.081    22.052     6.686
   421   1 H      0.925     0.060     2.199     2.319
   422   1 H      0.925     0.060     2.198     2.318
   423   6 C      2.959    -0.002    28.063     8.689
   424   6 C      2.918    -0.042    29.042     8.837
   425   1 H      0.926     0.030     2.585     2.514
   426   6 C      2.905    -0.078    29.953     8.974
   427   1 H      0.926     0.043     2.409     2.427
   428   6 C      2.831     0.129    25.173     8.222
   429   8 O      1.659    -0.398    20.815     6.159
   430   1 H      0.806     0.340     0.611     1.227
   431   6 C      2.912    -0.079    29.978     8.978
   432   1 H      0.926     0.086     1.923     2.168
   433   6 C      2.909    -0.043    29.076     8.842
   434   1 H      0.926     0.057     2.233     2.337
   435   6 C      2.746     0.274    22.366     7.744
   436   8 O      0.860    -0.488    23.518     6.502
   437   7 N      2.695    -0.188    25.071     7.436
   438   1 H      0.860     0.249     0.888     1.476
   439   6 C      3.791     0.022    20.212     6.403
   440   1 H      0.925     0.057     2.238     2.339
   441   6 C      3.739     0.129    18.565     6.148
   442   1 H      0.925     0.022     2.705     2.572
   443   6 C      3.752    -0.125    22.958     6.833
   444   1 H      0.924     0.041     2.441     2.443
   445   1 H      0.924     0.043     2.403     2.424
   446   1 H      0.925     0.051     2.310     2.377
   447   8 O      1.659    -0.476    22.387     6.387
   448   1 H      0.805     0.301     0.718     1.331
   449   6 C      2.747     0.257    22.670     7.796
   450   8 O      0.859    -0.457    22.860     6.410
   451   7 N      2.680    -0.175    24.800     7.396
   452   1 H      0.860     0.215     1.035     1.593
   453   6 C      3.772    -0.000    20.615     6.470
   454   1 H      0.925     0.097     1.810     2.104
   455   6 C      3.844    -0.033    21.131     6.539
   456   1 H      0.925     0.070     2.086     2.258
   457   6 C      3.749    -0.132    23.097     6.854
   458   1 H      0.924     0.031     2.572     2.508
   459   1 H      0.924     0.063     2.168     2.303
   460   1 H      0.925     0.052     2.301     2.372
   461   6 C      3.797    -0.078    21.991     6.677
   462   1 H      0.925     0.049     2.327     2.386
   463   1 H      0.925     0.039     2.463     2.454
   464   6 C      3.739    -0.122    22.919     6.831
   465   1 H      0.925     0.050     2.318     2.381
   466   1 H      0.924     0.056     2.241     2.341
   467   1 H      0.925     0.051     2.306     2.375
   468   6 C      2.745     0.282    22.218     7.718
   469   8 O      0.861    -0.461    22.937     6.421
   470   7 N      2.688    -0.161    24.473     7.347
   471   1 H      0.860     0.244     0.906     1.491
   472   6 C      3.740    -0.037    21.322     6.588
   473   1 H      0.924     0.064     2.148     2.292
   474   1 H      0.925     0.110     1.700     2.039
   475   6 C      2.746     0.260    22.626     7.789
   476   8 O      0.858    -0.442    22.541     6.365
   477   7 N      2.693    -0.186    25.025     7.430
   478   1 H      0.860     0.200     1.107     1.648
   479   6 C      3.792     0.011    20.403     6.433
   480   1 H      0.925     0.081     1.973     2.197
   481   6 C      3.847    -0.025    20.981     6.515
   482   1 H      0.925     0.030     2.589     2.516
   483   6 C      3.752    -0.112    22.701     6.795
   484   1 H      0.924     0.056     2.251     2.346
   485   1 H      0.925     0.030     2.593     2.518
   486   1 H      0.924     0.044     2.390     2.418
   487   6 C      3.787    -0.077    21.990     6.679
   488   1 H      0.925     0.050     2.316     2.380
   489   1 H      0.925     0.060     2.199     2.319
   490   6 C      3.740    -0.123    22.934     6.833
   491   1 H      0.924     0.036     2.502     2.474
   492   1 H      0.925     0.056     2.250     2.346
   493   1 H      0.925     0.056     2.251     2.346
   494   6 C      2.749     0.259    22.631     7.790
   495   8 O      0.861    -0.505    23.899     6.555
   496   7 N      2.689    -0.167    24.620     7.369
   497   1 H      0.860     0.234     0.948     1.525
   498   6 C      3.741    -0.030    21.186     6.567
   499   1 H      0.925     0.089     1.890     2.150
   500   1 H      0.924     0.108     1.718     2.050
   501   6 C      2.744     0.263    22.560     7.777
   502   8 O      0.863    -0.528    24.416     6.625
   503   7 N      2.692    -0.131    23.836     7.251
   504   1 H      0.860     0.218     1.018     1.581
   505   6 C      3.786     0.027    20.140     6.392
   506   1 H      0.924     0.072     2.065     2.247
   507   6 C      3.802    -0.095    22.309     6.725
   508   1 H      0.925     0.107     1.724     2.053
   509   1 H      0.925     0.102     1.764     2.077
   510   6 C      3.015     0.062    26.596     8.460
   511   7 N      2.781    -0.061    22.424     7.033
   512   1 H      0.860     0.257     0.857     1.450
   513   6 C      2.970     0.070    26.433     8.433
   514   1 H      0.926     0.142     1.447     1.881
   515   7 N      2.778     0.003    21.210     6.840
   516   1 H      0.860     0.276     0.791     1.393
   517   6 C      3.005    -0.022    28.539     8.763
   518   1 H      0.926     0.121     1.606     1.982
   519   6 C      2.748     0.273    22.384     7.747
   520   8 O      0.863    -0.472    23.178     6.455
   521   7 N      2.692    -0.167    24.604     7.367
   522   1 H      0.860     0.200     1.108     1.649
   523   6 C      3.782     0.019    20.266     6.413
   524   1 H      0.925     0.071     2.079     2.255
   525   6 C      3.796    -0.087    22.169     6.704
   526   1 H      0.925     0.061     2.185     2.312
   527   1 H      0.925     0.069     2.091     2.262
   528   6 C      3.835    -0.025    20.987     6.518
   529   1 H      0.925     0.039     2.464     2.455
   530   6 C      3.752    -0.132    23.091     6.853
   531   1 H      0.925     0.058     2.219     2.330
   532   1 H      0.925     0.043     2.406     2.426
   533   1 H      0.924     0.069     2.097     2.265
   534   6 C      3.746    -0.117    22.806     6.812
   535   1 H      0.924     0.053     2.287     2.365
   536   1 H      0.925     0.019     2.747     2.592
   537   1 H      0.924     0.053     2.284     2.364
   538   6 C      2.742     0.270    22.433     7.755
   539   8 O      0.859    -0.496    23.704     6.528
   540   7 N      2.683    -0.186    25.025     7.430
   541   1 H      0.860     0.220     1.010     1.575
   542   6 C      3.772     0.013    20.381     6.433
   543   1 H      0.924     0.083     1.951     2.184
   544   6 C      3.800    -0.082    22.073     6.689
   545   1 H      0.925     0.055     2.263     2.352
   546   1 H      0.924     0.063     2.167     2.302
   547   6 C      3.853    -0.004    20.607     6.456
   548   1 H      0.925     0.028     2.614     2.528
   549   6 C      3.761    -0.119    22.829     6.811
   550   1 H      0.925     0.014     2.821     2.626
   551   1 H      0.924     0.047     2.363     2.404
   552   1 H      0.924     0.047     2.355     2.400
   553   6 C      3.763    -0.118    22.795     6.805
   554   1 H      0.924     0.061     2.187     2.313
   555   1 H      0.924     0.051     2.308     2.376
   556   1 H      0.925     0.056     2.247     2.344
   557   6 C      2.754     0.266    22.505     7.768
   558   8 O      0.857    -0.509    23.980     6.566
   559   7 N      2.684    -0.146    24.159     7.300
   560   1 H      0.860     0.233     0.953     1.529
   561   6 C      3.803     0.023    20.185     6.396
   562   1 H      0.925     0.065     2.142     2.289
   563   6 C      3.732     0.122    18.671     6.168
   564   1 H      0.925     0.015     2.813     2.623
   565   6 C      3.752    -0.128    23.011     6.841
   566   1 H      0.925     0.054     2.276     2.359
   567   1 H      0.925     0.050     2.321     2.382
   568   1 H      0.924     0.051     2.301     2.372
   569   8 O      1.659    -0.447    21.781     6.300
   570   1 H      0.808     0.341     0.610     1.226
   571   6 C      2.752     0.249    22.823     7.823
   572   8 O      0.859    -0.504    23.883     6.552
   573   7 N      2.682    -0.151    24.275     7.318
   574   1 H      0.860     0.212     1.045     1.601
   575   6 C      3.782     0.015    20.341     6.425
   576   1 H      0.924     0.109     1.709     2.044
   577   6 C      3.804    -0.092    22.261     6.717
   578   1 H      0.925     0.084     1.941     2.179
   579   1 H      0.924     0.085     1.931     2.173
   580   6 C      3.806    -0.082    22.062     6.687
   581   1 H      0.925     0.058     2.227     2.334
   582   1 H      0.925     0.049     2.336     2.390
   583   6 C      3.805    -0.096    22.319     6.726
   584   1 H      0.924     0.080     1.980     2.201
   585   1 H      0.925     0.088     1.901     2.156
   586   6 C      3.728    -0.052    21.615     6.637
   587   1 H      0.924     0.119     1.622     1.992
   588   1 H      0.924     0.114     1.665     2.018
   589   7 N      3.479    -0.152    24.287     7.320
   590   1 H      0.860     0.296     0.725     1.334
   591   1 H      0.860     0.303     0.705     1.315
   592   1 H      0.860     0.303     0.706     1.316
   593   6 C      2.741     0.253    22.738     7.807
   594   8 O      0.858    -0.495    23.672     6.523
   595   7 N      2.680    -0.157    24.403     7.337
   596   1 H      0.860     0.210     1.055     1.609
   597   6 C      3.780     0.016    20.323     6.422
   598   1 H      0.924     0.079     1.984     2.203
   599   6 C      3.676     0.074    19.567     6.337
   600   1 H      0.925     0.050     2.321     2.383
   601   1 H      0.925     0.039     2.467     2.456
   602   8 O      1.656    -0.486    22.598     6.417
   603   1 H      0.805     0.352     0.583     1.199
   604   6 C      2.752     0.277    22.312     7.735
   605   8 O      0.863    -0.462    22.948     6.423
   606   7 N      2.755    -0.098    23.152     7.146
   607   6 C      3.781    -0.022    20.993     6.527
   608   1 H      0.925     0.061     2.183     2.310
   609   1 H      0.925     0.057     2.237     2.339
   610   6 C      3.841    -0.077    21.940     6.663
   611   1 H      0.924     0.070     2.091     2.261
   612   1 H      0.925     0.062     2.174     2.306
   613   6 C      3.836    -0.078    21.958     6.667
   614   1 H      0.924     0.078     2.003     2.213
   615   1 H      0.925     0.086     1.921     2.168
   616   6 C      3.846     0.014    20.313     6.411
   617   1 H      0.924     0.090     1.878     2.143
   618   6 C      2.742     0.270    22.438     7.756
   619   8 O      0.859    -0.476    23.259     6.466
   620   7 N      2.682    -0.157    24.408     7.338
   621   1 H      0.860     0.210     1.055     1.609
   622   6 C      3.787     0.004    20.527     6.453
   623   1 H      0.925     0.083     1.948     2.183
   624   6 C      3.679     0.069    19.629     6.346
   625   1 H      0.925     0.063     2.169     2.303
   626   1 H      0.925     0.044     2.398     2.422
   627   8 O      1.657    -0.467    22.197     6.360
   628   1 H      0.806     0.339     0.615     1.232
   629   6 C      2.761     0.272    22.410     7.752
   630   8 O      0.864    -0.481    23.362     6.481
   631   7 N      2.694    -0.177    24.824     7.400
   632   1 H      0.860     0.225     0.985     1.555
   633   6 C      3.807    -0.008    20.711     6.478
   634   1 H      0.925     0.109     1.707     2.043
   635   6 C      3.810    -0.086    22.126     6.696
   636   1 H      0.925     0.060     2.194     2.316
   637   1 H      0.925     0.090     1.882     2.145
   638   6 C      3.857    -0.024    20.960     6.511
   639   1 H      0.925     0.045     2.384     2.414
   640   6 C      3.787    -0.137    23.138     6.851
   641   1 H      0.925     0.057     2.238     2.339
   642   1 H      0.925     0.059     2.214     2.327
   643   1 H      0.924     0.030     2.585     2.514
   644   6 C      3.791    -0.138    23.168     6.855
   645   1 H      0.925     0.067     2.114     2.274
   646   1 H      0.924     0.059     2.205     2.322
   647   1 H      0.925     0.045     2.384     2.415
   648   6 C      2.752     0.289    22.109     7.700
   649   8 O      0.863    -0.444    22.585     6.372
   650   7 N      2.698    -0.202    25.395     7.484
   651   1 H      0.860     0.216     1.027     1.588
   652   6 C      3.770     0.022    20.234     6.410
   653   1 H      0.924     0.099     1.794     2.095
   654   6 C      3.805    -0.115    22.696     6.782
   655   1 H      0.925     0.089     1.891     2.150
   656   1 H      0.925     0.103     1.759     2.074
   657   6 C      2.743     0.282    22.224     7.719
   658   8 O      0.857    -0.503    23.847     6.547
   659   7 N      2.635    -0.298    27.678     7.814
   660   1 H      0.860     0.228     0.975     1.546
   661   1 H      0.860     0.241     0.918     1.501
   662   6 C      2.736     0.273    22.390     7.747
   663   8 O      0.856    -0.490    23.557     6.507
   664   7 N      2.686    -0.162    24.512     7.353
   665   1 H      0.860     0.231     0.960     1.535
   666   6 C      3.791     0.026    20.141     6.391
   667   1 H      0.925     0.071     2.071     2.251
   668   6 C      3.751    -0.142    23.291     6.883
   669   1 H      0.925     0.091     1.873     2.140
   670   1 H      0.925     0.081     1.970     2.195
   671   1 H      0.925     0.067     2.122     2.278
   672   6 C      2.750     0.254    22.735     7.808
   673   8 O      0.857    -0.524    24.334     6.614
   674   7 N      2.683    -0.186    25.027     7.430
   675   1 H      0.860     0.227     0.978     1.549
   676   6 C      3.792     0.022    20.215     6.403
   677   1 H      0.925     0.072     2.066     2.248
   678   6 C      3.756    -0.140    23.260     6.876
   679   1 H      0.924     0.082     1.957     2.188
   680   1 H      0.925     0.087     1.910     2.161
   681   1 H      0.925     0.078     2.004     2.214
   682   6 C      2.752     0.272    22.404     7.751
   683   8 O      0.858    -0.493    23.634     6.518
   684   7 N      2.694    -0.190    25.121     7.444
   685   1 H      0.860     0.246     0.899     1.485
   686   6 C      3.794     0.019    20.268     6.411
   687   1 H      0.924     0.087     1.913     2.163
   688   6 C      3.806    -0.085    22.108     6.693
   689   1 H      0.925     0.053     2.287     2.365
   690   1 H      0.925     0.076     2.016     2.221
   691   6 C      3.806    -0.090    22.209     6.709
   692   1 H      0.925     0.083     1.948     2.183
   693   1 H      0.925     0.057     2.238     2.339
   694   6 C      3.804    -0.098    22.371     6.734
   695   1 H      0.925     0.073     2.053     2.241
   696   1 H      0.924     0.083     1.948     2.183
   697   6 C      3.734    -0.050    21.568     6.628
   698   1 H      0.924     0.130     1.534     1.937
   699   1 H      0.925     0.109     1.701     2.040
   700   7 N      3.488    -0.152    24.275     7.318
   701   1 H      0.860     0.295     0.728     1.337
   702   1 H      0.860     0.293     0.735     1.343
   703   1 H      0.860     0.297     0.721     1.331
   704   6 C      2.754     0.271    22.421     7.754
   705   8 O      0.859    -0.528    24.420     6.626
   706   7 N      2.681    -0.184    24.991     7.425
   707   1 H      0.860     0.242     0.914     1.497
   708   6 C      3.782     0.007    20.480     6.447
   709   1 H      0.925     0.060     2.195     2.317
   710   6 C      3.680     0.081    19.429     6.313
   711   1 H      0.924     0.029     2.607     2.525
   712   1 H      0.924     0.061     2.186     2.312
   713   8 O      1.659    -0.443    21.699     6.288
   714   1 H      0.807     0.345     0.599     1.215
   715   6 C      2.746     0.265    22.532     7.772
   716   8 O      0.859    -0.520    24.230     6.600
   717   7 N      2.698    -0.180    24.889     7.410
   718   1 H      0.860     0.227     0.978     1.549
   719   6 C      3.793     0.034    20.006     6.370
   720   1 H      0.925     0.070     2.084     2.257
   721   6 C      3.805    -0.054    21.545     6.608
   722   1 H      0.924     0.054     2.277     2.360
   723   1 H      0.925     0.055     2.260     2.351
   724   6 C      3.803    -0.080    22.029     6.682
   725   1 H      0.925     0.024     2.673     2.557
   726   1 H      0.924     0.053     2.277     2.360
   727   6 C      2.689     0.353    21.010     7.501
   728   8 O      0.856    -0.663    27.714     7.058
   729   8 O      0.855    -0.665    27.760     7.064
   730   6 C      2.757     0.283    22.201     7.716
   731   8 O      0.861    -0.457    22.842     6.408
   732   7 N      2.684    -0.215    25.696     7.529
   733   1 H      0.860     0.209     1.061     1.614
   734   6 C      3.782     0.025    20.172     6.398
   735   1 H      0.924     0.072     2.069     2.249
   736   6 C      3.806    -0.082    22.062     6.687
   737   1 H      0.924     0.047     2.354     2.399
   738   1 H      0.925     0.081     1.971     2.195
   739   6 C      3.849    -0.011    20.744     6.478
   740   1 H      0.924     0.024     2.678     2.559
   741   6 C      3.756    -0.119    22.839     6.814
   742   1 H      0.924     0.056     2.252     2.347
   743   1 H      0.925     0.022     2.707     2.573
   744   1 H      0.924     0.052     2.299     2.371
   745   6 C      3.760    -0.133    23.104     6.852
   746   1 H      0.924     0.045     2.380     2.413
   747   1 H      0.925     0.064     2.158     2.297
   748   1 H      0.925     0.060     2.195     2.317
   749   6 C      2.737     0.283    22.211     7.716
   750   8 O      0.861    -0.493    23.626     6.517
   751   7 N      2.685    -0.189    25.103     7.441
   752   1 H      0.860     0.226     0.983     1.553
   753   6 C      3.776     0.041    19.908     6.357
   754   1 H      0.924     0.068     2.108     2.270
   755   6 C      3.792    -0.101    22.438     6.746
   756   1 H      0.924     0.030     2.582     2.513
   757   1 H      0.925     0.052     2.300     2.372
   758   6 C      2.684     0.377    20.611     7.430
   759   8 O      0.857    -0.647    27.309     7.006
   760   8 O      0.857    -0.631    26.882     6.951
   761   6 C      2.746     0.273    22.383     7.747
   762   8 O      0.857    -0.531    24.478     6.633
   763   7 N      2.692    -0.174    24.769     7.392
   764   1 H      0.860     0.201     1.102     1.645
   765   6 C      3.794     0.037    19.962     6.362
   766   1 H      0.924     0.077     2.005     2.214
   767   6 C      3.812    -0.074    21.911     6.663
   768   1 H      0.925     0.058     2.228     2.334
   769   1 H      0.924     0.058     2.226     2.333
   770   6 C      3.804    -0.071    21.854     6.655
   771   1 H      0.925     0.064     2.155     2.295
   772   1 H      0.925     0.054     2.275     2.359
   773   6 C      3.805    -0.097    22.340     6.729
   774   1 H      0.925     0.078     1.996     2.209
   775   1 H      0.925     0.087     1.913     2.163
   776   6 C      3.731    -0.052    21.595     6.633
   777   1 H      0.925     0.123     1.589     1.971
   778   1 H      0.925     0.115     1.654     2.011
   779   7 N      3.488    -0.147    24.161     7.300
   780   1 H      0.860     0.308     0.691     1.302
   781   1 H      0.860     0.290     0.745     1.352
   782   1 H      0.860     0.304     0.700     1.311
   783   6 C      2.750     0.264    22.540     7.774
   784   8 O      0.860    -0.507    23.942     6.560
   785   7 N      2.680    -0.177    24.824     7.400
   786   1 H      0.860     0.206     1.074     1.623
   787   6 C      3.787     0.025    20.161     6.395
   788   1 H      0.924     0.089     1.893     2.151
   789   6 C      3.756    -0.128    23.021     6.841
   790   1 H      0.925     0.056     2.243     2.342
   791   1 H      0.925     0.073     2.049     2.239
   792   1 H      0.924     0.077     2.013     2.219
   793   6 C      2.746     0.277    22.312     7.734
   794   8 O      0.857    -0.495    23.683     6.525
   795   7 N      2.678    -0.203    25.419     7.488
   796   1 H      0.860     0.220     1.009     1.573
   797   6 C      3.781     0.011    20.419     6.437
   798   1 H      0.925     0.103     1.761     2.076
   799   6 C      3.838    -0.019    20.890     6.502
   800   1 H      0.925     0.067     2.117     2.276
   801   6 C      3.747    -0.104    22.549     6.773
   802   1 H      0.925     0.016     2.794     2.614
   803   1 H      0.924     0.060     2.200     2.320
   804   1 H      0.925     0.039     2.466     2.456
   805   6 C      3.794    -0.066    21.771     6.644
   806   1 H      0.924     0.041     2.430     2.438
   807   1 H      0.925     0.057     2.238     2.339
   808   6 C      3.749    -0.118    22.829     6.815
   809   1 H      0.925     0.045     2.383     2.414
   810   1 H      0.925     0.052     2.291     2.367
   811   1 H      0.925     0.043     2.415     2.430
   812   6 C      2.747     0.275    22.343     7.740
   813   8 O      0.859    -0.479    23.335     6.477
   814   7 N      2.683    -0.180    24.896     7.411
   815   1 H      0.860     0.201     1.103     1.645
   816   6 C      3.735    -0.021    21.045     6.547
   817   1 H      0.924     0.100     1.783     2.088
   818   1 H      0.925     0.091     1.873     2.140
   819   6 C      2.747     0.263    22.563     7.778
   820   8 O      0.857    -0.527    24.403     6.623
   821   7 N      2.681    -0.144    24.129     7.295
   822   1 H      0.860     0.205     1.082     1.629
   823   6 C      3.795     0.023    20.193     6.399
   824   1 H      0.924     0.070     2.087     2.259
   825   6 C      3.809    -0.078    21.982     6.674
   826   1 H      0.924     0.075     2.030     2.228
   827   1 H      0.925     0.067     2.119     2.277
   828   6 C      3.797    -0.067    21.784     6.646
   829   1 H      0.924     0.049     2.329     2.387
   830   1 H      0.925     0.070     2.086     2.259
   831   6 C      3.738    -0.017    20.968     6.534
   832   1 H      0.925     0.078     1.997     2.210
   833   1 H      0.924     0.078     2.001     2.212
   834   7 N      2.692    -0.186    25.029     7.430
   835   1 H      0.860     0.235     0.944     1.522
   836   6 C      2.732     0.242    22.947     7.843
   837   7 N      2.694    -0.258    26.693     7.673
   838   1 H      0.860     0.252     0.877     1.467
   839   1 H      0.860     0.249     0.886     1.474
   840   7 N      2.686    -0.275    27.117     7.734
   841   1 H      0.860     0.240     0.923     1.505
   842   1 H      0.860     0.239     0.929     1.510
   843   6 C      2.750     0.279    22.278     7.729
   844   8 O      0.858    -0.458    22.870     6.412
   845   7 N      2.687    -0.202    25.400     7.485
   846   1 H      0.860     0.204     1.085     1.632
   847   6 C      3.793     0.043    19.866     6.347
   848   1 H      0.925     0.085     1.929     2.172
   849   6 C      3.811    -0.108    22.547     6.759
   850   1 H      0.925     0.093     1.850     2.127
   851   1 H      0.925     0.079     1.986     2.204
   852   6 C      2.746     0.290    22.091     7.696
   853   8 O      0.871    -0.504    23.863     6.550
   854   7 N      2.652    -0.281    27.262     7.755
   855   1 H      0.860     0.255     0.863     1.456
   856   1 H      0.860     0.220     1.010     1.574
   857   6 C      2.748     0.270    22.446     7.758
   858   8 O      0.864    -0.489    23.531     6.504
   859   7 N      2.685    -0.181    24.917     7.414
   860   1 H      0.860     0.187     1.175     1.698
   861   6 C      3.786     0.011    20.405     6.434
   862   1 H      0.925     0.121     1.605     1.981
   863   6 C      3.795    -0.023    20.985     6.523
   864   1 H      0.925     0.062     2.180     2.309
   865   1 H      0.925     0.107     1.725     2.054
   866  16 S      1.898    -0.242   151.436    20.712
   867   1 H      0.923     0.135     1.498     1.914
   868   6 C      2.746     0.264    22.544     7.774
   869   8 O      0.858    -0.460    22.907     6.417
   870   7 N      2.686    -0.169    24.656     7.375
   871   1 H      0.860     0.204     1.084     1.631
   872   6 C      3.798     0.016    20.316     6.418
   873   1 H      0.924     0.103     1.757     2.073
   874   6 C      3.805    -0.106    22.521     6.756
   875   1 H      0.924     0.078     1.996     2.210
   876   1 H      0.924     0.080     1.983     2.202
   877   6 C      2.742     0.291    22.072     7.692
   878   8 O      0.862    -0.484    23.434     6.490
   879   7 N      2.642    -0.261    26.770     7.684
   880   1 H      0.860     0.257     0.856     1.449
   881   1 H      0.860     0.232     0.955     1.531
   882   6 C      2.755     0.266    22.509     7.769
   883   8 O      0.863    -0.463    22.972     6.426
   884   7 N      2.691    -0.150    24.236     7.312
   885   1 H      0.860     0.184     1.189     1.708
   886   6 C      3.737    -0.055    21.653     6.640
   887   1 H      0.925     0.127     1.558     1.952
   888   1 H      0.925     0.095     1.833     2.117
   889   6 C      2.748     0.274    22.366     7.744
   890   8 O      0.859    -0.448    22.672     6.384
   891   7 N      2.686    -0.152    24.283     7.319
   892   1 H      0.860     0.202     1.096     1.640
   893   6 C      3.795     0.009    20.437     6.437
   894   1 H      0.924     0.093     1.854     2.130
   895   6 C      3.846    -0.026    21.009     6.520
   896   1 H      0.924     0.069     2.096     2.264
   897   6 C      3.764    -0.121    22.859     6.815
   898   1 H      0.925     0.049     2.327     2.386
   899   1 H      0.925     0.050     2.319     2.381
   900   1 H      0.925     0.030     2.589     2.516
   901   6 C      3.762    -0.126    22.964     6.831
   902   1 H      0.924     0.027     2.627     2.534
   903   1 H      0.925     0.065     2.146     2.291
   904   1 H      0.925     0.048     2.342     2.393
   905   6 C      2.747     0.266    22.501     7.767
   906   8 O      0.858    -0.491    23.591     6.512
   907   7 N      2.681    -0.188    25.084     7.438
   908   1 H      0.860     0.233     0.951     1.528
   909   6 C      3.780     0.009    20.445     6.441
   910   1 H      0.925     0.068     2.108     2.271
   911   6 C      3.837    -0.030    21.076     6.531
   912   1 H      0.924     0.045     2.383     2.414
   913   6 C      3.741    -0.125    22.988     6.841
   914   1 H      0.925     0.070     2.090     2.261
   915   1 H      0.924     0.034     2.534     2.489
   916   1 H      0.925     0.043     2.407     2.426
   917   6 C      3.804    -0.063    21.712     6.634
   918   1 H      0.925     0.040     2.449     2.447
   919   1 H      0.925     0.064     2.152     2.294
   920   6 C      3.749    -0.120    22.868     6.820
   921   1 H      0.925     0.057     2.230     2.335
   922   1 H      0.925     0.032     2.559     2.502
   923   1 H      0.924     0.039     2.456     2.451
   924   6 C      2.746     0.272    22.395     7.749
   925   8 O      0.862    -0.463    22.980     6.427
   926   7 N      2.693    -0.192    25.172     7.451
   927   1 H      0.860     0.214     1.039     1.597
   928   6 C      3.795     0.009    20.427     6.436
   929   1 H      0.925     0.096     1.819     2.109
   930   6 C      3.723     0.110    18.880     6.205
   931   1 H      0.924     0.043     2.404     2.425
   932   6 C      3.751    -0.144    23.339     6.890
   933   1 H      0.925     0.062     2.181     2.310
   934   1 H      0.924     0.073     2.050     2.239
   935   1 H      0.925     0.060     2.202     2.320
   936   8 O      1.654    -0.507    23.033     6.479
   937   1 H      0.805     0.330     0.638     1.255
   938   6 C      2.752     0.274    22.359     7.743
   939   8 O      0.860    -0.472    23.173     6.454
   940   7 N      2.681    -0.202    25.392     7.484
   941   1 H      0.860     0.207     1.071     1.621
   942   6 C      3.761    -0.012    20.832     6.506
   943   1 H      0.924     0.111     1.691     2.034
   944   6 C      3.773    -0.089    22.234     6.719
   945   1 H      0.924     0.065     2.143     2.289
   946   1 H      0.924     0.100     1.785     2.089
   947   6 C      3.792    -0.082    22.073     6.691
   948   1 H      0.924     0.084     1.943     2.180
   949   1 H      0.925     0.035     2.510     2.478
   950   6 C      3.801    -0.095    22.318     6.726
   951   1 H      0.925     0.117     1.634     1.999
   952   1 H      0.925     0.087     1.906     2.159
   953   6 C      3.721    -0.049    21.561     6.632
   954   1 H      0.925     0.128     1.554     1.949
   955   1 H      0.925     0.128     1.553     1.949
   956   7 N      3.479    -0.138    23.981     7.273
   957   1 H      0.860     0.261     0.840     1.436
   958   1 H      0.860     0.290     0.743     1.350
   959   1 H      0.860     0.276     0.790     1.392
   960   6 C      2.748     0.275    22.355     7.742
   961   8 O      0.862    -0.468    23.089     6.443
   962   7 N      2.701    -0.189    25.102     7.441
   963   1 H      0.860     0.206     1.076     1.625
   964   6 C      3.801     0.045    19.818     6.338
   965   1 H      0.925     0.057     2.238     2.340
   966   6 C      3.821    -0.097    22.338     6.726
   967   1 H      0.924     0.029     2.600     2.522
   968   1 H      0.925     0.042     2.424     2.435
   969   6 C      2.684     0.373    20.686     7.443
   970   8 O      0.857    -0.623    26.683     6.926
   971   8 O      0.856    -0.667    27.815     7.071
   972   6 C      2.750     0.283    22.199     7.715
   973   8 O      0.861    -0.510    24.007     6.569
   974   7 N      2.688    -0.190    25.120     7.444
   975   1 H      0.860     0.202     1.096     1.640
   976   6 C      3.780     0.020    20.256     6.412
   977   1 H      0.925     0.073     2.058     2.243
   978   6 C      3.804    -0.067    21.788     6.645
   979   1 H      0.925     0.069     2.102     2.267
   980   1 H      0.925     0.080     1.984     2.203
   981   6 C      3.799    -0.096    22.330     6.728
   982   1 H      0.925     0.036     2.497     2.471
   983   1 H      0.925     0.037     2.495     2.470
   984   6 C      2.687     0.373    20.684     7.443
   985   8 O      0.856    -0.628    26.811     6.942
   986   8 O      0.858    -0.551    24.939     6.696
   987   6 C      2.742     0.259    22.644     7.791
   988   8 O      0.860    -0.474    23.205     6.459
   989   7 N      2.685    -0.181    24.914     7.413
   990   1 H      0.860     0.221     1.003     1.569
   991   6 C      3.778     0.022    20.222     6.407
   992   1 H      0.924     0.097     1.816     2.108
   993   6 C      3.752    -0.135    23.149     6.861
   994   1 H      0.925     0.094     1.837     2.119
   995   1 H      0.925     0.073     2.053     2.241
   996   1 H      0.925     0.070     2.083     2.257
   997   6 C      2.739     0.259    22.634     7.790
   998   8 O      0.857    -0.475    23.247     6.464
   999   7 N      2.688    -0.202    25.380     7.482
  1000   1 H      0.860     0.224     0.990     1.558
  1001   6 C      3.797     0.028    20.108     6.385
  1002   1 H      0.925     0.081     1.970     2.195
  1003   6 C      3.817    -0.042    21.307     6.570
  1004   1 H      0.925     0.025     2.654     2.548
  1005   1 H      0.924     0.041     2.436     2.441
  1006   6 C      3.806    -0.103    22.454     6.746
  1007   1 H      0.925     0.056     2.251     2.346
  1008   1 H      0.925     0.033     2.540     2.492
  1009   6 C      2.685     0.361    20.868     7.476
  1010   8 O      0.857    -0.650    27.390     7.017
  1011   8 O      0.858    -0.635    26.994     6.966
  1012   6 C      2.747     0.273    22.384     7.747
  1013   8 O      0.859    -0.472    23.173     6.454
  1014   7 N      2.683    -0.200    25.346     7.477
  1015   1 H      0.860     0.194     1.135     1.669
  1016   6 C      3.782     0.014    20.354     6.427
  1017   1 H      0.925     0.073     2.055     2.242
  1018   6 C      3.797    -0.075    21.937     6.669
  1019   1 H      0.924     0.065     2.136     2.285
  1020   1 H      0.925     0.055     2.255     2.348
  1021   6 C      3.807    -0.070    21.829     6.651
  1022   1 H      0.924     0.058     2.228     2.334
  1023   1 H      0.925     0.050     2.316     2.380
  1024   6 C      3.802    -0.093    22.265     6.718
  1025   1 H      0.925     0.082     1.954     2.186
  1026   1 H      0.924     0.075     2.031     2.229
  1027   6 C      3.732    -0.056    21.669     6.644
  1028   1 H      0.925     0.126     1.563     1.955
  1029   1 H      0.924     0.124     1.585     1.969
  1030   7 N      3.486    -0.148    24.194     7.305
  1031   1 H      0.860     0.312     0.678     1.290
  1032   1 H      0.860     0.295     0.727     1.336
  1033   1 H      0.860     0.291     0.741     1.349
  1034   6 C      2.748     0.278    22.298     7.732
  1035   8 O      0.860    -0.468    23.095     6.443
  1036   7 N      2.682    -0.207    25.508     7.501
  1037   1 H      0.860     0.232     0.959     1.534
  1038   6 C      3.802     0.017    20.291     6.413
  1039   1 H      0.925     0.084     1.940     2.178
  1040   6 C      3.805    -0.088    22.182     6.705
  1041   1 H      0.925     0.055     2.263     2.353
  1042   1 H      0.924     0.059     2.211     2.326
  1043   6 C      3.841    -0.020    20.898     6.503
  1044   1 H      0.924     0.058     2.221     2.331
  1045   6 C      3.749    -0.130    23.062     6.849
  1046   1 H      0.925     0.048     2.349     2.397
  1047   1 H      0.924     0.055     2.259     2.351
  1048   1 H      0.925     0.065     2.144     2.290
  1049   6 C      3.760    -0.122    22.893     6.821
  1050   1 H      0.924     0.059     2.212     2.326
  1051   1 H      0.924     0.035     2.511     2.478
  1052   1 H      0.925     0.030     2.589     2.516
  1053   6 C      2.752     0.274    22.369     7.745
  1054   8 O      0.856    -0.521    24.254     6.603
  1055   7 N      2.696    -0.189    25.109     7.442
  1056   1 H      0.860     0.238     0.933     1.513
  1057   6 C      3.791     0.026    20.142     6.392
  1058   1 H      0.924     0.069     2.097     2.265
  1059   6 C      3.819    -0.088    22.167     6.700
  1060   1 H      0.925     0.063     2.159     2.298
  1061   1 H      0.925     0.097     1.816     2.108
  1062   6 C      2.967     0.002    27.973     8.675
  1063   6 C      2.909    -0.041    29.014     8.832
  1064   1 H      0.926     0.035     2.511     2.478
  1065   6 C      2.912    -0.031    28.785     8.798
  1066   1 H      0.926     0.039     2.467     2.456
  1067   6 C      2.900    -0.040    29.002     8.830
  1068   1 H      0.926     0.037     2.495     2.470
  1069   6 C      2.912    -0.037    28.911     8.817
  1070   1 H      0.926     0.053     2.277     2.360
  1071   6 C      2.916    -0.050    29.244     8.868
  1072   1 H      0.926     0.040     2.445     2.445
  1073   6 C      2.760     0.280    22.259     7.726
  1074   8 O      0.859    -0.519    24.205     6.596
  1075   7 N      2.684    -0.182    24.945     7.418
  1076   1 H      0.860     0.239     0.928     1.509
  1077   6 C      3.802     0.036    19.968     6.362
  1078   1 H      0.925     0.079     1.987     2.204
  1079   6 C      3.809    -0.105    22.495     6.751
  1080   1 H      0.925     0.079     1.992     2.207
  1081   1 H      0.924     0.097     1.817     2.108
  1082   6 C      2.749     0.291    22.074     7.693
  1083   8 O      0.879    -0.528    24.394     6.623
  1084   7 N      2.659    -0.256    26.645     7.666
  1085   1 H      0.860     0.252     0.874     1.464
  1086   1 H      0.860     0.221     1.004     1.569
  1087   6 C      2.743     0.270    22.434     7.755
  1088   8 O      0.858    -0.516    24.137     6.587
  1089   7 N      2.678    -0.180    24.901     7.411
  1090   1 H      0.860     0.216     1.026     1.587
  1091   6 C      3.777     0.029    20.103     6.388
  1092   1 H      0.925     0.084     1.938     2.177
  1093   6 C      3.792    -0.060    21.669     6.629
  1094   1 H      0.925     0.074     2.043     2.235
  1095   1 H      0.924     0.072     2.059     2.244
  1096   6 C      3.802    -0.105    22.504     6.754
  1097   1 H      0.924     0.070     2.088     2.260
  1098   1 H      0.925     0.060     2.195     2.317
  1099   6 C      2.742     0.289    22.096     7.697
  1100   8 O      0.867    -0.494    23.654     6.521
  1101   7 N      2.643    -0.292    27.522     7.792
  1102   1 H      0.860     0.254     0.868     1.459
  1103   1 H      0.860     0.233     0.951     1.528
  1104   6 C      2.749     0.264    22.551     7.776
  1105   8 O      0.857    -0.527    24.397     6.622
  1106   7 N      2.681    -0.161    24.481     7.348
  1107   1 H      0.860     0.214     1.039     1.597
  1108   6 C      3.781     0.044    19.855     6.348
  1109   1 H      0.925     0.078     2.002     2.213
  1110   6 C      3.799    -0.088    22.171     6.704
  1111   1 H      0.925     0.042     2.420     2.433
  1112   1 H      0.924     0.040     2.445     2.445
  1113   6 C      2.688     0.377    20.611     7.430
  1114   8 O      0.857    -0.631    26.897     6.953
  1115   8 O      0.858    -0.597    26.054     6.844
  1116   6 C      2.746     0.255    22.707     7.803
  1117   8 O      0.857    -0.514    24.087     6.580
  1118   7 N      2.682    -0.182    24.951     7.419
  1119   1 H      0.860     0.208     1.068     1.619
  1120   6 C      3.799     0.023    20.188     6.397
  1121   1 H      0.924     0.087     1.906     2.159
  1122   6 C      3.857    -0.017    20.834     6.492
  1123   1 H      0.924     0.035     2.521     2.483
  1124   6 C      3.759    -0.118    22.812     6.809
  1125   1 H      0.925     0.072     2.068     2.249
  1126   1 H      0.924     0.058     2.225     2.333
  1127   1 H      0.925     0.043     2.412     2.428
  1128   6 C      3.760    -0.114    22.738     6.798
  1129   1 H      0.924     0.052     2.300     2.372
  1130   1 H      0.925     0.037     2.484     2.465
  1131   1 H      0.925     0.058     2.228     2.334
  1132   6 C      2.752     0.279    22.284     7.730
  1133   8 O      0.859    -0.464    22.999     6.430
  1134   7 N      2.687    -0.194    25.203     7.456
  1135   1 H      0.860     0.192     1.147     1.678
  1136   6 C      3.785     0.039    19.929     6.359
  1137   1 H      0.924     0.069     2.093     2.263
  1138   6 C      3.797    -0.091    22.248     6.716
  1139   1 H      0.924     0.020     2.733     2.585
  1140   1 H      0.925     0.044     2.392     2.418
  1141   6 C      2.687     0.365    20.801     7.464
  1142   8 O      0.857    -0.619    26.584     6.913
  1143   8 O      0.857    -0.615    26.500     6.902
  1144   6 C      2.755     0.278    22.296     7.732
  1145   8 O      0.859    -0.462    22.952     6.423
  1146   7 N      2.689    -0.166    24.597     7.366
  1147   1 H      0.860     0.182     1.200     1.716
  1148   6 C      3.799     0.020    20.236     6.405
  1149   1 H      0.925     0.091     1.869     2.138
  1150   6 C      3.752    -0.129    23.045     6.846
  1151   1 H      0.925     0.080     1.979     2.200
  1152   1 H      0.924     0.072     2.065     2.247
  1153   1 H      0.924     0.041     2.432     2.439
  1154   6 C      2.753     0.280    22.265     7.727
  1155   8 O      0.860    -0.441    22.524     6.363
  1156   7 N      2.686    -0.208    25.517     7.502
  1157   1 H      0.860     0.199     1.111     1.651
  1158   6 C      3.788     0.030    20.081     6.382
[...]
  2290  O   1.954        C 2289 1.603    N 2291 0.196
  2291  N   3.485        C 2289 1.309    C 2293 0.967    H 2292 0.921    O 2290 0.196
  2292  H   0.958        N 2291 0.921
  2293  C   3.957        C 2295 1.002    N 2291 0.967    H 2294 0.945    C 2313 0.902
  2294  H   0.992        C 2293 0.945
  2295  C   3.989        C 2298 1.013    C 2293 1.002    H 2297 0.962    H 2296 0.954
  2296  H   0.993        C 2295 0.954
  2297  H   0.995        C 2295 0.962
  2298  C   3.987        C 2295 1.013    C 2301 1.013    H 2300 0.959    H 2299 0.957
  2299  H   0.994        C 2298 0.957
  2300  H   0.993        C 2298 0.959
  2301  C   3.953        C 2298 1.013    N 2304 0.967    H 2303 0.960    H 2302 0.958
  2302  H   0.994        C 2301 0.958
  2303  H   0.994        C 2301 0.960
  2304  N   3.481        C 2306 1.353    C 2301 0.967    H 2305 0.872    N 2310 0.111    N 2307 0.103
  2305  H   0.940        N 2304 0.872
  2306  C   3.980        N 2304 1.353    N 2310 1.307    N 2307 1.284
  2307  N   3.372        C 2306 1.284    H 2309 0.925    H 2308 0.923    N 2304 0.103
  2308  H   0.944        N 2307 0.923
  2309  H   0.948        N 2307 0.925
  2310  N   3.369        C 2306 1.307    H 2311 0.920    H 2312 0.869    N 2304 0.111
  2311  H   0.946        N 2310 0.920
  2312  H   0.932        N 2310 0.869
  2313  C   3.955        O 2314 1.637    N 2315 1.333    C 2293 0.902
  2314  O   1.975        C 2313 1.637    N 2315 0.199
  2315  N   3.478        C 2313 1.333    C 2317 0.959    H 2316 0.906    O 2314 0.199
  2316  H   0.954        N 2315 0.906
  2317  C   3.950        C 2319 0.991    N 2315 0.959    C 2323 0.949    H 2318 0.945
  2318  H   0.988        C 2317 0.945
  2319  C   3.979        C 2317 0.991    H 2321 0.979    H 2320 0.975    H 2322 0.974
  2320  H   0.996        C 2319 0.975
  2321  H   0.995        C 2319 0.979
  2322  H   0.992        C 2319 0.974
  2323  C   3.953        O 2324 1.578    N 2325 1.331    C 2317 0.949
  2324  O   1.934        C 2323 1.578    N 2325 0.194
  2325  N   3.500        C 2323 1.331    C 2327 0.991    H 2326 0.896    O 2324 0.194
  2326  H   0.950        N 2325 0.896
  2327  C   3.954        N 2325 0.991    C 2329 0.969    H 2328 0.941    C 2345 0.939
  2328  H   0.988        C 2327 0.941
  2329  C   3.974        C 2332 0.996    H 2330 0.976    C 2327 0.969    H 2331 0.961
  2330  H   0.997        C 2329 0.976
  2331  H   0.991        C 2329 0.961
  2332  C   3.986        C 2335 1.011    C 2329 0.996    H 2334 0.978    H 2333 0.972
  2333  H   0.994        C 2332 0.972
  2334  H   0.997        C 2332 0.978
  2335  C   3.982        C 2332 1.011    C 2338 1.004    H 2336 0.970    H 2337 0.964
  2336  H   0.994        C 2335 0.970
  2337  H   0.990        C 2335 0.964
  2338  C   3.901        C 2335 1.004    H 2340 0.964    H 2339 0.960    N 2341 0.952
  2339  H   0.980        C 2338 0.960
  2340  H   0.985        C 2338 0.964
  2341  N   3.653        C 2338 0.952    H 2344 0.896    H 2343 0.896    H 2342 0.890
  2342  H   0.912        N 2341 0.890
  2343  H   0.909        N 2341 0.896
  2344  H   0.917        N 2341 0.896
  2345  C   3.935        O 2346 1.581    N 2347 1.318    C 2327 0.939
  2346  O   1.961        C 2345 1.581    N 2347 0.189
  2347  N   3.469        C 2345 1.318    C 2349 0.961    H 2348 0.893    O 2346 0.189
  2348  H   0.950        N 2347 0.893
  2349  C   3.964        C 2351 0.996    N 2347 0.961    H 2350 0.954    C 2369 0.931
  2350  H   0.993        C 2349 0.954
  2351  C   3.983        C 2354 1.000    C 2349 0.996    H 2353 0.967    H 2352 0.966
  2352  H   0.996        C 2351 0.966
  2353  H   0.995        C 2351 0.967
  2354  C   3.991        C 2351 1.000    C 2357 0.994    H 2356 0.976    H 2355 0.968
  2355  H   0.995        C 2354 0.968
  2356  H   0.997        C 2354 0.976
  2357  C   3.956        C 2354 0.994    N 2360 0.984    H 2358 0.965    H 2359 0.959
  2358  H   0.995        C 2357 0.965
  2359  H   0.996        C 2357 0.959
  2360  N   3.423        C 2362 1.285    C 2357 0.984    H 2361 0.864
  2361  H   0.947        N 2360 0.864
  2362  C   3.978        N 2363 1.344    N 2366 1.316    N 2360 1.285
  2363  N   3.390        C 2362 1.344    H 2365 0.918    H 2364 0.844    N 2366 0.109
  2364  H   0.931        N 2363 0.844
  2365  H   0.947        N 2363 0.918
  2366  N   3.375        C 2362 1.316    H 2367 0.895    H 2368 0.878    N 2363 0.109
  2367  H   0.934        N 2366 0.895
  2368  H   0.938        N 2366 0.878
  2369  C   3.954        O 2370 1.572    N 2371 1.369    C 2349 0.931
  2370  O   1.932        C 2369 1.572    N 2371 0.198
  2371  N   3.515        C 2369 1.369    C 2373 0.979    H 2372 0.894    O 2370 0.198
  2372  H   0.944        N 2371 0.894
  2373  C   3.951        N 2371 0.979    C 2375 0.961    H 2374 0.956    C 2385 0.906
  2374  H   0.996        C 2373 0.956
  2375  C   3.986        C 2381 1.011    C 2377 1.009    C 2373 0.961    H 2376 0.958
  2376  H   0.996        C 2375 0.958
  2377  C   3.991        C 2375 1.009    H 2380 0.983    H 2378 0.977    H 2379 0.976
  2378  H   0.997        C 2377 0.977
  2379  H   0.996        C 2377 0.976
  2380  H   0.998        C 2377 0.983
  2381  C   3.991        C 2375 1.011    H 2382 0.981    H 2384 0.981    H 2383 0.980
  2382  H   0.999        C 2381 0.981
  2383  H   0.997        C 2381 0.980
  2384  H   0.998        C 2381 0.981
  2385  C   3.953        O 2386 1.668    N 2387 1.303    C 2373 0.906
  2386  O   1.996        C 2385 1.668    N 2387 0.201
  2387  N   3.447        C 2385 1.303    C 2389 0.954    H 2388 0.885    O 2386 0.201
  2388  H   0.947        N 2387 0.885
  2389  C   3.949        C 2391 0.958    N 2387 0.954    C 2404 0.954    H 2390 0.944
  2390  H   0.989        C 2389 0.944
  2391  C   3.982        C 2393 1.000    C 2397 1.000    H 2392 0.960    C 2389 0.958
  2392  H   0.996        C 2391 0.960
  2393  C   3.988        C 2391 1.000    H 2396 0.984    H 2394 0.984    H 2395 0.978
  2394  H   0.999        C 2393 0.984
  2395  H   0.994        C 2393 0.978
  2396  H   0.998        C 2393 0.984
  2397  C   3.988        C 2400 1.009    C 2391 1.000    H 2398 0.971    H 2399 0.970
  2398  H   0.997        C 2397 0.971
  2399  H   0.996        C 2397 0.970
  2400  C   3.989        C 2397 1.009    H 2402 0.985    H 2401 0.983    H 2403 0.982
  2401  H   0.997        C 2400 0.983
  2402  H   0.998        C 2400 0.985
  2403  H   0.997        C 2400 0.982
  2404  C   3.946        O 2405 1.555    N 2406 1.354    C 2389 0.954
  2405  O   1.880        C 2404 1.555    N 2406 0.183
  2406  N   3.480        C 2404 1.354    C 2408 0.954    H 2407 0.891    O 2405 0.183
  2407  H   0.952        N 2406 0.891
  2408  C   3.960        C 2410 0.969    N 2406 0.954    H 2409 0.948    C 2418 0.937
  2409  H   0.990        C 2408 0.948
  2410  C   3.968        O 2416 1.006    C 2412 0.995    C 2408 0.969    H 2411 0.959
  2411  H   1.000        C 2410 0.959
  2412  C   3.986        C 2410 0.995    H 2414 0.986    H 2415 0.982    H 2413 0.982
  2413  H   0.994        C 2412 0.982
  2414  H   0.999        C 2412 0.986
  2415  H   0.994        C 2412 0.982
  2416  O   1.944        C 2410 1.006    H 2417 0.831
  2417  H   0.885        O 2416 0.831
  2418  C   3.948        O 2419 1.645    N 2420 1.287    C 2408 0.937
  2419  O   1.981        C 2418 1.645    N 2420 0.194
  2420  N   3.455        C 2418 1.287    C 2422 0.969    H 2421 0.921    O 2419 0.194
  2421  H   0.962        N 2420 0.921
  2422  C   3.955        N 2420 0.969    C 2432 0.950    H 2423 0.945    C 2424 0.944
  2423  H   0.992        C 2422 0.945
  2424  C   3.953        O 2430 1.002    C 2426 0.999    H 2425 0.962    C 2422 0.944
  2425  H   0.999        C 2424 0.962
  2426  C   3.985        C 2424 0.999    H 2428 0.983    H 2427 0.983    H 2429 0.980
  2427  H   0.996        C 2426 0.983
  2428  H   0.996        C 2426 0.983
  2429  H   0.995        C 2426 0.980
  2430  O   1.946        C 2424 1.002    H 2431 0.846
  2431  H   0.895        O 2430 0.846
  2432  C   3.956        O 2433 1.571    N 2434 1.360    C 2422 0.950
  2433  O   1.885        C 2432 1.571    N 2434 0.196
  2434  N   3.497        C 2432 1.360    C 2436 0.946    H 2435 0.909    O 2433 0.196
  2435  H   0.955        N 2434 0.909
  2436  C   3.945        C 2438 0.973    N 2434 0.946    H 2437 0.945    C 2452 0.944
  2437  H   0.988        C 2436 0.945
  2438  C   3.985        C 2441 1.017    C 2436 0.973    H 2440 0.968    H 2439 0.948
  2439  H   0.991        C 2438 0.948
  2440  H   0.995        C 2438 0.968
  2441  C   3.987        C 2450 1.414    C 2442 1.391    C 2438 1.017    C 2446 0.114
  2442  C   3.987        C 2444 1.457    C 2441 1.391    H 2443 0.962    C 2448 0.109
  2443  H   0.998        C 2442 0.962
  2444  C   3.989        C 2442 1.457    C 2446 1.429    H 2445 0.962    C 2450 0.108
  2445  H   0.995        C 2444 0.962
  2446  C   3.991        C 2448 1.441    C 2444 1.429    H 2447 0.970    C 2441 0.114
  2447  H   0.998        C 2446 0.970
  2448  C   3.990        C 2450 1.443    C 2446 1.441    H 2449 0.968    C 2442 0.109
  2449  H   0.998        C 2448 0.968
  2450  C   3.991        C 2448 1.443    C 2441 1.414    H 2451 0.967    C 2444 0.108
  2451  H   0.999        C 2450 0.967
  2452  C   3.954        O 2453 1.584    N 2454 1.349    C 2436 0.944
  2453  O   1.916        C 2452 1.584    N 2454 0.194
  2454  N   3.497        C 2452 1.349    C 2456 0.965    H 2455 0.909    O 2453 0.194
  2455  H   0.952        N 2454 0.909
  2456  C   3.958        C 2458 0.986    N 2454 0.965    H 2457 0.950    C 2476 0.937
  2457  H   0.990        C 2456 0.950
  2458  C   3.979        C 2456 0.986    C 2461 0.985    H 2459 0.973    H 2460 0.969
  2459  H   0.994        C 2458 0.973
  2460  H   0.993        C 2458 0.969
  2461  C   3.985        C 2464 1.017    C 2458 0.985    H 2462 0.974    H 2463 0.973
  2462  H   0.996        C 2461 0.974
  2463  H   0.997        C 2461 0.973
  2464  C   3.961        C 2461 1.017    N 2467 0.984    H 2465 0.963    H 2466 0.960
  2465  H   0.995        C 2464 0.963
  2466  H   0.993        C 2464 0.960
  2467  N   3.403        C 2469 1.242    C 2464 0.984    H 2468 0.899
  2468  H   0.953        N 2467 0.899
  2469  C   3.978        N 2470 1.360    N 2473 1.343    N 2467 1.242
  2470  N   3.420        C 2469 1.360    H 2472 0.911    H 2471 0.903    N 2473 0.117
  2471  H   0.929        N 2470 0.903
  2472  H   0.935        N 2470 0.911
  2473  N   3.406        C 2469 1.343    H 2474 0.911    H 2475 0.878    N 2470 0.117
  2474  H   0.935        N 2473 0.911
  2475  H   0.936        N 2473 0.878
  2476  C   3.948        O 2477 1.671    N 2478 1.269    C 2456 0.937
  2477  O   1.982        C 2476 1.671    N 2478 0.199
  2478  N   3.447        C 2476 1.269    C 2480 0.984    H 2479 0.909    O 2477 0.199
  2479  H   0.951        N 2478 0.909
  2480  C   3.970        N 2478 0.984    C 2482 0.959    H 2481 0.952    C 2490 0.932
  2481  H   0.993        C 2480 0.952
  2482  C   3.962        C 2484 1.026    O 2488 0.973    C 2480 0.959    H 2483 0.956
  2483  H   0.999        C 2482 0.956
  2484  C   3.979        C 2482 1.026    H 2486 0.972    H 2485 0.970    H 2487 0.970
  2485  H   0.992        C 2484 0.970
  2486  H   0.996        C 2484 0.972
  2487  H   0.996        C 2484 0.970
  2488  O   1.932        C 2482 0.973    H 2489 0.882
  2489  H   0.897        O 2488 0.882
  2490  C   3.950        O 2491 1.652    N 2492 1.289    C 2480 0.932
  2491  O   1.964        C 2490 1.652    N 2492 0.197
  2492  N   3.464        C 2490 1.289    C 2494 0.991    H 2493 0.919    O 2491 0.197
  2493  H   0.952        N 2492 0.919
  2494  C   3.963        N 2492 0.991    C 2497 0.964    H 2495 0.950    H 2496 0.945
  2495  H   0.989        C 2494 0.950
  2496  H   0.988        C 2494 0.945
  2497  C   3.951        O 2498 1.664    N 2499 1.266    C 2494 0.964
  2498  O   1.978        C 2497 1.664    N 2499 0.197
  2499  N   3.445        C 2497 1.266    C 2501 0.978    H 2500 0.929    O 2498 0.197
  2500  H   0.958        N 2499 0.929
  2501  C   3.966        N 2499 0.978    H 2502 0.951    C 2511 0.941    C 2503 0.937
  2502  H   0.992        C 2501 0.951
  2503  C   3.952        O 2509 0.999    C 2505 0.998    H 2504 0.957    C 2501 0.937
  2504  H   0.998        C 2503 0.957
  2505  C   3.986        C 2503 0.998    H 2508 0.982    H 2507 0.981    H 2506 0.978
  2506  H   0.997        C 2505 0.978
  2507  H   0.997        C 2505 0.981
  2508  H   0.995        C 2505 0.982
  2509  O   1.951        C 2503 0.999    H 2510 0.857
  2510  H   0.888        O 2509 0.857
  2511  C   3.952        O 2512 1.667    N 2513 1.278    C 2501 0.941
  2512  O   1.982        C 2511 1.667    N 2513 0.192
  2513  N   3.436        C 2511 1.278    C 2515 0.961    H 2514 0.925    O 2512 0.192
  2514  H   0.956        N 2513 0.925
  2515  C   3.951        C 2517 0.978    N 2513 0.961    H 2516 0.939    C 2535 0.925
  2516  H   0.989        C 2515 0.939
  2517  C   3.977        C 2520 0.996    C 2515 0.978    H 2519 0.971    H 2518 0.957
  2518  H   0.994        C 2517 0.957
  2519  H   0.997        C 2517 0.971
  2520  C   3.970        C 2521 1.627    C 2534 1.189    C 2517 0.996
  2521  C   3.952        C 2520 1.627    N 2523 1.170    H 2522 0.963
  2522  H   0.995        C 2521 0.963
  2523  N   3.515        C 2525 1.184    C 2521 1.170    H 2524 0.931
  2524  H   0.958        N 2523 0.931
  2525  C   3.960        C 2526 1.323    C 2534 1.271    N 2523 1.184
  2526  C   3.981        C 2528 1.478    C 2525 1.323    H 2527 0.967    C 2532 0.125
  2527  H   0.996        C 2526 0.967
  2528  C   3.988        C 2526 1.478    C 2530 1.382    H 2529 0.968
  2529  H   0.996        C 2528 0.968
  2530  C   3.990        C 2532 1.505    C 2528 1.382    H 2531 0.962
  2531  H   0.999        C 2530 0.962
  2532  C   3.990        C 2530 1.505    C 2534 1.304    H 2533 0.970    C 2526 0.125
  2533  H   1.000        C 2532 0.970
  2534  C   3.980        C 2532 1.304    C 2525 1.271    C 2520 1.189
  2535  C   3.931        O 2536 1.577    N 2537 1.338    C 2515 0.925
  2536  O   1.926        C 2535 1.577    N 2537 0.187
  2537  N   3.496        C 2535 1.338    C 2539 0.988    H 2538 0.903    O 2536 0.187
  2538  H   0.949        N 2537 0.903
  2539  C   3.967        N 2537 0.988    C 2541 0.965    H 2540 0.946    C 2547 0.922
  2540  H   0.996        C 2539 0.946
  2541  C   3.985        H 2542 0.979    C 2539 0.965    H 2543 0.965    C 2544 0.947
  2542  H   0.998        C 2541 0.979
  2543  H   0.995        C 2541 0.965
  2544  C   3.936        O 2546 1.493    O 2545 1.479    C 2541 0.947
  2545  O   1.767        C 2544 1.479    O 2546 0.221
  2546  O   1.783        C 2544 1.493    O 2545 0.221
  2547  C   3.937        O 2548 1.645    N 2549 1.281    C 2539 0.922
  2548  O   1.962        C 2547 1.645    N 2549 0.189
  2549  N   3.459        C 2547 1.281    C 2551 0.989    H 2550 0.912    O 2548 0.189
  2550  H   0.950        N 2549 0.912
  2551  C   3.961        N 2549 0.989    C 2553 0.987    H 2552 0.944    C 2557 0.935
  2552  H   0.995        C 2551 0.944
  2553  C   3.979        C 2551 0.987    H 2556 0.982    H 2554 0.981    H 2555 0.978
  2554  H   0.994        C 2553 0.981
  2555  H   0.993        C 2553 0.978
  2556  H   0.995        C 2553 0.982
  2557  C   3.952        O 2558 1.590    N 2559 1.351    C 2551 0.935
  2558  O   1.900        C 2557 1.590    N 2559 0.196
  2559  N   3.487        C 2557 1.351    C 2561 0.956    H 2560 0.882    O 2558 0.196
  2560  H   0.952        N 2559 0.882
  2561  C   3.956        C 2563 0.976    N 2559 0.956    H 2562 0.943    C 2578 0.930
  2562  H   0.996        C 2561 0.943
  2563  C   3.984        C 2566 1.003    C 2561 0.976    H 2564 0.963    H 2565 0.960
  2564  H   0.996        C 2563 0.963
  2565  H   0.996        C 2563 0.960
  2566  C   3.982        C 2567 1.440    C 2576 1.378    C 2563 1.003
  2567  C   3.988        C 2566 1.440    C 2569 1.431    H 2568 0.968
  2568  H   0.998        C 2567 0.968
  2569  C   3.980        C 2567 1.431    C 2571 1.342    H 2570 0.970    C 2576 0.121
  2570  H   0.995        C 2569 0.970
  2571  C   3.945        C 2569 1.342    C 2574 1.340    O 2572 1.144
  2572  O   2.163        C 2571 1.144    H 2573 0.803
  2573  H   0.878        O 2572 0.803
  2574  C   3.984        C 2576 1.457    C 2571 1.340    H 2575 0.968
  2575  H   0.999        C 2574 0.968
  2576  C   3.988        C 2574 1.457    C 2566 1.378    H 2577 0.969    C 2569 0.121
  2577  H   0.999        C 2576 0.969
  2578  C   3.945        O 2579 1.615    N 2580 1.315    C 2561 0.930
  2579  O   1.928        C 2578 1.615    N 2580 0.189
  2580  N   3.457        C 2578 1.315    C 2582 0.943    H 2581 0.919    O 2579 0.189
  2581  H   0.965        N 2580 0.919
  2582  C   3.950        C 2584 0.982    H 2583 0.965    N 2580 0.943    C 2600 0.933
  2583  H   0.997        C 2582 0.965
  2584  C   3.992        C 2587 1.007    C 2582 0.982    H 2586 0.976    H 2585 0.973
  2585  H   0.999        C 2584 0.973
  2586  H   0.996        C 2584 0.976
  2587  C   3.990        C 2584 1.007    C 2590 0.995    H 2589 0.977    H 2588 0.974
  2588  H   0.998        C 2587 0.974
  2589  H   1.000        C 2587 0.977
  2590  C   3.989        C 2593 1.017    C 2587 0.995    H 2592 0.973    H 2591 0.969
  2591  H   0.993        C 2590 0.969
  2592  H   0.996        C 2590 0.973
  2593  C   3.921        C 2590 1.017    H 2594 0.966    N 2596 0.961    H 2595 0.958
  2594  H   0.988        C 2593 0.966
  2595  H   0.982        C 2593 0.958
  2596  N   3.633        C 2593 0.961    H 2597 0.891    H 2598 0.887    H 2599 0.873
  2597  H   0.906        N 2596 0.891
  2598  H   0.916        N 2596 0.887
  2599  H   0.895        N 2596 0.873
  2600  C   3.936        O 2602 1.498    O 2601 1.473    C 2582 0.933
  2601  O   1.767        C 2600 1.473    O 2602 0.223
  2602  O   1.794        C 2600 1.498    O 2601 0.223
  2603  O   2.046        C 2605 1.075    H 2604 0.792
  2604  H   0.877        O 2603 0.792
  2605  C   3.952        C 2614 1.396    C 2606 1.342    O 2603 1.075
  2606  C   3.982        C 2608 1.427    C 2605 1.342    H 2607 0.960    C 2612 0.116
  2607  H   0.995        C 2606 0.960
  2608  C   3.915        C 2606 1.427    C 2610 1.399    Cl2609 0.971
  2609  Cl  1.115        C 2608 0.971
  2610  C   3.984        C 2612 1.425    C 2608 1.399    H 2611 0.963
  2611  H   0.998        C 2610 0.963
  2612  C   3.986        C 2614 1.435    C 2610 1.425    H 2613 0.966    C 2606 0.116
  2613  H   0.996        C 2612 0.966
  2614  C   3.985        C 2612 1.435    C 2605 1.396    H 2615 0.963
  2615  H   0.995        C 2614 0.963

molecular dipole:
                 x           y           z       tot (Debye)
 q only:      546.063     678.003     647.382
   full:      547.382     680.403     656.809    2777.343
molecular quadrupole (traceless):
                xx          xy          yy          xz          yz          zz
 q only:   -16645.236   65363.243   13174.830   60422.221   78176.263    3470.406
  q+dip:   -17328.985   65290.633   12476.331   61388.399   79371.159    4852.654
   full:   -17320.430   65289.162   12461.516   61383.440   79369.024    4858.914


           -------------------------------------------------
          | TOTAL ENERGY            -4109.277933299428 Eh   |
          | GRADIENT NORM               1.340306405872 Eh/α |
          | HOMO-LUMO GAP               1.628300990481 eV   |
           -------------------------------------------------

------------------------------------------------------------------------
 * finished run on 2020/07/25 at 23:16:33.493     
------------------------------------------------------------------------
 total:
 * wall-time:     0 d,  0 h,  7 min, 15.918 sec
 *  cpu-time:     0 d,  5 h, 27 min,  4.277 sec
 * ratio c/w:    45.018 speedup
 SCF:
 * wall-time:     0 d,  0 h,  6 min, 47.475 sec
 *  cpu-time:     0 d,  5 h, 18 min, 17.415 sec
 * ratio c/w:    46.868 speedup

