      -----------------------------------------------------------      
     |                   =====================                   |     
     |                           x T B                           |     
     |                   =====================                   |     
     |                         S. Grimme                         |     
     |          Mulliken Center for Theoretical Chemistry        |     
     |                    University of Bonn                     |     
      -----------------------------------------------------------      

   * xtb version 6.2.3 (d7bf61a) compiled by 'conda@06d140edd85e' on 2020-05-12

   xtb is free software: you can redistribute it and/or modify it under
   the terms of the GNU Lesser General Public License as published by
   the Free Software Foundation, either version 3 of the License, or
   (at your option) any later version.
   
   xtb is distributed in the hope that it will be useful,
   but WITHOUT ANY WARRANTY; without even the implied warranty of
   MERCHANTABILITY or FITNESS FOR A PARTICULAR PURPOSE.  See the
   GNU Lesser General Public License for more details.
   
   Cite this work as:
   * S. Grimme, C. Bannwarth, P. Shushkov, J. Chem. Theory Comput., 2017,
     13, 1989-2009. DOI: 10.1021/acs.jctc.7b00118
   * C. Bannwarth, S. Ehlert and S. Grimme., J. Chem. Theory Comput., 2019,
     15, 1652-1671. DOI: 10.1021/acs.jctc.8b01176
   * P. Pracht, E. Caldeweyher, S. Ehlert, S. Grimme, ChemRxiv, 2019, preprint.
     DOI: 10.26434/chemrxiv.8326202.v1
   
   for DFT-D4:
   * E. Caldeweyher, C. Bannwarth and S. Grimme, J. Chem. Phys., 2017,
     147, 034112. DOI: 10.1063/1.4993215
   * E. Caldeweyher, S. Ehlert, A. Hansen, H. Neugebauer, S. Spicher,
     C. Bannwarth and S. Grimme, J. Chem. Phys., 2019, 150, 154122.
     DOI: 10.1063/1.5090222
   
   for sTDA-xTB:
   * S. Grimme and C. Bannwarth, J. Chem. Phys., 2016, 145, 054103.
     DOI: 10.1063/1.4959605
   
   in the mass-spec context:
   * V. Asgeirsson, C. Bauer and S. Grimme, Chem. Sci., 2017, 8, 4879.
     DOI: 10.1039/c7sc00601b
   
   for metadynamics refer to:
   * S. Grimme, J. Chem. Theory Comput., 2019, 155, 2847-2862
     DOI: 10.1021/acs.jctc.9b00143
   
   with help from (in alphabetical order)
   C. Bannwarth, F. Bohle, G. Brandenburg, E. Caldeweyher, M. Checinski,
   S. Dohm, S. Ehlert, S. Ehrlich, F. März, H. Neugebauer, J. Pisarek,
   P. Pracht, P. Shushkov, and S. Spicher.
   
 * started run on 2020/07/25 at 19:52:30.227     

           -------------------------------------------------
          |                Calculation Setup                |
           -------------------------------------------------

          program call               : xtb complex_25941.xyz --chrg +9 --uhf 0 --gbsa water
          hostname                   : gold54.cluster.local
          coordinate file            : complex_25941.xyz
          omp threads                :                    64
          number of atoms            :                  2615
          number of electrons        :                  7234
          charge                     :                     9
          spin                       :                   0.0
          first test random number   :      0.71025844542697


molecular fragmentation (1/2 indicates fragments):
111111111111111111111111111111111111111111111111111111111111111111111111
111111111111111111111111111111111111111111111111111111111111111111111111
111111111111111111111111111111111111111111111111111111111111111111111111
111111111111111111111111111111111111111111111111111111111111111111111111
111111111111111111111111111111111111111111111111111111111111111111111111
111111111111111111111111111111111111111111111111111111111111111111111111
111111111111111111111111111111111111111111111111111111111111111111111111
111111111111111111111111111111111111111111111111111111111111111111111111
111111111111111111111111111111111111111111111111111111111111111111111111
111111111111111111111111111111111111111111111111111111111111111111111111
111111111111111111111111111111111111111111111111111111111111111111111111
111111111111111111111111111111111111111111111111111111111111111111111111
111111111111111111111111111111111111111111111111111111111111111111111111
111111111111111111111111111111111111111111111111111111111111111111111111
111111111111111111111111111111111111111111111111111111111111111111111111
111111111111111111111111111111111111111111111111111111111111111111111111
111111111111111111111111111111111111111111111111111111111111111111111111
111111111111111111111111111111111111111111111111111111111111111111111111
111111111111111111111111111111111111111111111111111111111111111111111111
111111111111111111111111111111111111111111111111111111111111111111111111
111111111111111111111111111111111111111111111111111111111111111111111111
111111111111111111111111111111111111111111111111111111111111111111111111
111111111111111111111111111111111111111111111111111111111111111111111111
111111111111111111111111111111111111111111111111111111111111111111111111
111111111111111111111111111111111111111111111111111111111111111111111111
111111111111111111111111111111111111111111111111111111111111111111111111
111111111111111111111111111111111111111111111111111111111111111111111111
111111111111111111111111111111111111111111111111111111111111111111111111
111111111111111111111111111111111111111111111111111111111111111111111111
111111111111111111111111111111111111111111111111111111111111111111111111
111111111111111111111111111111111111111111111111111111111111111111111111
111111111111111111111111111111111111111111111111111111111111111111111111
111111111111111111111111111111111111111111111111111111111111111111111111
111111111111111111111111111111111111111111111111111111111111111111111111
111111111111111111111111111111111111111111111111111111111111111111111111
111111111111111111111111111111111111111111111111111111111111111111111111
11111111112222222222222
# atoms in fragment 1/2:  2602    13
 fragment masses (1/2) :    18371.93      128.56
CMA distance (Bohr)    :  22.056
constraining FC (au)   :  0.0500
########################################################################
[WARNING] Please study the warnings concerning your input carefully
-2- prog_main: XTBPATH is not set, using XTBHOME instead
-1- prog_main: XTBHOME is not set, using HOME instead
########################################################################
           ------------------------------------------------- 
          |                 G F N 2 - x T B                 |
          | Geometry, Frequencies, Noncovalent interactions |
          |            JCTC 2019 parametrisation            |
           ------------------------------------------------- 
             k(s)              :                1.8500
             k(p)              :                2.2300
             k(d)              :                2.2300
             k(f)              :                2.0000
             kEN (H0ij)        :               -2.0000
             D4 a1             :                0.5200
             D4 a2             :                5.0000
             D4 s6             :                1.0000
             D4 s8             :                2.7000
             D4 s9             :                5.0000
             alphaj            :                2.0000

  Z AO/shell   Hii/eV     exponent
  1     Wed Apr 25 08:07:45 CEST 2018   EN: 2.200 GM2: 0.406  GM3: 0.0800  RAES: 1.40
     1s    -10.707211    1.230000
  6     Wed Apr 25 08:07:45 CEST 2018   EN: 2.550 GM2: 0.538  GM3: 0.1500  RAES: 3.00
     2s    -13.970922    2.096432
     2p    -10.063292    1.800000
  7     Wed Apr 25 08:07:45 CEST 2018   EN: 3.040 GM2: 0.461  GM3:-0.0640  RAES: 1.90
     2s    -16.686243    2.339881
     2p    -12.523956    2.014332
  8     Wed Apr 25 08:07:45 CEST 2018   EN: 3.440 GM2: 0.452  GM3:-0.0517  RAES: 1.80
     2s    -20.229985    2.439742
     2p    -15.503117    2.137023
 16     Tue Apr 24 11:44:34 CEST 2018   EN: 2.580 GM2: 0.340  GM3:-0.0502  RAES: 3.10
     3s    -20.029654    1.981333
     3p    -11.377694    2.025643
     3d     -0.420282    1.702555
 17     Mon Apr 23 14:09:22 CEST 2018   EN: 3.160 GM2: 0.249  GM3: 0.1495  RAES: 2.50
     3s    -29.278781    2.485265
     3p    -12.673758    2.199650
     3d     -0.240338    2.476089

 Solvent             : water
 Using internal parameter file: .param_gbsa2_water
 Gsolv ref. state (COSMO-RS): gsolv [1 M gas/solution]
 temperature (mdtemp)       :    298.14999999999998     
 dielectric constant        :    80.200000000000003     
 rho                        :    1.0000000000000000     
 mass                       :    18.000000000000000     
 surface tension            :    15.568945408385856     
 probe radius               :   0.97531378999999996     
 Gshift (Eh)                :    1.8574431267947933E-003
 c1                         :    1.5524381700000001     
 soset                      :   0.13032636000000000     
 HB correction              :  T
           ------------------------------------------------- 
          |        Self-Consistent Charge Iterations        |
           ------------------------------------------------- 

          ...................................................
          :                      SETUP                      :
          :.................................................:
          :  # basis functions                6554          :
          :  # atomic orbitals                6547          :
          :  # shells                         3921          :
          :  # electrons                      7234          :
          :  max. iterations                   250          :
          :  Hamiltonian                  GFN2-xTB          :
          :  restarted?                      false          :
          :  GBSA solvation                   true          :
          :  PC potential                    false          :
          :  electronic temp.          300.0000000     K    :
          :  accuracy                    1.0000000          :
          :  -> integral cutoff          0.2500000E+02      :
          :  -> integral neglect         0.1000000E-07      :
          :  -> SCF convergence          0.1000000E-05 Eh   :
          :  -> wf. convergence          0.1000000E-03 e    :
          :  Broyden damping             0.4000000          :
          ...................................................

 iter      E             dE          RMSdq      gap      omega  full diag
   1  -4144.6988387 -0.414470E+04  0.427E+00    2.20       0.0  T
   2  -4156.9933705 -0.122945E+02  0.226E+00    2.15       1.0  T
   3  -4157.4853567 -0.491986E+00  0.120E+00    2.31       1.0  T
   4  -4157.5567707 -0.714140E-01  0.298E-01    1.83       1.0  T
   5  -4157.6644421 -0.107671E+00  0.150E-01    1.92       1.0  T
   6  -4157.6808291 -0.163870E-01  0.808E-02    1.88       1.0  T
   7  -4157.6842724 -0.344326E-02  0.436E-02    1.83       1.0  T
   8  -4157.6857494 -0.147702E-02  0.196E-02    1.79       1.0  T
   9  -4157.6860259 -0.276534E-03  0.117E-02    1.77       1.0  T
  10  -4157.6861298 -0.103907E-03  0.594E-03    1.75       1.0  T
  11  -4157.6861545 -0.246841E-04  0.302E-03    1.74       1.0  T
  12  -4157.6861630 -0.845715E-05  0.163E-03    1.74       1.2  T
  13  -4157.6861652 -0.223447E-05  0.911E-04    1.74       2.1  T
  14  -4157.6861659 -0.702868E-06  0.496E-04    1.74       3.9  T
  15  -4157.6861661 -0.212171E-06  0.289E-04    1.74       6.8  T

   *** convergence criteria satisfied after 15 iterations ***

         #    Occupation            Energy/Eh            Energy/eV
      -------------------------------------------------------------
         1        2.0000           -1.0363769             -28.2013
       ...           ...                  ...                  ...
      3611        2.0000           -0.3604353              -9.8079
      3612        2.0000           -0.3601102              -9.7991
      3613        2.0000           -0.3582802              -9.7493
      3614        2.0000           -0.3576777              -9.7329
      3615        2.0000           -0.3566583              -9.7052
      3616        2.0000           -0.3509527              -9.5499
      3617        2.0000           -0.3477477              -9.4627 (HOMO)
      3618                         -0.2838091              -7.7228 (LUMO)
      3619                         -0.2812158              -7.6523
      3620                         -0.2744182              -7.4673
      3621                         -0.2706959              -7.3660
      3622                         -0.2679323              -7.2908
       ...                                ...                  ...
      6547                          0.7583023              20.6345
      -------------------------------------------------------------
                  HL-Gap            0.0639386 Eh            1.7399 eV
             Fermi-level           -0.3157784 Eh           -8.5928 eV

 SCC (total)                   0 d,  0 h,  6 min, 33.898 sec
 SCC setup                      ...        0 min,  3.182 sec (  0.808%)
 Dispersion                     ...        0 min,  1.968 sec (  0.500%)
 integral evaluation            ...        0 min,  8.906 sec (  2.261%)
 zeroth order Hamiltonian       ...        0 min,  0.346 sec (  0.088%)
 iterations                     ...        6 min,  1.211 sec ( 91.702%)
 molecular gradient             ...        0 min, 17.636 sec (  4.477%)
 printout                       ...        0 min,  0.649 sec (  0.165%)

         :::::::::::::::::::::::::::::::::::::::::::::::::::::
         ::                     SUMMARY                     ::
         :::::::::::::::::::::::::::::::::::::::::::::::::::::
         :: total energy           -4109.244684418301 Eh    ::
         :: total w/o Gsasa/hb     -4108.853607242516 Eh    ::
         :: gradient norm              1.320728981239 Eh/a0 ::
         :: HOMO-LUMO gap              1.739857551467 eV    ::
         ::.................................................::
         :: SCC energy             -4157.745339881084 Eh    ::
         :: -> isotropic ES           14.505764853708 Eh    ::
         :: -> anisotropic ES         -0.798813158509 Eh    ::
         :: -> anisotropic XC          1.179088351004 Eh    ::
         :: -> dispersion             -3.920455871212 Eh    ::
         :: -> Gsolv                  -4.344879316457 Eh    ::
         ::    -> Gborn               -3.953802140672 Eh    ::
         ::    -> Gsasa               -0.061031221810 Eh    ::
         ::    -> Ghb                 -0.331903397102 Eh    ::
         ::    -> Gshift               0.001857443127 Eh    ::
         :: repulsion energy          47.950182660211 Eh    ::
         :: add. restraining           0.000000000000 Eh    ::
         :::::::::::::::::::::::::::::::::::::::::::::::::::::

           -------------------------------------------------
          |                Property Printout                |
           -------------------------------------------------

    * Orbital Energies and Occupations

         #    Occupation            Energy/Eh            Energy/eV
      -------------------------------------------------------------
         1        2.0000           -1.0363769             -28.2013
       ...           ...                  ...                  ...
      3605        2.0000           -0.3640023              -9.9050
      3606        2.0000           -0.3638033              -9.8996
      3607        2.0000           -0.3636746              -9.8961
      3608        2.0000           -0.3635322              -9.8922
      3609        2.0000           -0.3607440              -9.8163
      3610        2.0000           -0.3606131              -9.8128
      3611        2.0000           -0.3604353              -9.8079
      3612        2.0000           -0.3601102              -9.7991
      3613        2.0000           -0.3582802              -9.7493
      3614        2.0000           -0.3576777              -9.7329
      3615        2.0000           -0.3566583              -9.7052
      3616        2.0000           -0.3509527              -9.5499
      3617        2.0000           -0.3477477              -9.4627 (HOMO)
      3618                         -0.2838091              -7.7228 (LUMO)
      3619                         -0.2812158              -7.6523
      3620                         -0.2744182              -7.4673
      3621                         -0.2706959              -7.3660
      3622                         -0.2679323              -7.2908
      3623                         -0.2677911              -7.2870
      3624                         -0.2674310              -7.2772
      3625                         -0.2641510              -7.1879
      3626                         -0.2634929              -7.1700
      3627                         -0.2629144              -7.1543
      3628                         -0.2621878              -7.1345
       ...                                ...                  ...
      6547                          0.7583023              20.6345
      -------------------------------------------------------------
                  HL-Gap            0.0639386 Eh            1.7399 eV
             Fermi-level           -0.3157784 Eh           -8.5928 eV

     #   Z        covCN         q      C6AA      α(0)
     1   7 N      3.491    -0.138    23.985     7.274
     2   1 H      0.860     0.310     0.685     1.296
     3   1 H      0.860     0.308     0.691     1.302
     4   1 H      0.860     0.288     0.749     1.356
     5   6 C      3.798    -0.042    21.325     6.575
     6   1 H      0.925     0.121     1.607     1.983
     7   6 C      3.860    -0.107    22.501     6.746
     8   1 H      0.924     0.112     1.682     2.028
     9   1 H      0.925     0.111     1.689     2.033
    10   6 C      3.792    -0.033    21.164     6.551
    11   1 H      0.925     0.084     1.939     2.178
    12   1 H      0.925     0.059     2.208     2.324
    13  16 S      1.986    -0.193   149.271    20.563
    14   6 C      3.737    -0.061    21.752     6.655
    15   1 H      0.925     0.036     2.500     2.473
    16   1 H      0.924     0.032     2.559     2.502
    17   1 H      0.925     0.063     2.159     2.298
    18   6 C      2.760     0.263    22.565     7.779
    19   8 O      0.862    -0.437    22.429     6.350
    20   7 N      2.697    -0.162    24.494     7.350
    21   1 H      0.860     0.223     0.996     1.563
    22   6 C      3.798     0.019    20.264     6.410
    23   1 H      0.924     0.099     1.796     2.096
    24   6 C      3.815    -0.117    22.731     6.786
    25   1 H      0.924     0.088     1.896     2.154
    26   1 H      0.924     0.109     1.704     2.041
    27   6 C      2.737     0.286    22.158     7.707
    28   8 O      0.870    -0.503    23.846     6.547
    29   7 N      2.647    -0.265    26.868     7.698
    30   1 H      0.860     0.229     0.967     1.541
    31   1 H      0.860     0.227     0.978     1.550
    32   6 C      2.758     0.274    22.372     7.745
    33   8 O      0.859    -0.506    23.908     6.556
    34   7 N      2.686    -0.169    24.662     7.376
    35   1 H      0.860     0.234     0.950     1.527
    36   6 C      3.777     0.013    20.390     6.433
    37   1 H      0.925     0.086     1.921     2.167
    38   6 C      3.840    -0.042    21.294     6.565
    39   1 H      0.925     0.089     1.892     2.151
    40   6 C      3.749    -0.136    23.178     6.866
    41   1 H      0.924     0.072     2.058     2.244
    42   1 H      0.925     0.038     2.475     2.460
    43   1 H      0.925     0.054     2.275     2.359
    44   6 C      3.787    -0.076    21.966     6.675
    45   1 H      0.925     0.030     2.590     2.517
    46   1 H      0.924     0.056     2.250     2.346
    47   6 C      3.742    -0.123    22.945     6.834
    48   1 H      0.925     0.046     2.368     2.406
    49   1 H      0.925     0.044     2.393     2.419
    50   1 H      0.924     0.063     2.167     2.302
    51   6 C      2.741     0.278    22.286     7.730
    52   8 O      0.860    -0.514    24.103     6.582
    53   7 N      2.677    -0.179    24.887     7.409
    54   1 H      0.860     0.221     1.005     1.571
    55   6 C      3.785     0.018    20.281     6.415
    56   1 H      0.925     0.081     1.971     2.196
    57   6 C      3.808    -0.078    21.985     6.675
    58   1 H      0.925     0.054     2.267     2.355
    59   1 H      0.924     0.061     2.188     2.313
    60   6 C      2.962     0.014    27.705     8.634
    61   6 C      2.921    -0.037    28.931     8.820
    62   1 H      0.926     0.020     2.734     2.586
    63   6 C      2.921    -0.027    28.668     8.780
    64   1 H      0.926     0.007     2.947     2.684
    65   6 C      2.905    -0.030    28.753     8.792
    66   1 H      0.926     0.024     2.680     2.560
    67   6 C      2.924    -0.035    28.861     8.810
    68   1 H      0.926     0.060     2.201     2.320
    69   6 C      2.913    -0.048    29.188     8.859
    70   1 H      0.926     0.086     1.919     2.166
    71   6 C      2.754     0.285    22.172     7.711
    72   8 O      0.868    -0.486    23.478     6.497
    73   7 N      2.696    -0.176    24.813     7.398
    74   1 H      0.860     0.208     1.067     1.618
    75   6 C      3.784     0.029    20.110     6.388
    76   1 H      0.924     0.072     2.061     2.245
    77   6 C      3.797    -0.067    21.781     6.645
    78   1 H      0.924     0.054     2.269     2.356
    79   1 H      0.924     0.068     2.104     2.268
    80   6 C      3.793    -0.106    22.539     6.761
    81   1 H      0.925     0.040     2.455     2.450
    82   1 H      0.924     0.036     2.509     2.477
    83   6 C      2.682     0.374    20.657     7.438
    84   8 O      0.859    -0.607    26.280     6.873
    85   8 O      0.859    -0.628    26.809     6.942
    86   6 C      2.740     0.266    22.506     7.767
    87   8 O      0.864    -0.489    23.534     6.504
    88   7 N      2.690    -0.201    25.362     7.480
    89   1 H      0.860     0.219     1.016     1.579
    90   6 C      3.782     0.029    20.107     6.388
    91   1 H      0.925     0.073     2.054     2.241
    92   6 C      3.816    -0.065    21.728     6.634
    93   1 H      0.925     0.060     2.205     2.322
    94   1 H      0.925     0.075     2.031     2.229
    95   6 C      3.790    -0.014    20.834     6.501
    96   1 H      0.925     0.041     2.430     2.438
    97   1 H      0.925     0.033     2.540     2.493
    98  16 S      1.948    -0.159   147.784    20.461
    99   6 C      3.743    -0.072    21.951     6.684
   100   1 H      0.925     0.045     2.390     2.417
   101   1 H      0.925     0.090     1.883     2.146
   102   1 H      0.925     0.053     2.288     2.366
   103   6 C      2.754     0.269    22.457     7.760
   104   8 O      0.861    -0.540    24.681     6.661
   105   7 N      2.691    -0.158    24.416     7.339
   106   1 H      0.860     0.221     1.004     1.570
   107   6 C      3.802     0.016    20.312     6.416
   108   1 H      0.925     0.091     1.867     2.137
   109   6 C      3.798    -0.072    21.880     6.660
   110   1 H      0.924     0.055     2.254     2.348
   111   1 H      0.925     0.049     2.328     2.386
   112   6 C      3.831    -0.020    20.907     6.506
   113   1 H      0.925     0.057     2.234     2.337
   114   6 C      3.747    -0.112    22.720     6.799
   115   1 H      0.925     0.045     2.380     2.413
   116   1 H      0.925     0.056     2.250     2.346
   117   1 H      0.925     0.032     2.558     2.501
   118   6 C      3.737    -0.122    22.930     6.833
   119   1 H      0.925     0.050     2.323     2.383
   120   1 H      0.924     0.028     2.613     2.528
   121   1 H      0.924     0.036     2.504     2.475
   122   6 C      2.753     0.277    22.317     7.736
   123   8 O      0.860    -0.468    23.092     6.443
   124   7 N      2.690    -0.191    25.140     7.447
   125   1 H      0.860     0.201     1.099     1.642
   126   6 C      3.790     0.028    20.122     6.388
   127   1 H      0.924     0.082     1.962     2.190
   128   6 C      3.806    -0.073    21.898     6.662
   129   1 H      0.925     0.059     2.214     2.327
   130   1 H      0.925     0.079     1.986     2.204
   131   6 C      3.802    -0.083    22.076     6.689
   132   1 H      0.924     0.061     2.188     2.313
   133   1 H      0.925     0.080     1.983     2.202
   134   6 C      3.733    -0.020    21.022     6.544
   135   1 H      0.925     0.072     2.059     2.244
   136   1 H      0.925     0.086     1.922     2.168
   137   7 N      2.701    -0.166    24.589     7.365
   138   1 H      0.860     0.232     0.958     1.533
   139   6 C      2.733     0.255    22.709     7.802
   140   7 N      2.715    -0.234    26.119     7.590
   141   1 H      0.860     0.217     1.024     1.585
   142   1 H      0.860     0.234     0.946     1.524
   143   7 N      2.709    -0.294    27.572     7.799
   144   1 H      0.860     0.224     0.990     1.558
   145   1 H      0.860     0.254     0.869     1.460
   146   6 C      2.745     0.267    22.489     7.765
   147   8 O      0.858    -0.464    23.009     6.431
   148   7 N      2.682    -0.168    24.645     7.373
   149   1 H      0.860     0.184     1.190     1.709
   150   6 C      3.795     0.006    20.483     6.445
   151   1 H      0.925     0.099     1.791     2.093
   152   6 C      3.851    -0.025    20.977     6.514
   153   1 H      0.925     0.057     2.232     2.336
   154   6 C      3.761    -0.122    22.887     6.820
   155   1 H      0.925     0.054     2.267     2.354
   156   1 H      0.925     0.043     2.413     2.429
   157   1 H      0.925     0.047     2.362     2.403
   158   6 C      3.799    -0.054    21.546     6.609
   159   1 H      0.925     0.023     2.683     2.561
   160   1 H      0.925     0.042     2.424     2.435
   161   6 C      3.749    -0.099    22.464     6.760
   162   1 H      0.925     0.039     2.462     2.454
   163   1 H      0.925     0.036     2.500     2.472
   164   1 H      0.925     0.038     2.473     2.459
   165   6 C      2.745     0.276    22.339     7.739
   166   8 O      0.858    -0.469    23.115     6.446
   167   7 N      2.686    -0.203    25.413     7.487
   168   1 H      0.860     0.187     1.176     1.699
   169   6 C      3.787     0.026    20.158     6.395
   170   1 H      0.925     0.080     1.984     2.203
   171   6 C      3.811    -0.098    22.359     6.731
   172   1 H      0.925     0.045     2.390     2.417
   173   1 H      0.925     0.058     2.222     2.331
   174   6 C      2.692     0.376    20.637     7.435
   175   8 O      0.860    -0.571    25.424     6.760
   176   8 O      0.858    -0.590    25.871     6.819
   177   6 C      2.747     0.273    22.381     7.746
   178   8 O      0.862    -0.469    23.102     6.444
   179   7 N      2.687    -0.167    24.614     7.368
   180   1 H      0.860     0.193     1.142     1.674
   181   6 C      3.783     0.017    20.313     6.420
   182   1 H      0.924     0.084     1.940     2.178
   183   6 C      3.802    -0.059    21.626     6.621
   184   1 H      0.924     0.055     2.259     2.350
   185   1 H      0.925     0.040     2.442     2.444
   186   6 C      3.806    -0.103    22.456     6.746
   187   1 H      0.924     0.025     2.652     2.547
   188   1 H      0.924     0.030     2.589     2.516
   189   6 C      2.691     0.376    20.637     7.435
   190   8 O      0.863    -0.627    26.792     6.940
   191   8 O      0.862    -0.658    27.593     7.043
   192   6 C      2.750     0.263    22.569     7.779
   193   8 O      0.856    -0.470    23.135     6.449
   194   7 N      2.681    -0.165    24.568     7.362
   195   1 H      0.860     0.213     1.042     1.599
   196   6 C      3.740    -0.042    21.397     6.600
   197   1 H      0.925     0.116     1.649     2.008
   198   1 H      0.924     0.084     1.934     2.175
   199   6 C      2.754     0.259    22.638     7.791
   200   8 O      0.861    -0.516    24.151     6.589
   201   7 N      2.695    -0.128    23.776     7.242
   202   1 H      0.860     0.215     1.031     1.591
   203   6 C      3.795     0.022    20.213     6.402
   204   1 H      0.925     0.082     1.959     2.189
   205   6 C      3.808    -0.094    22.278     6.719
   206   1 H      0.924     0.067     2.120     2.277
   207   1 H      0.924     0.057     2.231     2.336
   208   6 C      3.849    -0.011    20.743     6.478
   209   1 H      0.924     0.047     2.355     2.400
   210   6 C      3.767    -0.119    22.809     6.807
   211   1 H      0.925     0.048     2.341     2.393
   212   1 H      0.925     0.033     2.550     2.497
   213   1 H      0.924     0.039     2.457     2.451
   214   6 C      3.762    -0.130    23.044     6.843
   215   1 H      0.925     0.058     2.222     2.331
   216   1 H      0.924     0.040     2.444     2.445
   217   1 H      0.924     0.050     2.315     2.379
   218   6 C      2.743     0.246    22.876     7.831
   219   8 O      0.856    -0.487    23.489     6.498
   220   7 N      2.683    -0.164    24.541     7.357
   221   1 H      0.860     0.218     1.017     1.580
   222   6 C      3.785     0.008    20.464     6.444
   223   1 H      0.924     0.087     1.909     2.161
   224   6 C      3.797    -0.089    22.202     6.709
   225   1 H      0.924     0.094     1.844     2.124
   226   1 H      0.924     0.071     2.074     2.252
   227   6 C      3.791    -0.095    22.327     6.729
   228   1 H      0.924     0.082     1.963     2.191
   229   1 H      0.924     0.083     1.946     2.182
   230   6 C      3.730    -0.028    21.178     6.569
   231   1 H      0.924     0.076     2.020     2.223
   232   1 H      0.925     0.065     2.137     2.286
   233   7 N      2.702    -0.157    24.404     7.337
   234   1 H      0.860     0.243     0.910     1.494
   235   6 C      2.732     0.231    23.151     7.877
   236   7 N      2.669    -0.243    26.337     7.622
   237   1 H      0.860     0.212     1.045     1.602
   238   1 H      0.860     0.241     0.921     1.503
   239   7 N      2.666    -0.241    26.290     7.615
   240   1 H      0.860     0.250     0.883     1.472
   241   1 H      0.860     0.265     0.828     1.425
   242   6 C      2.746     0.255    22.710     7.803
   243   8 O      0.856    -0.489    23.545     6.506
   244   7 N      2.687    -0.156    24.374     7.332
   245   1 H      0.860     0.217     1.023     1.585
   246   6 C      3.786     0.007    20.482     6.446
   247   1 H      0.925     0.093     1.853     2.128
   248   6 C      3.798    -0.087    22.157     6.702
   249   1 H      0.925     0.076     2.023     2.225
   250   1 H      0.925     0.081     1.964     2.192
   251   6 C      3.841    -0.020    20.900     6.503
   252   1 H      0.925     0.023     2.695     2.567
   253   6 C      3.745    -0.132    23.104     6.857
   254   1 H      0.925     0.032     2.552     2.498
   255   1 H      0.924     0.043     2.414     2.430
   256   1 H      0.924     0.053     2.288     2.366
   257   6 C      3.754    -0.132    23.101     6.853
   258   1 H      0.925     0.055     2.256     2.349
   259   1 H      0.925     0.068     2.109     2.271
   260   1 H      0.925     0.037     2.493     2.469
   261   6 C      2.743     0.253    22.743     7.808
   262   8 O      0.856    -0.488    23.523     6.503
   263   7 N      2.678    -0.167    24.623     7.370
   264   1 H      0.860     0.206     1.077     1.626
   265   6 C      3.784     0.009    20.442     6.440
   266   1 H      0.924     0.094     1.845     2.124
   267   6 C      3.805    -0.092    22.251     6.715
   268   1 H      0.925     0.078     2.000     2.211
   269   1 H      0.924     0.065     2.146     2.291
   270   6 C      3.826    -0.090    22.198     6.704
   271   1 H      0.924     0.065     2.142     2.288
   272   1 H      0.924     0.075     2.028     2.227
   273   6 C      3.806    -0.100    22.410     6.739
   274   1 H      0.925     0.091     1.871     2.139
   275   1 H      0.925     0.089     1.890     2.150
   276   6 C      3.767    -0.059    21.677     6.636
   277   1 H      0.924     0.121     1.606     1.982
   278   1 H      0.925     0.120     1.614     1.987
   279   7 N      3.489    -0.157    24.374     7.333
   280   1 H      0.860     0.305     0.700     1.310
   281   1 H      0.860     0.294     0.733     1.341
   282   1 H      0.860     0.298     0.721     1.330
   283   6 C      2.761     0.264    22.552     7.777
   284   8 O      0.859    -0.512    24.046     6.575
   285   7 N      2.684    -0.172    24.716     7.384
   286   1 H      0.860     0.226     0.981     1.551
   287   6 C      3.788     0.006    20.487     6.447
   288   1 H      0.925     0.063     2.165     2.301
   289   6 C      3.839    -0.036    21.191     6.549
   290   1 H      0.925     0.079     1.993     2.208
   291   6 C      3.750    -0.134    23.131     6.859
   292   1 H      0.925     0.068     2.103     2.268
   293   1 H      0.924     0.047     2.360     2.402
   294   1 H      0.925     0.057     2.233     2.337
   295   6 C      3.791    -0.079    22.027     6.684
   296   1 H      0.925     0.052     2.298     2.370
   297   1 H      0.925     0.033     2.548     2.496
   298   6 C      3.750    -0.127    23.001     6.840
   299   1 H      0.925     0.068     2.107     2.270
   300   1 H      0.925     0.024     2.667     2.554
   301   1 H      0.924     0.046     2.376     2.410
   302   6 C      2.753     0.283    22.205     7.716
   303   8 O      0.861    -0.472    23.171     6.454
   304   7 N      2.688    -0.143    24.093     7.290
   305   1 H      0.860     0.214     1.039     1.596
   306   6 C      3.793     0.010    20.410     6.434
   307   1 H      0.924     0.110     1.694     2.036
   308   6 C      3.815    -0.105    22.491     6.750
   309   1 H      0.924     0.099     1.795     2.095
   310   1 H      0.925     0.083     1.947     2.182
   311   6 C      2.968    -0.004    28.112     8.697
   312   6 C      2.925    -0.059    29.463     8.902
   313   1 H      0.926     0.070     2.088     2.260
   314   6 C      2.915    -0.087    30.185     9.009
   315   1 H      0.926     0.042     2.418     2.432
   316   6 C      2.858     0.137    25.001     8.195
   317   8 O      1.661    -0.446    21.758     6.297
   318   1 H      0.805     0.330     0.638     1.254
   319   6 C      2.920    -0.068    29.687     8.935
   320   1 H      0.926     0.037     2.490     2.468
   321   6 C      2.927    -0.053    29.321     8.880
   322   1 H      0.926     0.071     2.079     2.255
   323   6 C      2.748     0.258    22.664     7.795
   324   8 O      0.861    -0.496    23.685     6.525
   325   7 N      2.688    -0.147    24.180     7.303
   326   1 H      0.860     0.227     0.978     1.549
   327   6 C      3.795     0.011    20.392     6.430
   328   1 H      0.925     0.075     2.030     2.228
   329   6 C      3.803    -0.076    21.944     6.669
   330   1 H      0.925     0.045     2.377     2.411
   331   1 H      0.924     0.081     1.967     2.193
   332   6 C      3.803    -0.077    21.960     6.671
   333   1 H      0.925     0.069     2.095     2.264
   334   1 H      0.924     0.040     2.444     2.445
   335   6 C      3.797    -0.096    22.328     6.728
   336   1 H      0.925     0.063     2.159     2.298
   337   1 H      0.925     0.087     1.913     2.163
   338   6 C      3.722    -0.065    21.862     6.678
   339   1 H      0.924     0.143     1.443     1.879
   340   1 H      0.925     0.115     1.655     2.012
   341   7 N      3.481    -0.152    24.285     7.319
   342   1 H      0.860     0.309     0.687     1.299
   343   1 H      0.860     0.290     0.745     1.352
   344   1 H      0.860     0.311     0.680     1.292
   345   6 C      2.760     0.280    22.255     7.725
   346   8 O      0.859    -0.479    23.318     6.474
   347   7 N      2.695    -0.188    25.086     7.439
   348   1 H      0.860     0.217     1.021     1.583
   349   6 C      3.782     0.044    19.851     6.347
   350   1 H      0.924     0.061     2.183     2.311
   351   6 C      3.798    -0.097    22.359     6.733
   352   1 H      0.924     0.019     2.749     2.593
   353   1 H      0.925     0.037     2.483     2.464
   354   6 C      2.678     0.365    20.804     7.464
   355   8 O      0.857    -0.626    26.758     6.935
   356   8 O      0.856    -0.613    26.436     6.894
   357   6 C      2.744     0.272    22.408     7.751
   358   8 O      0.858    -0.486    23.478     6.496
   359   7 N      2.679    -0.190    25.125     7.445
   360   1 H      0.860     0.197     1.123     1.660
   361   6 C      3.777     0.010    20.429     6.440
   362   1 H      0.925     0.093     1.854     2.129
   363   6 C      3.726     0.122    18.688     6.172
   364   1 H      0.925     0.007     2.941     2.682
   365   6 C      3.756    -0.138    23.214     6.870
   366   1 H      0.925     0.080     1.984     2.203
   367   1 H      0.925     0.053     2.282     2.362
   368   1 H      0.924     0.080     1.977     2.199
   369   8 O      1.658    -0.472    22.297     6.374
   370   1 H      0.806     0.336     0.621     1.238
   371   6 C      2.750     0.274    22.369     7.744
   372   8 O      0.864    -0.515    24.115     6.584
   373   7 N      2.690    -0.190    25.131     7.445
   374   1 H      0.860     0.222     1.000     1.566
   375   6 C      3.787     0.025    20.163     6.395
   376   1 H      0.925     0.069     2.097     2.264
   377   6 C      3.798    -0.038    21.259     6.565
   378   1 H      0.925     0.015     2.811     2.622
   379   1 H      0.924     0.037     2.494     2.470
   380   6 C      3.793    -0.096    22.330     6.729
   381   1 H      0.925     0.037     2.484     2.465
   382   1 H      0.925     0.031     2.577     2.510
   383   6 C      2.682     0.369    20.745     7.454
   384   8 O      0.857    -0.601    26.155     6.857
   385   8 O      0.856    -0.671    27.940     7.087
   386   6 C      2.745     0.269    22.451     7.758
   387   8 O      0.857    -0.462    22.964     6.425
   388   7 N      2.678    -0.186    25.029     7.430
   389   1 H      0.860     0.190     1.156     1.684
   390   6 C      3.737    -0.037    21.315     6.588
   391   1 H      0.925     0.106     1.735     2.060
   392   1 H      0.925     0.103     1.755     2.072
   393   6 C      2.745     0.280    22.252     7.724
   394   8 O      0.861    -0.446    22.617     6.376
   395   7 N      2.696    -0.155    24.351     7.329
   396   1 H      0.860     0.169     1.281     1.773
   397   6 C      3.795     0.030    20.082     6.381
   398   1 H      0.925     0.082     1.962     2.190
   399   6 C      3.815    -0.067    21.780     6.642
   400   1 H      0.924     0.067     2.115     2.274
   401   1 H      0.925     0.037     2.493     2.469
   402   6 C      2.952    -0.007    28.202     8.710
   403   6 C      2.966    -0.042    29.031     8.838
   404   1 H      0.926     0.034     2.528     2.487
   405   6 C      2.904    -0.057    29.407     8.892
   406   1 H      0.926     0.067     2.115     2.274
   407   6 C      2.888     0.151    24.728     8.153
   408   8 O      1.661    -0.443    21.692     6.287
   409   1 H      0.805     0.348     0.592     1.208
   410   6 C      2.903    -0.073    29.825     8.955
   411   1 H      0.925     0.059     2.206     2.322
   412   6 C      2.945    -0.045    29.105     8.848
   413   1 H      0.926     0.032     2.554     2.499
   414   6 C      2.752     0.264    22.540     7.774
   415   8 O      0.858    -0.496    23.693     6.526
   416   7 N      2.689    -0.169    24.658     7.375
   417   1 H      0.860     0.209     1.062     1.614
   418   6 C      3.797     0.030    20.066     6.378
   419   1 H      0.925     0.089     1.892     2.151
   420   6 C      3.819    -0.074    21.907     6.661
   421   1 H      0.924     0.083     1.949     2.183
   422   1 H      0.925     0.046     2.371     2.408
   423   6 C      2.968    -0.015    28.378     8.738
   424   6 C      2.927    -0.042    29.049     8.839
   425   1 H      0.926     0.021     2.717     2.578
   426   6 C      2.908    -0.062    29.542     8.912
   427   1 H      0.926     0.031     2.575     2.510
   428   6 C      2.851     0.134    25.070     8.206
   429   8 O      1.659    -0.429    21.429     6.249
   430   1 H      0.808     0.343     0.604     1.221
   431   6 C      2.919    -0.072    29.800     8.952
   432   1 H      0.926     0.092     1.862     2.134
   433   6 C      2.919    -0.046    29.152     8.854
   434   1 H      0.926     0.077     2.005     2.214
   435   6 C      2.756     0.256    22.686     7.800
   436   8 O      0.856    -0.534    24.548     6.643
   437   7 N      2.687    -0.156    24.377     7.333
   438   1 H      0.860     0.248     0.889     1.477
   439   6 C      3.793     0.000    20.584     6.461
   440   1 H      0.925     0.077     2.011     2.217
   441   6 C      3.728     0.116    18.768     6.185
   442   1 H      0.925     0.017     2.778     2.607
   443   6 C      3.752    -0.111    22.675     6.791
   444   1 H      0.925     0.041     2.433     2.439
   445   1 H      0.924     0.043     2.405     2.425
   446   1 H      0.924     0.036     2.510     2.477
   447   8 O      1.656    -0.470    22.254     6.368
   448   1 H      0.805     0.317     0.673     1.289
   449   6 C      2.772     0.270    22.445     7.759
   450   8 O      0.862    -0.437    22.432     6.350
   451   7 N      2.697    -0.172    24.730     7.386
   452   1 H      0.860     0.211     1.050     1.605
   453   6 C      3.802     0.002    20.544     6.453
   454   1 H      0.925     0.110     1.693     2.035
   455   6 C      3.841    -0.037    21.204     6.550
   456   1 H      0.925     0.077     2.013     2.219
   457   6 C      3.751    -0.126    22.972     6.835
   458   1 H      0.925     0.039     2.458     2.452
   459   1 H      0.925     0.060     2.201     2.320
   460   1 H      0.925     0.035     2.516     2.481
   461   6 C      3.791    -0.091    22.245     6.717
   462   1 H      0.925     0.045     2.387     2.416
   463   1 H      0.925     0.067     2.114     2.274
   464   6 C      3.745    -0.124    22.947     6.833
   465   1 H      0.925     0.059     2.215     2.328
   466   1 H      0.925     0.051     2.304     2.373
   467   1 H      0.924     0.039     2.457     2.451
   468   6 C      2.749     0.265    22.529     7.772
   469   8 O      0.859    -0.482    23.380     6.483
   470   7 N      2.684    -0.161    24.480     7.348
   471   1 H      0.860     0.226     0.983     1.553
   472   6 C      3.732    -0.039    21.362     6.597
   473   1 H      0.924     0.060     2.200     2.320
   474   1 H      0.925     0.106     1.729     2.056
   475   6 C      2.738     0.272    22.399     7.749
   476   8 O      0.858    -0.425    22.196     6.317
   477   7 N      2.689    -0.178    24.851     7.404
   478   1 H      0.860     0.193     1.141     1.673
   479   6 C      3.787     0.008    20.459     6.442
   480   1 H      0.925     0.089     1.889     2.149
   481   6 C      3.851    -0.014    20.793     6.486
   482   1 H      0.925     0.040     2.454     2.450
   483   6 C      3.753    -0.108    22.625     6.783
   484   1 H      0.925     0.033     2.546     2.495
   485   1 H      0.925     0.035     2.513     2.479
   486   1 H      0.925     0.051     2.311     2.377
   487   6 C      3.798    -0.066    21.771     6.644
   488   1 H      0.925     0.053     2.286     2.364
   489   1 H      0.925     0.051     2.303     2.373
   490   6 C      3.744    -0.113    22.737     6.802
   491   1 H      0.924     0.028     2.619     2.531
   492   1 H      0.925     0.050     2.314     2.379
   493   1 H      0.925     0.038     2.481     2.463
   494   6 C      2.746     0.266    22.515     7.769
   495   8 O      0.871    -0.476    23.259     6.466
   496   7 N      2.697    -0.172    24.723     7.385
   497   1 H      0.860     0.216     1.027     1.588
   498   6 C      3.737    -0.028    21.150     6.563
   499   1 H      0.925     0.098     1.802     2.099
   500   1 H      0.925     0.110     1.696     2.037
   501   6 C      2.743     0.276    22.338     7.739
   502   8 O      0.859    -0.494    23.662     6.522
   503   7 N      2.685    -0.184    24.986     7.424
   504   1 H      0.860     0.225     0.986     1.556
   505   6 C      3.788     0.028    20.124     6.389
   506   1 H      0.925     0.052     2.290     2.366
   507   6 C      3.808    -0.083    22.082     6.689
   508   1 H      0.925     0.110     1.694     2.035
   509   1 H      0.925     0.090     1.877     2.142
   510   6 C      3.017     0.057    26.692     8.475
   511   7 N      2.866    -0.032    21.858     6.944
   512   1 H      0.860     0.254     0.870     1.461
   513   6 C      2.956     0.072    26.382     8.425
   514   1 H      0.926     0.145     1.426     1.868
   515   7 N      2.803    -0.022    21.677     6.915
   516   1 H      0.860     0.268     0.818     1.417
   517   6 C      3.040    -0.016    28.368     8.736
   518   1 H      0.926     0.129     1.545     1.944
   519   6 C      2.758     0.263    22.566     7.779
   520   8 O      0.860    -0.474    23.216     6.460
   521   7 N      2.697    -0.143    24.105     7.292
   522   1 H      0.860     0.205     1.080     1.628
   523   6 C      3.807     0.021    20.220     6.401
   524   1 H      0.925     0.073     2.054     2.241
   525   6 C      3.815    -0.083    22.077     6.688
   526   1 H      0.924     0.059     2.214     2.327
   527   1 H      0.925     0.056     2.252     2.347
   528   6 C      3.844    -0.024    20.974     6.515
   529   1 H      0.925     0.029     2.594     2.519
   530   6 C      3.747    -0.124    22.954     6.834
   531   1 H      0.925     0.066     2.129     2.282
   532   1 H      0.924     0.052     2.296     2.369
   533   1 H      0.924     0.034     2.525     2.485
   534   6 C      3.758    -0.126    22.966     6.832
   535   1 H      0.925     0.046     2.364     2.404
   536   1 H      0.925     0.064     2.147     2.291
   537   1 H      0.924     0.045     2.385     2.415
   538   6 C      2.755     0.268    22.484     7.765
   539   8 O      0.857    -0.481    23.374     6.482
   540   7 N      2.688    -0.189    25.095     7.440
   541   1 H      0.860     0.217     1.026     1.586
   542   6 C      3.804     0.029    20.087     6.381
   543   1 H      0.925     0.081     1.969     2.195
   544   6 C      3.838    -0.075    21.903     6.658
   545   1 H      0.924     0.044     2.398     2.422
   546   1 H      0.925     0.062     2.177     2.308
   547   6 C      3.848    -0.017    20.838     6.493
   548   1 H      0.925     0.038     2.475     2.460
   549   6 C      3.764    -0.125    22.944     6.828
   550   1 H      0.925     0.056     2.245     2.343
   551   1 H      0.925     0.062     2.172     2.305
   552   1 H      0.924     0.054     2.269     2.356
   553   6 C      3.750    -0.125    22.968     6.835
   554   1 H      0.924     0.020     2.735     2.586
   555   1 H      0.925     0.049     2.328     2.386
   556   1 H      0.925     0.058     2.226     2.333
   557   6 C      2.773     0.281    22.244     7.724
   558   8 O      0.868    -0.484    23.435     6.491
   559   7 N      2.683    -0.193    25.181     7.453
   560   1 H      0.860     0.205     1.081     1.629
   561   6 C      3.793     0.018    20.276     6.412
   562   1 H      0.925     0.069     2.094     2.263
   563   6 C      3.724     0.120    18.728     6.180
   564   1 H      0.925     0.026     2.650     2.546
   565   6 C      3.739    -0.129    23.058     6.852
   566   1 H      0.925     0.080     1.981     2.201
   567   1 H      0.925     0.053     2.285     2.364
   568   1 H      0.924     0.051     2.310     2.377
   569   8 O      1.654    -0.476    22.385     6.387
   570   1 H      0.805     0.330     0.638     1.255
   571   6 C      2.752     0.266    22.518     7.770
   572   8 O      0.857    -0.472    23.182     6.455
   573   7 N      2.684    -0.178    24.859     7.405
   574   1 H      0.860     0.211     1.052     1.607
   575   6 C      3.785     0.005    20.509     6.451
   576   1 H      0.925     0.095     1.835     2.118
   577   6 C      3.808    -0.084    22.099     6.692
   578   1 H      0.924     0.087     1.908     2.160
   579   1 H      0.925     0.065     2.136     2.286
   580   6 C      3.806    -0.084    22.097     6.692
   581   1 H      0.924     0.057     2.232     2.336
   582   1 H      0.925     0.049     2.328     2.386
   583   6 C      3.800    -0.105    22.507     6.755
   584   1 H      0.924     0.080     1.980     2.201
   585   1 H      0.924     0.091     1.866     2.136
   586   6 C      3.730    -0.061    21.768     6.660
   587   1 H      0.924     0.119     1.621     1.991
   588   1 H      0.925     0.109     1.705     2.042
   589   7 N      3.491    -0.124    23.684     7.228
   590   1 H      0.860     0.307     0.693     1.304
   591   1 H      0.860     0.300     0.713     1.322
   592   1 H      0.860     0.291     0.740     1.347
   593   6 C      2.746     0.266    22.511     7.769
   594   8 O      0.858    -0.480    23.355     6.479
   595   7 N      2.685    -0.172    24.729     7.386
   596   1 H      0.860     0.211     1.050     1.605
   597   6 C      3.786     0.021    20.238     6.408
   598   1 H      0.925     0.084     1.938     2.177
   599   6 C      3.676     0.066    19.682     6.356
   600   1 H      0.925     0.048     2.343     2.393
   601   1 H      0.925     0.065     2.142     2.289
   602   8 O      1.654    -0.491    22.689     6.430
   603   1 H      0.805     0.347     0.595     1.212
   604   6 C      2.778     0.265    22.530     7.774
   605   8 O      0.862    -0.487    23.498     6.499
   606   7 N      2.761    -0.096    23.124     7.142
   607   6 C      3.774    -0.010    20.786     6.496
   608   1 H      0.924     0.062     2.178     2.308
   609   1 H      0.925     0.060     2.197     2.318
   610   6 C      3.831    -0.078    21.956     6.667
   611   1 H      0.925     0.068     2.102     2.268
   612   1 H      0.925     0.078     1.995     2.209
   613   6 C      3.824    -0.078    21.973     6.670
   614   1 H      0.925     0.080     1.975     2.198
   615   1 H      0.924     0.072     2.059     2.244
   616   6 C      3.805     0.013    20.355     6.423
   617   1 H      0.925     0.079     1.994     2.208
   618   6 C      2.746     0.276    22.330     7.738
   619   8 O      0.862    -0.458    22.882     6.414
   620   7 N      2.686    -0.143    24.093     7.290
   621   1 H      0.860     0.203     1.089     1.635
   622   6 C      3.783     0.000    20.596     6.465
   623   1 H      0.925     0.086     1.917     2.165
   624   6 C      3.676     0.062    19.763     6.369
   625   1 H      0.925     0.044     2.398     2.422
   626   1 H      0.925     0.057     2.238     2.339
   627   8 O      1.652    -0.483    22.541     6.409
   628   1 H      0.805     0.344     0.602     1.219
   629   6 C      2.743     0.274    22.358     7.742
   630   8 O      0.864    -0.461    22.939     6.422
   631   7 N      2.694    -0.158    24.426     7.340
   632   1 H      0.860     0.219     1.015     1.578
   633   6 C      3.776     0.006    20.512     6.453
   634   1 H      0.924     0.107     1.719     2.051
   635   6 C      3.784    -0.093    22.288     6.725
   636   1 H      0.924     0.052     2.298     2.371
   637   1 H      0.924     0.080     1.979     2.200
   638   6 C      3.835    -0.018    20.863     6.498
   639   1 H      0.925     0.055     2.255     2.349
   640   6 C      3.760    -0.141    23.272     6.877
   641   1 H      0.924     0.065     2.140     2.288
   642   1 H      0.925     0.073     2.056     2.242
   643   1 H      0.924     0.044     2.396     2.420
   644   6 C      3.765    -0.133    23.094     6.850
   645   1 H      0.925     0.038     2.482     2.464
   646   1 H      0.925     0.048     2.346     2.395
   647   1 H      0.925     0.063     2.166     2.301
   648   6 C      2.742     0.251    22.776     7.814
   649   8 O      0.864    -0.477    23.279     6.469
   650   7 N      2.692    -0.181    24.930     7.416
   651   1 H      0.860     0.207     1.072     1.622
   652   6 C      3.787     0.023    20.207     6.403
   653   1 H      0.924     0.114     1.660     2.015
   654   6 C      3.808    -0.114    22.667     6.777
   655   1 H      0.924     0.075     2.031     2.229
   656   1 H      0.924     0.111     1.691     2.033
   657   6 C      2.743     0.289    22.099     7.697
   658   8 O      0.894    -0.508    23.946     6.562
   659   7 N      2.671    -0.270    26.991     7.716
   660   1 H      0.860     0.231     0.959     1.534
   661   1 H      0.860     0.215     1.032     1.591
   662   6 C      2.744     0.263    22.567     7.778
   663   8 O      0.861    -0.476    23.250     6.465
   664   7 N      2.691    -0.178    24.861     7.405
   665   1 H      0.860     0.217     1.024     1.585
   666   6 C      3.785     0.015    20.346     6.425
   667   1 H      0.925     0.085     1.929     2.172
   668   6 C      3.756    -0.137    23.184     6.865
   669   1 H      0.924     0.073     2.051     2.240
   670   1 H      0.924     0.062     2.178     2.308
   671   1 H      0.925     0.074     2.045     2.236
   672   6 C      2.743     0.272    22.402     7.750
   673   8 O      0.865    -0.516    24.145     6.588
   674   7 N      2.701    -0.166    24.601     7.366
   675   1 H      0.860     0.217     1.024     1.586
   676   6 C      3.789     0.014    20.353     6.425
   677   1 H      0.925     0.066     2.125     2.279
   678   6 C      3.761    -0.148    23.400     6.896
   679   1 H      0.925     0.084     1.935     2.175
   680   1 H      0.925     0.093     1.846     2.125
   681   1 H      0.924     0.075     2.030     2.228
   682   6 C      2.753     0.272    22.411     7.752
   683   8 O      0.862    -0.497    23.721     6.530
   684   7 N      2.694    -0.163    24.525     7.355
   685   1 H      0.860     0.244     0.907     1.491
   686   6 C      3.803     0.000    20.577     6.458
   687   1 H      0.925     0.097     1.809     2.103
   688   6 C      3.799    -0.083    22.088     6.692
   689   1 H      0.925     0.056     2.249     2.345
   690   1 H      0.925     0.054     2.267     2.355
   691   6 C      3.800    -0.086    22.133     6.698
   692   1 H      0.924     0.091     1.865     2.136
   693   1 H      0.924     0.062     2.176     2.307
   694   6 C      3.800    -0.093    22.280     6.720
   695   1 H      0.924     0.080     1.976     2.198
   696   1 H      0.925     0.089     1.893     2.151
   697   6 C      3.728    -0.055    21.673     6.646
   698   1 H      0.925     0.132     1.521     1.929
   699   1 H      0.924     0.107     1.721     2.052
   700   7 N      3.484    -0.156    24.353     7.329
   701   1 H      0.860     0.300     0.712     1.322
   702   1 H      0.860     0.288     0.751     1.358
   703   1 H      0.860     0.294     0.732     1.340
   704   6 C      2.759     0.275    22.349     7.742
   705   8 O      0.859    -0.524    24.331     6.613
   706   7 N      2.691    -0.184    24.984     7.424
   707   1 H      0.860     0.241     0.921     1.503
   708   6 C      3.780     0.009    20.447     6.442
   709   1 H      0.925     0.065     2.145     2.291
   710   6 C      3.678     0.066    19.688     6.356
   711   1 H      0.925     0.061     2.183     2.311
   712   1 H      0.925     0.056     2.251     2.346
   713   8 O      1.655    -0.461    22.074     6.342
   714   1 H      0.805     0.329     0.641     1.257
   715   6 C      2.731     0.264    22.549     7.774
   716   8 O      0.859    -0.491    23.580     6.511
   717   7 N      2.684    -0.165    24.565     7.361
   718   1 H      0.860     0.214     1.036     1.594
   719   6 C      3.780     0.035    20.006     6.372
   720   1 H      0.924     0.056     2.248     2.345
   721   6 C      3.793    -0.069    21.833     6.654
   722   1 H      0.925     0.071     2.079     2.255
   723   1 H      0.925     0.072     2.063     2.246
   724   6 C      3.793    -0.086    22.142     6.701
   725   1 H      0.924     0.004     2.985     2.702
   726   1 H      0.924     0.040     2.452     2.449
   727   6 C      2.685     0.367    20.782     7.460
   728   8 O      0.856    -0.670    27.896     7.081
   729   8 O      0.857    -0.642    27.167     6.988
   730   6 C      2.743     0.274    22.363     7.743
   731   8 O      0.859    -0.513    24.068     6.578
   732   7 N      2.681    -0.189    25.089     7.439
   733   1 H      0.860     0.233     0.953     1.529
   734   6 C      3.776     0.007    20.488     6.449
   735   1 H      0.925     0.096     1.817     2.108
   736   6 C      3.798    -0.089    22.193     6.708
   737   1 H      0.924     0.064     2.154     2.295
   738   1 H      0.925     0.086     1.916     2.164
   739   6 C      3.848    -0.015    20.816     6.490
   740   1 H      0.924     0.031     2.578     2.511
   741   6 C      3.756    -0.123    22.906     6.824
   742   1 H      0.925     0.053     2.277     2.360
   743   1 H      0.925     0.059     2.216     2.328
   744   1 H      0.925     0.026     2.644     2.543
   745   6 C      3.751    -0.126    22.990     6.838
   746   1 H      0.925     0.050     2.318     2.381
   747   1 H      0.925     0.047     2.362     2.403
   748   1 H      0.924     0.073     2.051     2.240
   749   6 C      2.746     0.285    22.172     7.710
   750   8 O      0.862    -0.468    23.082     6.442
   751   7 N      2.695    -0.209    25.550     7.507
   752   1 H      0.860     0.214     1.039     1.597
   753   6 C      3.787     0.048    19.777     6.334
   754   1 H      0.924     0.053     2.280     2.361
   755   6 C      3.809    -0.075    21.928     6.666
   756   1 H      0.925     0.039     2.466     2.456
   757   1 H      0.925     0.061     2.193     2.316
   758   6 C      2.694     0.369    20.742     7.454
   759   8 O      0.859    -0.669    27.883     7.080
   760   8 O      0.857    -0.661    27.657     7.051
   761   6 C      2.748     0.304    21.840     7.652
   762   8 O      0.865    -0.487    23.500     6.500
   763   7 N      2.684    -0.195    25.238     7.461
   764   1 H      0.860     0.195     1.131     1.666
   765   6 C      3.777     0.023    20.218     6.406
   766   1 H      0.924     0.070     2.088     2.259
   767   6 C      3.792    -0.073    21.897     6.664
   768   1 H      0.925     0.061     2.192     2.315
   769   1 H      0.925     0.055     2.254     2.348
   770   6 C      3.790    -0.071    21.861     6.659
   771   1 H      0.925     0.059     2.213     2.327
   772   1 H      0.924     0.051     2.309     2.376
   773   6 C      3.786    -0.080    22.052     6.689
   774   1 H      0.925     0.072     2.062     2.246
   775   1 H      0.924     0.057     2.233     2.337
   776   6 C      3.718    -0.051    21.618     6.641
   777   1 H      0.925     0.113     1.673     2.023
   778   1 H      0.924     0.127     1.558     1.952
   779   7 N      3.481    -0.146    24.139     7.297
   780   1 H      0.860     0.294     0.731     1.339
   781   1 H      0.860     0.314     0.673     1.286
   782   1 H      0.860     0.303     0.704     1.314
   783   6 C      2.743     0.264    22.546     7.775
   784   8 O      0.861    -0.524    24.313     6.611
   785   7 N      2.687    -0.200    25.334     7.475
   786   1 H      0.860     0.219     1.012     1.576
   787   6 C      3.780     0.020    20.263     6.413
   788   1 H      0.925     0.068     2.103     2.268
   789   6 C      3.751    -0.134    23.148     6.861
   790   1 H      0.924     0.077     2.011     2.218
   791   1 H      0.925     0.075     2.027     2.227
   792   1 H      0.925     0.078     1.997     2.210
   793   6 C      2.742     0.281    22.250     7.723
   794   8 O      0.859    -0.495    23.670     6.523
   795   7 N      2.686    -0.193    25.196     7.455
   796   1 H      0.860     0.229     0.968     1.541
   797   6 C      3.787     0.008    20.449     6.441
   798   1 H      0.925     0.083     1.945     2.181
   799   6 C      3.849    -0.027    21.016     6.521
   800   1 H      0.925     0.072     2.062     2.246
   801   6 C      3.745    -0.114    22.756     6.805
   802   1 H      0.925     0.073     2.053     2.241
   803   1 H      0.924     0.056     2.247     2.344
   804   1 H      0.925     0.023     2.694     2.567
   805   6 C      3.808    -0.064    21.715     6.633
   806   1 H      0.925     0.033     2.548     2.496
   807   1 H      0.924     0.056     2.244     2.342
   808   6 C      3.751    -0.120    22.858     6.818
   809   1 H      0.924     0.066     2.132     2.284
   810   1 H      0.925     0.031     2.570     2.507
   811   1 H      0.924     0.039     2.469     2.457
   812   6 C      2.755     0.275    22.351     7.742
   813   8 O      0.857    -0.482    23.400     6.486
   814   7 N      2.686    -0.154    24.342     7.328
   815   1 H      0.860     0.191     1.151     1.681
   816   6 C      3.756    -0.021    21.003     6.534
   817   1 H      0.925     0.082     1.959     2.189
   818   1 H      0.925     0.076     2.019     2.222
   819   6 C      2.749     0.281    22.248     7.723
   820   8 O      0.857    -0.498    23.749     6.534
   821   7 N      2.683    -0.157    24.398     7.336
   822   1 H      0.860     0.200     1.106     1.648
   823   6 C      3.791     0.020    20.247     6.408
   824   1 H      0.925     0.074     2.040     2.233
   825   6 C      3.814    -0.080    22.012     6.678
   826   1 H      0.924     0.081     1.964     2.192
   827   1 H      0.925     0.075     2.028     2.227
   828   6 C      3.806    -0.076    21.952     6.670
   829   1 H      0.925     0.047     2.363     2.404
   830   1 H      0.925     0.065     2.136     2.285
   831   6 C      3.741    -0.024    21.088     6.552
   832   1 H      0.924     0.076     2.016     2.220
   833   1 H      0.925     0.081     1.973     2.197
   834   7 N      2.700    -0.187    25.061     7.435
   835   1 H      0.860     0.247     0.895     1.482
   836   6 C      2.737     0.232    23.140     7.876
   837   7 N      2.650    -0.247    26.445     7.638
   838   1 H      0.860     0.257     0.858     1.451
   839   1 H      0.860     0.230     0.965     1.539
   840   7 N      2.660    -0.266    26.892     7.702
   841   1 H      0.860     0.240     0.924     1.506
   842   1 H      0.860     0.248     0.891     1.479
   843   6 C      2.740     0.262    22.582     7.781
   844   8 O      0.856    -0.481    23.371     6.482
   845   7 N      2.682    -0.190    25.133     7.446
   846   1 H      0.860     0.221     1.005     1.571
   847   6 C      3.788     0.040    19.920     6.357
   848   1 H      0.925     0.081     1.969     2.195
   849   6 C      3.807    -0.108    22.563     6.762
   850   1 H      0.924     0.091     1.870     2.139
   851   1 H      0.925     0.083     1.953     2.186
   852   6 C      2.743     0.285    22.178     7.711
   853   8 O      0.858    -0.501    23.809     6.542
   854   7 N      2.639    -0.290    27.485     7.786
   855   1 H      0.860     0.253     0.870     1.461
   856   1 H      0.860     0.237     0.937     1.517
   857   6 C      2.746     0.273    22.376     7.746
   858   8 O      0.856    -0.464    22.997     6.429
   859   7 N      2.682    -0.194    25.213     7.458
   860   1 H      0.860     0.200     1.107     1.648
   861   6 C      3.793     0.011    20.395     6.431
   862   1 H      0.924     0.106     1.732     2.058
   863   6 C      3.803    -0.023    20.987     6.522
   864   1 H      0.925     0.062     2.180     2.309
   865   1 H      0.925     0.116     1.649     2.008
   866  16 S      1.914    -0.261   152.271    20.769
   867   1 H      0.923     0.156     1.354     1.820
   868   6 C      2.742     0.259    22.628     7.789
   869   8 O      0.861    -0.456    22.839     6.408
   870   7 N      2.689    -0.165    24.571     7.362
   871   1 H      0.860     0.189     1.165     1.691
   872   6 C      3.788     0.018    20.281     6.414
   873   1 H      0.925     0.103     1.755     2.072
   874   6 C      3.818    -0.105    22.484     6.748
   875   1 H      0.925     0.077     2.014     2.219
   876   1 H      0.925     0.070     2.091     2.261
   877   6 C      2.746     0.300    21.907     7.664
   878   8 O      0.871    -0.481    23.357     6.480
   879   7 N      2.655    -0.281    27.251     7.753
   880   1 H      0.860     0.254     0.870     1.461
   881   1 H      0.860     0.231     0.959     1.534
   882   6 C      2.745     0.266    22.515     7.769
   883   8 O      0.858    -0.463    22.974     6.426
   884   7 N      2.684    -0.147    24.188     7.304
   885   1 H      0.860     0.192     1.148     1.678
   886   6 C      3.738    -0.060    21.746     6.654
   887   1 H      0.925     0.130     1.538     1.940
   888   1 H      0.924     0.097     1.816     2.107
   889   6 C      2.742     0.280    22.259     7.725
   890   8 O      0.859    -0.428    22.242     6.323
   891   7 N      2.678    -0.197    25.287     7.469
   892   1 H      0.860     0.215     1.031     1.590
   893   6 C      3.780     0.004    20.535     6.456
   894   1 H      0.925     0.095     1.832     2.116
   895   6 C      3.845    -0.014    20.792     6.486
   896   1 H      0.925     0.039     2.466     2.456
   897   6 C      3.757    -0.127    22.990     6.836
   898   1 H      0.924     0.066     2.128     2.281
   899   1 H      0.925     0.028     2.614     2.528
   900   1 H      0.925     0.054     2.272     2.357
   901   6 C      3.754    -0.127    22.993     6.837
   902   1 H      0.925     0.044     2.402     2.424
   903   1 H      0.924     0.064     2.156     2.296
   904   1 H      0.925     0.068     2.109     2.271
   905   6 C      2.743     0.263    22.569     7.779
   906   8 O      0.858    -0.509    23.991     6.567
   907   7 N      2.688    -0.151    24.275     7.318
   908   1 H      0.860     0.226     0.984     1.554
   909   6 C      3.801    -0.002    20.615     6.464
   910   1 H      0.924     0.076     2.020     2.222
   911   6 C      3.844    -0.029    21.065     6.529
   912   1 H      0.925     0.036     2.498     2.471
   913   6 C      3.764    -0.113    22.695     6.790
   914   1 H      0.925     0.051     2.306     2.375
   915   1 H      0.925     0.039     2.464     2.455
   916   1 H      0.924     0.038     2.469     2.457
   917   6 C      3.795    -0.067    21.788     6.647
   918   1 H      0.925     0.043     2.415     2.430
   919   1 H      0.925     0.069     2.098     2.265
   920   6 C      3.748    -0.120    22.862     6.820
   921   1 H      0.925     0.050     2.314     2.379
   922   1 H      0.924     0.028     2.614     2.529
   923   1 H      0.924     0.052     2.290     2.367
   924   6 C      2.748     0.265    22.526     7.772
   925   8 O      0.861    -0.458    22.876     6.413
   926   7 N      2.706    -0.175    24.778     7.393
   927   1 H      0.860     0.201     1.099     1.642
   928   6 C      3.804     0.004    20.515     6.448
   929   1 H      0.925     0.099     1.794     2.094
   930   6 C      3.733     0.118    18.745     6.180
   931   1 H      0.924     0.040     2.448     2.447
   932   6 C      3.749    -0.144    23.336     6.890
   933   1 H      0.924     0.071     2.074     2.252
   934   1 H      0.925     0.056     2.251     2.346
   935   1 H      0.925     0.063     2.162     2.299
   936   8 O      1.656    -0.523    23.394     6.529
   937   1 H      0.806     0.334     0.627     1.243
   938   6 C      2.756     0.267    22.493     7.766
   939   8 O      0.858    -0.496    23.694     6.526
   940   7 N      2.694    -0.194    25.206     7.456
   941   1 H      0.860     0.226     0.982     1.553
   942   6 C      3.787     0.016    20.316     6.420
   943   1 H      0.925     0.106     1.732     2.058
   944   6 C      3.809    -0.080    22.025     6.680
   945   1 H      0.925     0.067     2.119     2.277
   946   1 H      0.925     0.072     2.068     2.249
   947   6 C      3.801    -0.082    22.071     6.689
   948   1 H      0.925     0.087     1.905     2.158
   949   1 H      0.925     0.087     1.909     2.160
   950   6 C      3.803    -0.099    22.390     6.737
   951   1 H      0.924     0.068     2.113     2.273
   952   1 H      0.924     0.071     2.073     2.252
   953   6 C      3.730    -0.063    21.816     6.667
   954   1 H      0.924     0.132     1.522     1.929
   955   1 H      0.925     0.126     1.564     1.955
   956   7 N      3.487    -0.147    24.169     7.302
   957   1 H      0.860     0.293     0.736     1.344
   958   1 H      0.860     0.311     0.681     1.293
   959   1 H      0.860     0.289     0.747     1.354
   960   6 C      2.752     0.276    22.325     7.737
   961   8 O      0.861    -0.488    23.527     6.503
   962   7 N      2.684    -0.197    25.280     7.467
   963   1 H      0.860     0.203     1.092     1.637
   964   6 C      3.785     0.028    20.111     6.388
   965   1 H      0.925     0.075     2.036     2.231
   966   6 C      3.800    -0.100    22.414     6.741
   967   1 H      0.925     0.050     2.315     2.380
   968   1 H      0.925     0.044     2.395     2.420
   969   6 C      2.687     0.366    20.788     7.462
   970   8 O      0.859    -0.638    27.062     6.975
   971   8 O      0.857    -0.628    26.822     6.944
   972   6 C      2.749     0.274    22.366     7.744
   973   8 O      0.858    -0.497    23.723     6.530
   974   7 N      2.686    -0.183    24.974     7.422
   975   1 H      0.860     0.222     1.000     1.566
   976   6 C      3.787     0.016    20.316     6.420
   977   1 H      0.924     0.082     1.960     2.189
   978   6 C      3.797    -0.067    21.789     6.647
   979   1 H      0.925     0.060     2.195     2.317
   980   1 H      0.925     0.080     1.983     2.202
   981   6 C      3.796    -0.113    22.667     6.779
   982   1 H      0.925     0.060     2.195     2.317
   983   1 H      0.924     0.037     2.490     2.468
   984   6 C      2.685     0.367    20.779     7.460
   985   8 O      0.858    -0.582    25.670     6.793
   986   8 O      0.857    -0.587    25.790     6.809
   987   6 C      2.746     0.256    22.696     7.801
   988   8 O      0.857    -0.478    23.297     6.471
   989   7 N      2.687    -0.187    25.048     7.433
   990   1 H      0.860     0.229     0.969     1.542
   991   6 C      3.777     0.027    20.137     6.393
   992   1 H      0.924     0.087     1.910     2.161
   993   6 C      3.762    -0.131    23.056     6.845
   994   1 H      0.924     0.083     1.944     2.181
   995   1 H      0.924     0.080     1.975     2.198
   996   1 H      0.925     0.053     2.279     2.361
   997   6 C      2.739     0.261    22.599     7.783
   998   8 O      0.857    -0.501    23.803     6.541
   999   7 N      2.681    -0.164    24.551     7.359
  1000   1 H      0.860     0.197     1.119     1.657
  1001   6 C      3.775     0.012    20.400     6.435
  1002   1 H      0.925     0.092     1.860     2.133
  1003   6 C      3.804    -0.057    21.601     6.617
  1004   1 H      0.925     0.036     2.509     2.477
  1005   1 H      0.924     0.069     2.097     2.265
  1006   6 C      3.797    -0.098    22.373     6.735
  1007   1 H      0.925     0.030     2.585     2.514
  1008   1 H      0.925     0.018     2.763     2.599
  1009   6 C      2.685     0.373    20.681     7.442
  1010   8 O      0.857    -0.641    27.146     6.985
  1011   8 O      0.856    -0.647    27.302     7.005
  1012   6 C      2.743     0.260    22.627     7.789
  1013   8 O      0.859    -0.500    23.790     6.539
  1014   7 N      2.690    -0.168    24.642     7.373
  1015   1 H      0.860     0.216     1.027     1.587
  1016   6 C      3.792     0.017    20.291     6.415
  1017   1 H      0.924     0.083     1.944     2.180
  1018   6 C      3.807    -0.095    22.314     6.724
  1019   1 H      0.925     0.075     2.033     2.230
  1020   1 H      0.924     0.073     2.055     2.242
  1021   6 C      3.805    -0.081    22.035     6.683
  1022   1 H      0.925     0.054     2.272     2.357
  1023   1 H      0.924     0.075     2.036     2.231
  1024   6 C      3.806    -0.101    22.431     6.742
  1025   1 H      0.924     0.079     1.986     2.204
  1026   1 H      0.925     0.096     1.821     2.110
  1027   6 C      3.730    -0.047    21.517     6.622
  1028   1 H      0.924     0.124     1.580     1.966
  1029   1 H      0.924     0.112     1.683     2.029
  1030   7 N      3.490    -0.121    23.630     7.220
  1031   1 H      0.860     0.282     0.769     1.373
  1032   1 H      0.860     0.259     0.848     1.442
  1033   1 H      0.860     0.278     0.784     1.387
  1034   6 C      2.745     0.253    22.752     7.810
  1035   8 O      0.859    -0.531    24.476     6.633
  1036   7 N      2.681    -0.183    24.964     7.421
  1037   1 H      0.860     0.241     0.918     1.501
  1038   6 C      3.794     0.012    20.375     6.428
  1039   1 H      0.925     0.086     1.923     2.168
  1040   6 C      3.805    -0.079    22.009     6.679
  1041   1 H      0.924     0.050     2.324     2.384
  1042   1 H      0.924     0.073     2.052     2.240
  1043   6 C      3.854    -0.015    20.803     6.487
  1044   1 H      0.924     0.025     2.660     2.550
  1045   6 C      3.769    -0.126    22.948     6.827
  1046   1 H      0.925     0.057     2.231     2.336
  1047   1 H      0.925     0.046     2.366     2.405
  1048   1 H      0.925     0.027     2.624     2.533
  1049   6 C      3.771    -0.136    23.149     6.856
  1050   1 H      0.924     0.056     2.244     2.342
  1051   1 H      0.925     0.055     2.252     2.347
  1052   1 H      0.924     0.067     2.123     2.279
  1053   6 C      2.743     0.292    22.041     7.687
  1054   8 O      0.862    -0.490    23.553     6.507
  1055   7 N      2.686    -0.194    25.222     7.459
  1056   1 H      0.860     0.219     1.014     1.577
  1057   6 C      3.781     0.027    20.145     6.394
  1058   1 H      0.925     0.068     2.105     2.269
  1059   6 C      3.809    -0.085    22.121     6.695
  1060   1 H      0.925     0.066     2.135     2.285
  1061   1 H      0.925     0.081     1.972     2.196
  1062   6 C      2.953     0.003    27.959     8.673
  1063   6 C      2.921    -0.039    28.969     8.826
  1064   1 H      0.926     0.038     2.476     2.461
  1065   6 C      2.900    -0.036    28.905     8.815
  1066   1 H      0.926     0.047     2.363     2.404
  1067   6 C      2.903    -0.032    28.788     8.798
  1068   1 H      0.926     0.039     2.461     2.453
  1069   6 C      2.907    -0.037    28.916     8.817
  1070   1 H      0.926     0.059     2.206     2.323
  1071   6 C      2.914    -0.052    29.286     8.874
  1072   1 H      0.926     0.035     2.514     2.480
  1073   6 C      2.753     0.279    22.276     7.729
  1074   8 O      0.860    -0.508    23.959     6.563
  1075   7 N      2.688    -0.176    24.800     7.396
  1076   1 H      0.860     0.234     0.947     1.525
  1077   6 C      3.785     0.036    19.981     6.367
  1078   1 H      0.925     0.076     2.023     2.224
  1079   6 C      3.795    -0.115    22.711     6.786
  1080   1 H      0.925     0.075     2.031     2.229
  1081   1 H      0.924     0.091     1.869     2.138
  1082   6 C      2.736     0.297    21.959     7.672
  1083   8 O      0.862    -0.465    23.025     6.434
  1084   7 N      2.638    -0.283    27.317     7.762
  1085   1 H      0.860     0.250     0.885     1.474
  1086   1 H      0.860     0.215     1.031     1.591
  1087   6 C      2.748     0.265    22.530     7.772
  1088   8 O      0.858    -0.497    23.714     6.529
  1089   7 N      2.692    -0.178    24.847     7.403
  1090   1 H      0.860     0.225     0.985     1.555
  1091   6 C      3.810     0.042    19.855     6.343
  1092   1 H      0.925     0.073     2.055     2.242
  1093   6 C      3.819    -0.064    21.713     6.632
  1094   1 H      0.924     0.074     2.042     2.234
  1095   1 H      0.925     0.071     2.074     2.252
  1096   6 C      3.811    -0.097    22.339     6.728
  1097   1 H      0.925     0.051     2.304     2.374
  1098   1 H      0.925     0.076     2.017     2.221
  1099   6 C      2.746     0.289    22.103     7.698
  1100   8 O      0.859    -0.517    24.167     6.591
  1101   7 N      2.635    -0.264    26.850     7.696
  1102   1 H      0.860     0.239     0.927     1.508
  1103   1 H      0.860     0.225     0.987     1.556
  1104   6 C      2.752     0.264    22.551     7.776
  1105   8 O      0.857    -0.522    24.287     6.607
  1106   7 N      2.686    -0.178    24.856     7.405
  1107   1 H      0.860     0.212     1.048     1.604
  1108   6 C      3.785     0.044    19.847     6.346
  1109   1 H      0.924     0.081     1.970     2.195
  1110   6 C      3.805    -0.080    22.018     6.680
  1111   1 H      0.925     0.054     2.271     2.357
  1112   1 H      0.924     0.049     2.338     2.391
  1113   6 C      2.687     0.349    21.071     7.512
  1114   8 O      0.856    -0.643    27.196     6.992
  1115   8 O      0.857    -0.607    26.284     6.874
  1116   6 C      2.748     0.263    22.566     7.778
  1117   8 O      0.859    -0.506    23.911     6.556
  1118   7 N      2.684    -0.192    25.158     7.449
  1119   1 H      0.860     0.206     1.075     1.624
  1120   6 C      3.792     0.024    20.180     6.397
  1121   1 H      0.925     0.085     1.930     2.172
  1122   6 C      3.855    -0.010    20.718     6.474
  1123   1 H      0.925     0.033     2.540     2.492
  1124   6 C      3.764    -0.116    22.756     6.800
  1125   1 H      0.924     0.059     2.211     2.326
  1126   1 H      0.925     0.060     2.200     2.320
  1127   1 H      0.925     0.050     2.320     2.382
  1128   6 C      3.765    -0.113    22.703     6.791
  1129   1 H      0.924     0.051     2.304     2.374
  1130   1 H      0.924     0.031     2.574     2.509
  1131   1 H      0.925     0.054     2.269     2.356
  1132   6 C      2.750     0.283    22.204     7.716
  1133   8 O      0.862    -0.458    22.872     6.412
  1134   7 N      2.679    -0.217    25.734     7.534
  1135   1 H      0.860     0.197     1.120     1.658
  1136   6 C      3.786     0.047    19.803     6.339
  1137   1 H      0.925     0.078     2.003     2.213
  1138   6 C      3.800    -0.077    21.978     6.675
  1139   1 H      0.925     0.015     2.807     2.620
  1140   1 H      0.925     0.041     2.436     2.441
  1141   6 C      2.686     0.358    20.930     7.487
  1142   8 O      0.856    -0.656    27.527     7.034
  1143   8 O      0.858    -0.628    26.810     6.942
  1144   6 C      2.749     0.268    22.482     7.764
  1145   8 O      0.856    -0.492    23.618     6.516
  1146   7 N      2.692    -0.180    24.899     7.411
  1147   1 H      0.860     0.200     1.104     1.646
  1148   6 C      3.788     0.027    20.130     6.390
  1149   1 H      0.925     0.090     1.881     2.145
  1150   6 C      3.762    -0.133    23.097     6.851
  1151   1 H      0.925     0.086     1.915     2.164
  1152   1 H      0.925     0.055     2.253     2.347
  1153   1 H      0.925     0.067     2.123     2.279
  1154   6 C      2.748     0.263    22.563     7.778
  1155   8 O      0.859    -0.432    22.333     6.336
  1156   7 N      2.684    -0.180    24.889     7.409
  1157   1 H      0.860     0.195     1.131     1.666
  1158   6 C      3.782     0.021    20.235     6.408
[...]
  2291  N   3.431        C 2289 1.269    C 2293 0.949    H 2292 0.932    O 2290 0.198
  2292  H   0.962        N 2291 0.932
  2293  C   3.955        C 2295 0.993    H 2294 0.954    N 2291 0.949    C 2313 0.939
  2294  H   0.991        C 2293 0.954
  2295  C   3.985        C 2298 0.993    C 2293 0.993    H 2297 0.971    H 2296 0.969
  2296  H   0.994        C 2295 0.969
  2297  H   0.994        C 2295 0.971
  2298  C   3.983        C 2301 1.009    C 2295 0.993    H 2300 0.972    H 2299 0.968
  2299  H   0.994        C 2298 0.968
  2300  H   0.995        C 2298 0.972
  2301  C   3.956        C 2298 1.009    N 2304 0.978    H 2303 0.960    H 2302 0.956
  2302  H   0.994        C 2301 0.956
  2303  H   0.995        C 2301 0.960
  2304  N   3.411        C 2306 1.298    C 2301 0.978    H 2305 0.840    N 2310 0.106
  2305  H   0.935        N 2304 0.840
  2306  C   3.978        N 2310 1.347    N 2307 1.300    N 2304 1.298
  2307  N   3.370        C 2306 1.300    H 2308 0.922    H 2309 0.906    N 2310 0.101
  2308  H   0.946        N 2307 0.922
  2309  H   0.943        N 2307 0.906
  2310  N   3.412        C 2306 1.347    H 2311 0.920    H 2312 0.865    N 2304 0.106    N 2307 0.101
  2311  H   0.954        N 2310 0.920
  2312  H   0.930        N 2310 0.865
  2313  C   3.955        O 2314 1.571    N 2315 1.366    C 2293 0.939
  2314  O   1.921        C 2313 1.571    N 2315 0.203
  2315  N   3.507        C 2313 1.366    C 2317 0.963    H 2316 0.893    O 2314 0.203
  2316  H   0.944        N 2315 0.893
  2317  C   3.955        C 2319 0.997    N 2315 0.963    H 2318 0.951    C 2323 0.932
  2318  H   0.992        C 2317 0.951
  2319  C   3.980        C 2317 0.997    H 2321 0.978    H 2320 0.976    H 2322 0.975
  2320  H   0.996        C 2319 0.976
  2321  H   0.994        C 2319 0.978
  2322  H   0.993        C 2319 0.975
  2323  C   3.952        O 2324 1.632    N 2325 1.303    C 2317 0.932
  2324  O   1.984        C 2323 1.632    N 2325 0.198
  2325  N   3.462        C 2323 1.303    C 2327 0.983    H 2326 0.881    O 2324 0.198
  2326  H   0.943        N 2325 0.881
  2327  C   3.962        N 2325 0.983    C 2329 0.977    H 2328 0.943    C 2345 0.936
  2328  H   0.992        C 2327 0.943
  2329  C   3.979        C 2332 0.999    C 2327 0.977    H 2330 0.973    H 2331 0.966
  2330  H   0.996        C 2329 0.973
  2331  H   0.995        C 2329 0.966
  2332  C   3.983        C 2329 0.999    C 2335 0.993    H 2334 0.976    H 2333 0.975
  2333  H   0.994        C 2332 0.975
  2334  H   0.993        C 2332 0.976
  2335  C   3.988        C 2338 1.024    C 2332 0.993    H 2337 0.971    H 2336 0.968
  2336  H   0.995        C 2335 0.968
  2337  H   0.995        C 2335 0.971
  2338  C   3.906        C 2335 1.024    H 2339 0.963    H 2340 0.957    N 2341 0.946
  2339  H   0.986        C 2338 0.963
  2340  H   0.983        C 2338 0.957
  2341  N   3.649        C 2338 0.946    H 2343 0.895    H 2344 0.894    H 2342 0.888
  2342  H   0.910        N 2341 0.888
  2343  H   0.916        N 2341 0.895
  2344  H   0.911        N 2341 0.894
  2345  C   3.938        O 2346 1.619    N 2347 1.298    C 2327 0.936
  2346  O   1.988        C 2345 1.619    N 2347 0.193
  2347  N   3.452        C 2345 1.298    C 2349 0.957    H 2348 0.906    O 2346 0.193
  2348  H   0.947        N 2347 0.906
  2349  C   3.965        C 2351 0.992    N 2347 0.957    C 2369 0.956    H 2350 0.949
  2350  H   0.992        C 2349 0.949
  2351  C   3.982        C 2349 0.992    C 2354 0.990    H 2352 0.971    H 2353 0.968
  2352  H   0.993        C 2351 0.971
  2353  H   0.991        C 2351 0.968
  2354  C   3.984        C 2351 0.990    C 2357 0.988    H 2356 0.978    H 2355 0.974
  2355  H   0.997        C 2354 0.974
  2356  H   0.996        C 2354 0.978
  2357  C   3.949        C 2354 0.988    N 2360 0.984    H 2359 0.969    H 2358 0.968
  2358  H   0.991        C 2357 0.968
  2359  H   0.994        C 2357 0.969
  2360  N   3.471        C 2362 1.324    C 2357 0.984    H 2361 0.889    N 2366 0.103
  2361  H   0.942        N 2360 0.889
  2362  C   3.977        N 2360 1.324    N 2366 1.317    N 2363 1.299
  2363  N   3.371        C 2362 1.299    H 2365 0.918    H 2364 0.906    N 2366 0.103
  2364  H   0.938        N 2363 0.906
  2365  H   0.942        N 2363 0.918
  2366  N   3.397        C 2362 1.317    H 2367 0.912    H 2368 0.888    N 2363 0.103    N 2360 0.103
  2367  H   0.945        N 2366 0.912
  2368  H   0.949        N 2366 0.888
  2369  C   3.944        O 2370 1.571    N 2371 1.329    C 2349 0.956
  2370  O   1.948        C 2369 1.571    N 2371 0.194
  2371  N   3.482        C 2369 1.329    C 2373 0.964    H 2372 0.897    O 2370 0.194
  2372  H   0.945        N 2371 0.897
  2373  C   3.954        C 2375 0.975    N 2371 0.964    H 2374 0.949    C 2385 0.933
  2374  H   0.992        C 2373 0.949
  2375  C   3.987        C 2381 1.008    C 2377 0.999    C 2373 0.975    H 2376 0.961
  2376  H   0.997        C 2375 0.961
  2377  C   3.988        C 2375 0.999    H 2380 0.984    H 2379 0.979    H 2378 0.976
  2378  H   0.997        C 2377 0.976
  2379  H   0.997        C 2377 0.979
  2380  H   0.998        C 2377 0.984
  2381  C   3.988        C 2375 1.008    H 2383 0.981    H 2382 0.978    H 2384 0.972
  2382  H   0.998        C 2381 0.978
  2383  H   0.996        C 2381 0.981
  2384  H   0.994        C 2381 0.972
  2385  C   3.946        O 2386 1.640    N 2387 1.284    C 2373 0.933
  2386  O   1.983        C 2385 1.640    N 2387 0.195
  2387  N   3.458        C 2385 1.284    C 2389 0.985    H 2388 0.894    O 2386 0.195
  2388  H   0.949        N 2387 0.894
  2389  C   3.956        N 2387 0.985    C 2391 0.956    H 2390 0.945    C 2404 0.938
  2390  H   0.992        C 2389 0.945
  2391  C   3.981        C 2393 1.006    C 2397 1.001    H 2392 0.959    C 2389 0.956
  2392  H   0.996        C 2391 0.959
  2393  C   3.990        C 2391 1.006    H 2395 0.985    H 2394 0.985    H 2396 0.978
  2394  H   0.998        C 2393 0.985
  2395  H   0.999        C 2393 0.985
  2396  H   0.993        C 2393 0.978
  2397  C   3.991        C 2400 1.015    C 2391 1.001    H 2399 0.972    H 2398 0.972
  2398  H   0.998        C 2397 0.972
  2399  H   0.998        C 2397 0.972
  2400  C   3.992        C 2397 1.015    H 2402 0.986    H 2403 0.986    H 2401 0.977
  2401  H   0.997        C 2400 0.977
  2402  H   0.997        C 2400 0.986
  2403  H   0.998        C 2400 0.986
  2404  C   3.941        O 2405 1.544    N 2406 1.358    C 2389 0.938
  2405  O   1.911        C 2404 1.544    N 2406 0.185
  2406  N   3.515        C 2404 1.358    C 2408 1.003    H 2407 0.878    O 2405 0.185
  2407  H   0.946        N 2406 0.878
  2408  C   3.972        N 2406 1.003    C 2410 0.953    C 2418 0.949    H 2409 0.941
  2409  H   0.992        C 2408 0.941
  2410  C   3.958        C 2412 1.007    O 2416 0.981    H 2411 0.960    C 2408 0.953
  2411  H   0.998        C 2410 0.960
  2412  C   3.990        C 2410 1.007    H 2413 0.987    H 2414 0.985    H 2415 0.980
  2413  H   0.997        C 2412 0.987
  2414  H   0.999        C 2412 0.985
  2415  H   0.993        C 2412 0.980
  2416  O   1.915        C 2410 0.981    H 2417 0.846
  2417  H   0.886        O 2416 0.846
  2418  C   3.953        O 2419 1.593    N 2420 1.319    C 2408 0.949
  2419  O   1.934        C 2418 1.593    N 2420 0.195
  2420  N   3.470        C 2418 1.319    C 2422 0.979    H 2421 0.879    O 2419 0.195
  2421  H   0.949        N 2420 0.879
  2422  C   3.954        N 2420 0.979    H 2423 0.956    C 2424 0.948    C 2432 0.907
  2423  H   0.996        C 2422 0.956
  2424  C   3.947        O 2430 1.003    C 2426 0.996    H 2425 0.955    C 2422 0.948
  2425  H   0.999        C 2424 0.955
  2426  C   3.982        C 2424 0.996    H 2428 0.985    H 2429 0.981    H 2427 0.975
  2427  H   0.993        C 2426 0.975
  2428  H   0.997        C 2426 0.985
  2429  H   0.996        C 2426 0.981
  2430  O   1.958        C 2424 1.003    H 2431 0.828
  2431  H   0.895        O 2430 0.828
  2432  C   3.951        O 2433 1.666    N 2434 1.305    C 2422 0.907
  2433  O   2.002        C 2432 1.666    N 2434 0.204
  2434  N   3.456        C 2432 1.305    C 2436 0.959    H 2435 0.900    O 2433 0.204
  2435  H   0.950        N 2434 0.900
  2436  C   3.952        C 2438 0.964    N 2434 0.959    C 2452 0.953    H 2437 0.941
  2437  H   0.991        C 2436 0.941
  2438  C   3.975        C 2441 0.999    C 2436 0.964    H 2440 0.959    H 2439 0.958
  2439  H   0.995        C 2438 0.958
  2440  H   0.994        C 2438 0.959
  2441  C   3.981        C 2450 1.440    C 2442 1.373    C 2438 0.999    C 2446 0.120
  2442  C   3.988        C 2444 1.482    C 2441 1.373    H 2443 0.963    C 2448 0.116
  2443  H   0.997        C 2442 0.963
  2444  C   3.990        C 2442 1.482    C 2446 1.420    H 2445 0.964
  2445  H   0.996        C 2444 0.964
  2446  C   3.988        C 2448 1.440    C 2444 1.420    H 2447 0.965    C 2441 0.120
  2447  H   0.997        C 2446 0.965
  2448  C   3.989        C 2446 1.440    C 2450 1.431    H 2449 0.968    C 2442 0.116
  2449  H   0.998        C 2448 0.968
  2450  C   3.987        C 2441 1.440    C 2448 1.431    H 2451 0.960
  2451  H   0.998        C 2450 0.960
  2452  C   3.947        O 2453 1.591    N 2454 1.315    C 2436 0.953
  2453  O   1.931        C 2452 1.591    N 2454 0.190
  2454  N   3.464        C 2452 1.315    C 2456 0.981    H 2455 0.875    O 2453 0.190
  2455  H   0.943        N 2454 0.875
  2456  C   3.969        N 2454 0.981    C 2458 0.970    C 2476 0.970    H 2457 0.938
  2457  H   0.990        C 2456 0.938
  2458  C   3.984        C 2461 1.004    H 2459 0.975    C 2456 0.970    H 2460 0.962
  2459  H   0.997        C 2458 0.975
  2460  H   0.991        C 2458 0.962
  2461  C   3.985        C 2458 1.004    C 2464 0.998    H 2463 0.976    H 2462 0.972
  2462  H   0.996        C 2461 0.972
  2463  H   0.997        C 2461 0.976
  2464  C   3.956        C 2461 0.998    N 2467 0.985    H 2465 0.967    H 2466 0.963
  2465  H   0.994        C 2464 0.967
  2466  H   0.992        C 2464 0.963
  2467  N   3.436        C 2469 1.292    C 2464 0.985    H 2468 0.877
  2468  H   0.952        N 2467 0.877
  2469  C   3.976        N 2470 1.337    N 2473 1.319    N 2467 1.292
  2470  N   3.394        C 2469 1.337    H 2472 0.909    H 2471 0.906    N 2473 0.107
  2471  H   0.931        N 2470 0.906
  2472  H   0.931        N 2470 0.909
  2473  N   3.398        C 2469 1.319    H 2474 0.914    H 2475 0.899    N 2470 0.107
  2474  H   0.938        N 2473 0.914
  2475  H   0.950        N 2473 0.899
  2476  C   3.943        O 2477 1.615    N 2478 1.275    C 2456 0.970
  2477  O   1.921        C 2476 1.615    N 2478 0.189
  2478  N   3.434        C 2476 1.275    C 2480 0.977    H 2479 0.896    O 2477 0.189
  2479  H   0.947        N 2478 0.896
  2480  C   3.972        N 2478 0.977    C 2482 0.958    C 2490 0.956    H 2481 0.952
  2481  H   0.994        C 2480 0.952
  2482  C   3.958        C 2484 1.028    O 2488 0.962    H 2483 0.958    C 2480 0.958
  2483  H   0.998        C 2482 0.958
  2484  C   3.991        C 2482 1.028    H 2485 0.976    H 2487 0.975    H 2486 0.975
  2485  H   0.997        C 2484 0.976
  2486  H   0.995        C 2484 0.975
  2487  H   0.997        C 2484 0.975
  2488  O   1.928        C 2482 0.962    H 2489 0.879
  2489  H   0.902        O 2488 0.879
  2490  C   3.957        O 2491 1.606    N 2492 1.323    C 2480 0.956
  2491  O   1.916        C 2490 1.606    N 2492 0.201
  2492  N   3.475        C 2490 1.323    C 2494 0.981    H 2493 0.902    O 2491 0.201
  2493  H   0.945        N 2492 0.902
  2494  C   3.952        N 2492 0.981    C 2497 0.962    H 2496 0.947    H 2495 0.947
  2495  H   0.985        C 2494 0.947
  2496  H   0.985        C 2494 0.947
  2497  C   3.946        O 2498 1.627    N 2499 1.293    C 2494 0.962
  2498  O   1.944        C 2497 1.627    N 2499 0.196
  2499  N   3.472        C 2497 1.293    C 2501 0.985    H 2500 0.922    O 2498 0.196
  2500  H   0.959        N 2499 0.922
  2501  C   3.971        N 2499 0.985    H 2502 0.946    C 2503 0.940    C 2511 0.939
  2502  H   0.992        C 2501 0.946
  2503  C   3.949        C 2505 1.001    O 2509 0.997    H 2504 0.957    C 2501 0.940
  2504  H   0.999        C 2503 0.957
  2505  C   3.987        C 2503 1.001    H 2508 0.984    H 2506 0.983    H 2507 0.981
  2506  H   0.996        C 2505 0.983
  2507  H   0.995        C 2505 0.981
  2508  H   0.997        C 2505 0.984
  2509  O   1.959        C 2503 0.997    H 2510 0.873
  2510  H   0.908        O 2509 0.873
  2511  C   3.949        O 2512 1.651    N 2513 1.290    C 2501 0.939
  2512  O   1.971        C 2511 1.651    N 2513 0.192
  2513  N   3.444        C 2511 1.290    C 2515 0.958    H 2514 0.919    O 2512 0.192
  2514  H   0.958        N 2513 0.919
  2515  C   3.947        C 2517 0.969    N 2513 0.958    C 2535 0.941    H 2516 0.937
  2516  H   0.989        C 2515 0.937
  2517  C   3.973        C 2520 0.986    H 2519 0.973    C 2515 0.969    H 2518 0.964
  2518  H   0.991        C 2517 0.964
  2519  H   0.996        C 2517 0.973
  2520  C   3.960        C 2521 1.620    C 2534 1.172    C 2517 0.986
  2521  C   3.964        C 2520 1.620    N 2523 1.200    H 2522 0.964
  2522  H   0.997        C 2521 0.964
  2523  N   3.543        C 2521 1.200    C 2525 1.175    H 2524 0.935
  2524  H   0.962        N 2523 0.935
  2525  C   3.953        C 2526 1.366    C 2534 1.214    N 2523 1.175
  2526  C   3.981        C 2528 1.442    C 2525 1.366    H 2527 0.961    C 2532 0.109
  2527  H   0.996        C 2526 0.961
  2528  C   3.986        C 2526 1.442    C 2530 1.383    H 2529 0.964
  2529  H   0.994        C 2528 0.964
  2530  C   3.987        C 2532 1.465    C 2528 1.383    H 2531 0.959
  2531  H   0.994        C 2530 0.959
  2532  C   3.991        C 2530 1.465    C 2534 1.372    H 2533 0.965    C 2526 0.109
  2533  H   0.998        C 2532 0.965
  2534  C   3.978        C 2532 1.372    C 2525 1.214    C 2520 1.172
  2535  C   3.935        O 2536 1.618    N 2537 1.294    C 2515 0.941
  2536  O   1.975        C 2535 1.618    N 2537 0.189
  2537  N   3.460        C 2535 1.294    C 2539 0.979    H 2538 0.908    O 2536 0.189
  2538  H   0.957        N 2537 0.908
  2539  C   3.967        N 2537 0.979    C 2541 0.967    C 2547 0.942    H 2540 0.938
  2540  H   0.994        C 2539 0.938
  2541  C   3.985        H 2543 0.976    H 2542 0.971    C 2539 0.967    C 2544 0.935
  2542  H   0.998        C 2541 0.971
  2543  H   0.998        C 2541 0.976
  2544  C   3.939        O 2546 1.530    O 2545 1.449    C 2541 0.935
  2545  O   1.782        C 2544 1.449    O 2546 0.219
  2546  O   1.819        C 2544 1.530    O 2545 0.219
  2547  C   3.941        O 2548 1.660    N 2549 1.254    C 2539 0.942
  2548  O   1.959        C 2547 1.660    N 2549 0.187
  2549  N   3.422        C 2547 1.254    C 2551 0.964    H 2550 0.931    O 2548 0.187
  2550  H   0.963        N 2549 0.931
  2551  C   3.943        C 2553 0.989    N 2549 0.964    H 2552 0.951    C 2557 0.913
  2552  H   0.993        C 2551 0.951
  2553  C   3.975        C 2551 0.989    H 2556 0.982    H 2554 0.979    H 2555 0.978
  2554  H   0.996        C 2553 0.979
  2555  H   0.992        C 2553 0.978
  2556  H   0.995        C 2553 0.982
  2557  C   3.951        O 2558 1.619    N 2559 1.353    C 2551 0.913
  2558  O   1.939        C 2557 1.619    N 2559 0.200
  2559  N   3.484        C 2557 1.353    C 2561 0.944    H 2560 0.903    O 2558 0.200
  2560  H   0.959        N 2559 0.903
  2561  C   3.947        C 2563 0.955    H 2562 0.955    C 2578 0.950    N 2559 0.944
  2562  H   0.993        C 2561 0.955
  2563  C   3.985        C 2566 1.005    H 2565 0.973    H 2564 0.965    C 2561 0.955
  2564  H   0.996        C 2563 0.965
  2565  H   0.997        C 2563 0.973
  2566  C   3.982        C 2567 1.432    C 2576 1.380    C 2563 1.005
  2567  C   3.977        C 2566 1.432    C 2569 1.407    H 2568 0.964    C 2574 0.108
  2568  H   0.998        C 2567 0.964
  2569  C   3.979        C 2567 1.407    C 2571 1.386    H 2570 0.960    C 2576 0.105
  2570  H   0.993        C 2569 0.960
  2571  C   3.948        C 2569 1.386    C 2574 1.326    O 2572 1.112
  2572  O   2.147        C 2571 1.112    H 2573 0.844
  2573  H   0.887        O 2572 0.844
  2574  C   3.987        C 2576 1.485    C 2571 1.326    H 2575 0.964    C 2567 0.108
  2575  H   0.999        C 2574 0.964
  2576  C   3.991        C 2574 1.485    C 2566 1.380    H 2577 0.969    C 2569 0.105
  2577  H   1.000        C 2576 0.969
  2578  C   3.952        O 2579 1.613    N 2580 1.313    C 2561 0.950
  2579  O   1.932        C 2578 1.613    N 2580 0.200
  2580  N   3.475        C 2578 1.313    C 2582 0.966    H 2581 0.908    O 2579 0.200
  2581  H   0.960        N 2580 0.908
  2582  C   3.946        H 2583 0.968    N 2580 0.966    C 2584 0.957    C 2600 0.929
  2583  H   0.998        C 2582 0.968
  2584  C   3.985        C 2587 1.003    H 2585 0.978    H 2586 0.975    C 2582 0.957
  2585  H   0.999        C 2584 0.978
  2586  H   0.997        C 2584 0.975
  2587  C   3.986        C 2590 1.006    C 2584 1.003    H 2589 0.976    H 2588 0.969
  2588  H   0.991        C 2587 0.969
  2589  H   0.996        C 2587 0.976
  2590  C   3.991        C 2587 1.006    C 2593 0.999    H 2591 0.977    H 2592 0.975
  2591  H   0.998        C 2590 0.977
  2592  H   0.996        C 2590 0.975
  2593  C   3.904        C 2590 0.999    N 2596 0.968    H 2595 0.963    H 2594 0.954
  2594  H   0.978        C 2593 0.954
  2595  H   0.984        C 2593 0.963
  2596  N   3.660        C 2593 0.968    H 2597 0.895    H 2598 0.891    H 2599 0.886
  2597  H   0.920        N 2596 0.895
  2598  H   0.916        N 2596 0.891
  2599  H   0.904        N 2596 0.886
  2600  C   3.934        O 2601 1.495    O 2602 1.477    C 2582 0.929
  2601  O   1.798        C 2600 1.495    O 2602 0.223
  2602  O   1.771        C 2600 1.477    O 2601 0.223
  2603  O   2.088        C 2605 1.083    H 2604 0.791
  2604  H   0.880        O 2603 0.791
  2605  C   3.953        C 2606 1.374    C 2614 1.367    O 2603 1.083
  2606  C   3.983        C 2608 1.412    C 2605 1.374    H 2607 0.957    C 2612 0.107
  2607  H   0.995        C 2606 0.957
  2608  C   3.907        C 2606 1.412    C 2610 1.406    Cl2609 0.953
  2609  Cl  1.085        C 2608 0.953
  2610  C   3.981        C 2612 1.414    C 2608 1.406    H 2611 0.963
  2611  H   0.997        C 2610 0.963
  2612  C   3.982        C 2614 1.451    C 2610 1.414    H 2613 0.965    C 2606 0.107
  2613  H   0.995        C 2612 0.965
  2614  C   3.985        C 2612 1.451    C 2605 1.367    H 2615 0.958
  2615  H   0.994        C 2614 0.958

molecular dipole:
                 x           y           z       tot (Debye)
 q only:      591.325     723.761     630.164
   full:      595.055     722.564     639.675    2881.688
molecular quadrupole (traceless):
                xx          xy          yy          xz          yz          zz
 q only:   -12618.187   75349.252   16521.157   66675.474   80713.221   -3902.970
  q+dip:   -12779.405   75201.250   15206.190   67933.762   81544.259   -2426.785
   full:   -12775.681   75195.297   15191.818   67932.574   81536.234   -2416.137


           -------------------------------------------------
          | TOTAL ENERGY            -4109.244684418301 Eh   |
          | GRADIENT NORM               1.320728981239 Eh/α |
          | HOMO-LUMO GAP               1.739857551467 eV   |
           -------------------------------------------------

------------------------------------------------------------------------
 * finished run on 2020/07/25 at 19:59:32.161     
------------------------------------------------------------------------
 total:
 * wall-time:     0 d,  0 h,  7 min,  1.933 sec
 *  cpu-time:     0 d,  5 h, 10 min,  7.308 sec
 * ratio c/w:    44.100 speedup
 SCF:
 * wall-time:     0 d,  0 h,  6 min, 33.960 sec
 *  cpu-time:     0 d,  5 h,  1 min, 48.052 sec
 * ratio c/w:    45.964 speedup

