      -----------------------------------------------------------      
     |                   =====================                   |     
     |                           x T B                           |     
     |                   =====================                   |     
     |                         S. Grimme                         |     
     |          Mulliken Center for Theoretical Chemistry        |     
     |                    University of Bonn                     |     
      -----------------------------------------------------------      

   * xtb version 6.2.3 (d7bf61a) compiled by 'conda@06d140edd85e' on 2020-05-12

   xtb is free software: you can redistribute it and/or modify it under
   the terms of the GNU Lesser General Public License as published by
   the Free Software Foundation, either version 3 of the License, or
   (at your option) any later version.
   
   xtb is distributed in the hope that it will be useful,
   but WITHOUT ANY WARRANTY; without even the implied warranty of
   MERCHANTABILITY or FITNESS FOR A PARTICULAR PURPOSE.  See the
   GNU Lesser General Public License for more details.
   
   Cite this work as:
   * S. Grimme, C. Bannwarth, P. Shushkov, J. Chem. Theory Comput., 2017,
     13, 1989-2009. DOI: 10.1021/acs.jctc.7b00118
   * C. Bannwarth, S. Ehlert and S. Grimme., J. Chem. Theory Comput., 2019,
     15, 1652-1671. DOI: 10.1021/acs.jctc.8b01176
   * P. Pracht, E. Caldeweyher, S. Ehlert, S. Grimme, ChemRxiv, 2019, preprint.
     DOI: 10.26434/chemrxiv.8326202.v1
   
   for DFT-D4:
   * E. Caldeweyher, C. Bannwarth and S. Grimme, J. Chem. Phys., 2017,
     147, 034112. DOI: 10.1063/1.4993215
   * E. Caldeweyher, S. Ehlert, A. Hansen, H. Neugebauer, S. Spicher,
     C. Bannwarth and S. Grimme, J. Chem. Phys., 2019, 150, 154122.
     DOI: 10.1063/1.5090222
   
   for sTDA-xTB:
   * S. Grimme and C. Bannwarth, J. Chem. Phys., 2016, 145, 054103.
     DOI: 10.1063/1.4959605
   
   in the mass-spec context:
   * V. Asgeirsson, C. Bauer and S. Grimme, Chem. Sci., 2017, 8, 4879.
     DOI: 10.1039/c7sc00601b
   
   for metadynamics refer to:
   * S. Grimme, J. Chem. Theory Comput., 2019, 155, 2847-2862
     DOI: 10.1021/acs.jctc.9b00143
   
   with help from (in alphabetical order)
   C. Bannwarth, F. Bohle, G. Brandenburg, E. Caldeweyher, M. Checinski,
   S. Dohm, S. Ehlert, S. Ehrlich, F. März, H. Neugebauer, J. Pisarek,
   P. Pracht, P. Shushkov, and S. Spicher.
   
 * started run on 2020/07/25 at 14:39:44.856     

           -------------------------------------------------
          |                Calculation Setup                |
           -------------------------------------------------

          program call               : xtb host_9981.xyz --chrg +9 --uhf 0 --gbsa water
          hostname                   : gold54.cluster.local
          coordinate file            : host_9981.xyz
          omp threads                :                    64
          number of atoms            :                  2602
          number of electrons        :                  7192
          charge                     :                     9
          spin                       :                   0.0
          first test random number   :      0.30984762096694

########################################################################
[WARNING] Please study the warnings concerning your input carefully
-2- prog_main: XTBPATH is not set, using XTBHOME instead
-1- prog_main: XTBHOME is not set, using HOME instead
########################################################################
           ------------------------------------------------- 
          |                 G F N 2 - x T B                 |
          | Geometry, Frequencies, Noncovalent interactions |
          |            JCTC 2019 parametrisation            |
           ------------------------------------------------- 
             k(s)              :                1.8500
             k(p)              :                2.2300
             k(d)              :                2.2300
             k(f)              :                2.0000
             kEN (H0ij)        :               -2.0000
             D4 a1             :                0.5200
             D4 a2             :                5.0000
             D4 s6             :                1.0000
             D4 s8             :                2.7000
             D4 s9             :                5.0000
             alphaj            :                2.0000

  Z AO/shell   Hii/eV     exponent
  1     Wed Apr 25 08:07:45 CEST 2018   EN: 2.200 GM2: 0.406  GM3: 0.0800  RAES: 1.40
     1s    -10.707211    1.230000
  6     Wed Apr 25 08:07:45 CEST 2018   EN: 2.550 GM2: 0.538  GM3: 0.1500  RAES: 3.00
     2s    -13.970922    2.096432
     2p    -10.063292    1.800000
  7     Wed Apr 25 08:07:45 CEST 2018   EN: 3.040 GM2: 0.461  GM3:-0.0640  RAES: 1.90
     2s    -16.686243    2.339881
     2p    -12.523956    2.014332
  8     Wed Apr 25 08:07:45 CEST 2018   EN: 3.440 GM2: 0.452  GM3:-0.0517  RAES: 1.80
     2s    -20.229985    2.439742
     2p    -15.503117    2.137023
 16     Tue Apr 24 11:44:34 CEST 2018   EN: 2.580 GM2: 0.340  GM3:-0.0502  RAES: 3.10
     3s    -20.029654    1.981333
     3p    -11.377694    2.025643
     3d     -0.420282    1.702555

 Solvent             : water
 Using internal parameter file: .param_gbsa2_water
 Gsolv ref. state (COSMO-RS): gsolv [1 M gas/solution]
 temperature (mdtemp)       :    298.14999999999998     
 dielectric constant        :    80.200000000000003     
 rho                        :    1.0000000000000000     
 mass                       :    18.000000000000000     
 surface tension            :    15.568945408385856     
 probe radius               :   0.97531378999999996     
 Gshift (Eh)                :    1.8574431267947933E-003
 c1                         :    1.5524381700000001     
 soset                      :   0.13032636000000000     
 HB correction              :  T
           ------------------------------------------------- 
          |        Self-Consistent Charge Iterations        |
           ------------------------------------------------- 

          ...................................................
          :                      SETUP                      :
          :.................................................:
          :  # basis functions                6511          :
          :  # atomic orbitals                6505          :
          :  # shells                         3899          :
          :  # electrons                      7192          :
          :  max. iterations                   250          :
          :  Hamiltonian                  GFN2-xTB          :
          :  restarted?                      false          :
          :  GBSA solvation                   true          :
          :  PC potential                    false          :
          :  electronic temp.          300.0000000     K    :
          :  accuracy                    1.0000000          :
          :  -> integral cutoff          0.2500000E+02      :
          :  -> integral neglect         0.1000000E-07      :
          :  -> SCF convergence          0.1000000E-05 Eh   :
          :  -> wf. convergence          0.1000000E-03 e    :
          :  Broyden damping             0.4000000          :
          ...................................................

 iter      E             dE          RMSdq      gap      omega  full diag
   1  -4120.4549873 -0.412045E+04  0.429E+00    2.34       0.0  T
   2  -4132.7756797 -0.123207E+02  0.227E+00    2.54       1.0  T
   3  -4133.2604457 -0.484766E+00  0.120E+00    1.84       1.0  T
   4  -4133.3300033 -0.695575E-01  0.294E-01    1.59       1.0  T
   5  -4133.4363053 -0.106302E+00  0.146E-01    1.43       1.0  T
   6  -4133.4513502 -0.150449E-01  0.765E-02    1.54       1.0  T
   7  -4133.4539704 -0.262012E-02  0.401E-02    1.48       1.0  T
   8  -4133.4551728 -0.120247E-02  0.179E-02    1.44       1.0  T
   9  -4133.4553599 -0.187099E-03  0.108E-02    1.42       1.0  T
  10  -4133.4554520 -0.920716E-04  0.544E-03    1.40       1.0  T
  11  -4133.4554747 -0.226528E-04  0.269E-03    1.39       1.0  T
  12  -4133.4554809 -0.627364E-05  0.144E-03    1.38       1.4  T
  13  -4133.4554826 -0.169926E-05  0.788E-04    1.38       2.5  T
  14  -4133.4554832 -0.544163E-06  0.402E-04    1.38       4.9  T
  15  -4133.4554833 -0.150133E-06  0.201E-04    1.38       9.7  T

   *** convergence criteria satisfied after 15 iterations ***

         #    Occupation            Energy/Eh            Energy/eV
      -------------------------------------------------------------
         1        2.0000           -0.7573044             -20.6073
       ...           ...                  ...                  ...
      3590        2.0000           -0.3585718              -9.7572
      3591        2.0000           -0.3553397              -9.6693
      3592        2.0000           -0.3553280              -9.6690
      3593        2.0000           -0.3543504              -9.6424
      3594        2.0000           -0.3540929              -9.6354
      3595        2.0000           -0.3462643              -9.4223
      3596        2.0000           -0.3415844              -9.2950 (HOMO)
      3597                         -0.2909865              -7.9181 (LUMO)
      3598                         -0.2756693              -7.5013
      3599                         -0.2716313              -7.3915
      3600                         -0.2689157              -7.3176
      3601                         -0.2657975              -7.2327
       ...                                ...                  ...
      6505                          0.7732483              21.0412
      -------------------------------------------------------------
                  HL-Gap            0.0505978 Eh            1.3768 eV
             Fermi-level           -0.3162854 Eh           -8.6066 eV

 SCC (total)                   0 d,  0 h,  6 min, 20.240 sec
 SCC setup                      ...        0 min,  3.039 sec (  0.799%)
 Dispersion                     ...        0 min,  1.981 sec (  0.521%)
 integral evaluation            ...        0 min,  8.324 sec (  2.189%)
 zeroth order Hamiltonian       ...        0 min,  0.343 sec (  0.090%)
 iterations                     ...        5 min, 48.721 sec ( 91.711%)
 molecular gradient             ...        0 min, 17.231 sec (  4.532%)
 printout                       ...        0 min,  0.601 sec (  0.158%)

         :::::::::::::::::::::::::::::::::::::::::::::::::::::
         ::                     SUMMARY                     ::
         :::::::::::::::::::::::::::::::::::::::::::::::::::::
         :: total energy           -4085.330020305316 Eh    ::
         :: total w/o Gsasa/hb     -4084.939942574585 Eh    ::
         :: gradient norm              1.326683950968 Eh/a0 ::
         :: HOMO-LUMO gap              1.376837296465 eV    ::
         ::.................................................::
         :: SCC energy             -4133.519700975068 Eh    ::
         :: -> isotropic ES           14.281727914976 Eh    ::
         :: -> anisotropic ES         -0.833350565987 Eh    ::
         :: -> anisotropic XC          1.159964500710 Eh    ::
         :: -> dispersion             -3.916872916526 Eh    ::
         :: -> Gsolv                  -4.154786681941 Eh    ::
         ::    -> Gborn               -3.764708951208 Eh    ::
         ::    -> Gsasa               -0.066075097388 Eh    ::
         ::    -> Ghb                 -0.325860076471 Eh    ::
         ::    -> Gshift               0.001857443127 Eh    ::
         :: repulsion energy          47.646888836249 Eh    ::
         :: add. restraining           0.000000000000 Eh    ::
         :::::::::::::::::::::::::::::::::::::::::::::::::::::

           -------------------------------------------------
          |                Property Printout                |
           -------------------------------------------------

    * Orbital Energies and Occupations

         #    Occupation            Energy/Eh            Energy/eV
      -------------------------------------------------------------
         1        2.0000           -0.7573044             -20.6073
       ...           ...                  ...                  ...
      3584        2.0000           -0.3670456              -9.9878
      3585        2.0000           -0.3644250              -9.9165
      3586        2.0000           -0.3620513              -9.8519
      3587        2.0000           -0.3606826              -9.8147
      3588        2.0000           -0.3603619              -9.8059
      3589        2.0000           -0.3592607              -9.7760
      3590        2.0000           -0.3585718              -9.7572
      3591        2.0000           -0.3553397              -9.6693
      3592        2.0000           -0.3553280              -9.6690
      3593        2.0000           -0.3543504              -9.6424
      3594        2.0000           -0.3540929              -9.6354
      3595        2.0000           -0.3462643              -9.4223
      3596        2.0000           -0.3415844              -9.2950 (HOMO)
      3597                         -0.2909865              -7.9181 (LUMO)
      3598                         -0.2756693              -7.5013
      3599                         -0.2716313              -7.3915
      3600                         -0.2689157              -7.3176
      3601                         -0.2657975              -7.2327
      3602                         -0.2630760              -7.1587
      3603                         -0.2628195              -7.1517
      3604                         -0.2624238              -7.1409
      3605                         -0.2623458              -7.1388
      3606                         -0.2617903              -7.1237
      3607                         -0.2613376              -7.1114
       ...                                ...                  ...
      6505                          0.7732483              21.0412
      -------------------------------------------------------------
                  HL-Gap            0.0505978 Eh            1.3768 eV
             Fermi-level           -0.3162854 Eh           -8.6066 eV

     #   Z        covCN         q      C6AA      α(0)
     1   7 N      3.491    -0.137    23.955     7.269
     2   1 H      0.860     0.310     0.684     1.296
     3   1 H      0.860     0.287     0.753     1.359
     4   1 H      0.860     0.313     0.677     1.289
     5   6 C      3.785    -0.029    21.100     6.543
     6   1 H      0.924     0.126     1.562     1.955
     7   6 C      3.833    -0.102    22.422     6.737
     8   1 H      0.924     0.089     1.884     2.147
     9   1 H      0.924     0.099     1.790     2.092
    10   6 C      3.791    -0.049    21.463     6.598
    11   1 H      0.925     0.095     1.827     2.114
    12   1 H      0.924     0.084     1.942     2.180
    13  16 S      1.958    -0.211   150.048    20.617
    14   6 C      3.741    -0.058    21.694     6.645
    15   1 H      0.925     0.059     2.211     2.325
    16   1 H      0.925     0.022     2.704     2.571
    17   1 H      0.925     0.056     2.240     2.341
    18   6 C      2.762     0.260    22.620     7.789
    19   8 O      0.860    -0.419    22.071     6.299
    20   7 N      2.690    -0.162    24.504     7.352
    21   1 H      0.860     0.212     1.048     1.603
    22   6 C      3.784     0.019    20.274     6.414
    23   1 H      0.924     0.115     1.657     2.013
    24   6 C      3.819    -0.115    22.673     6.777
    25   1 H      0.925     0.083     1.945     2.181
    26   1 H      0.924     0.101     1.775     2.083
    27   6 C      2.744     0.288    22.111     7.699
    28   8 O      0.859    -0.514    24.098     6.582
    29   7 N      2.648    -0.268    26.928     7.707
    30   1 H      0.860     0.235     0.946     1.523
    31   1 H      0.860     0.239     0.928     1.509
    32   6 C      2.745     0.272    22.410     7.751
    33   8 O      0.858    -0.506    23.925     6.558
    34   7 N      2.682    -0.155    24.356     7.330
    35   1 H      0.860     0.233     0.952     1.528
    36   6 C      3.787    -0.001    20.614     6.467
    37   1 H      0.925     0.101     1.774     2.083
    38   6 C      3.853    -0.040    21.258     6.558
    39   1 H      0.925     0.091     1.865     2.136
    40   6 C      3.756    -0.127    22.996     6.837
    41   1 H      0.925     0.048     2.342     2.393
    42   1 H      0.924     0.079     1.986     2.204
    43   1 H      0.925     0.034     2.535     2.490
    44   6 C      3.799    -0.079    22.011     6.680
    45   1 H      0.925     0.034     2.528     2.486
    46   1 H      0.925     0.067     2.124     2.279
    47   6 C      3.749    -0.128    23.015     6.842
    48   1 H      0.925     0.059     2.205     2.322
    49   1 H      0.925     0.044     2.390     2.418
    50   1 H      0.924     0.054     2.277     2.360
    51   6 C      2.742     0.276    22.329     7.737
    52   8 O      0.859    -0.490    23.564     6.508
    53   7 N      2.683    -0.190    25.131     7.445
    54   1 H      0.860     0.228     0.974     1.546
    55   6 C      3.778     0.029    20.110     6.389
    56   1 H      0.924     0.070     2.088     2.259
    57   6 C      3.797    -0.075    21.935     6.669
    58   1 H      0.925     0.055     2.262     2.352
    59   1 H      0.925     0.074     2.047     2.237
    60   6 C      2.950     0.010    27.797     8.647
    61   6 C      2.909    -0.039    28.972     8.826
    62   1 H      0.926     0.018     2.763     2.599
    63   6 C      2.902    -0.036    28.890     8.813
    64   1 H      0.926     0.020     2.740     2.589
    65   6 C      2.896    -0.035    28.863     8.809
    66   1 H      0.926     0.035     2.516     2.480
    67   6 C      2.903    -0.037    28.919     8.818
    68   1 H      0.926     0.068     2.102     2.267
    69   6 C      2.906    -0.050    29.231     8.865
    70   1 H      0.926     0.072     2.063     2.246
    71   6 C      2.746     0.269    22.453     7.759
    72   8 O      0.858    -0.517    24.168     6.591
    73   7 N      2.679    -0.210    25.574     7.511
    74   1 H      0.860     0.223     0.996     1.563
    75   6 C      3.778     0.026    20.154     6.396
    76   1 H      0.925     0.064     2.149     2.292
    77   6 C      3.796    -0.058    21.628     6.622
    78   1 H      0.924     0.054     2.276     2.359
    79   1 H      0.925     0.065     2.140     2.288
    80   6 C      3.805    -0.090    22.212     6.709
    81   1 H      0.925     0.040     2.447     2.446
    82   1 H      0.925     0.030     2.587     2.515
    83   6 C      2.688     0.365    20.809     7.465
    84   8 O      0.856    -0.642    27.167     6.988
    85   8 O      0.857    -0.642    27.179     6.990
    86   6 C      2.748     0.275    22.343     7.740
    87   8 O      0.858    -0.500    23.795     6.540
    88   7 N      2.697    -0.223    25.863     7.553
    89   1 H      0.860     0.255     0.864     1.456
    90   6 C      3.791     0.019    20.263     6.411
    91   1 H      0.925     0.078     2.002     2.213
    92   6 C      3.850    -0.088    22.144     6.693
    93   1 H      0.924     0.072     2.063     2.246
    94   1 H      0.925     0.091     1.872     2.140
    95   6 C      3.795    -0.020    20.940     6.516
    96   1 H      0.925     0.070     2.091     2.261
    97   1 H      0.925     0.025     2.665     2.553
    98  16 S      1.976    -0.160   147.822    20.463
    99   6 C      3.747    -0.065    21.818     6.663
   100   1 H      0.925     0.071     2.075     2.252
   101   1 H      0.925     0.059     2.216     2.328
   102   1 H      0.925     0.034     2.525     2.485
   103   6 C      2.752     0.268    22.467     7.762
   104   8 O      0.859    -0.518    24.185     6.594
   105   7 N      2.685    -0.185    25.013     7.428
   106   1 H      0.860     0.243     0.910     1.494
   107   6 C      3.796     0.030    20.076     6.380
   108   1 H      0.924     0.088     1.894     2.152
   109   6 C      3.796    -0.082    22.079     6.691
   110   1 H      0.924     0.069     2.095     2.263
   111   1 H      0.925     0.058     2.228     2.334
   112   6 C      3.844    -0.026    21.004     6.519
   113   1 H      0.925     0.058     2.219     2.330
   114   6 C      3.763    -0.131    23.064     6.846
   115   1 H      0.924     0.037     2.485     2.465
   116   1 H      0.925     0.053     2.278     2.360
   117   1 H      0.924     0.064     2.153     2.295
   118   6 C      3.765    -0.120    22.834     6.811
   119   1 H      0.925     0.064     2.155     2.296
   120   1 H      0.925     0.029     2.601     2.522
   121   1 H      0.925     0.035     2.514     2.480
   122   6 C      2.747     0.271    22.424     7.754
   123   8 O      0.863    -0.523    24.290     6.608
   124   7 N      2.688    -0.173    24.743     7.388
   125   1 H      0.860     0.181     1.209     1.722
   126   6 C      3.785     0.030    20.080     6.383
   127   1 H      0.925     0.080     1.976     2.198
   128   6 C      3.809    -0.070    21.826     6.650
   129   1 H      0.925     0.041     2.431     2.438
   130   1 H      0.924     0.070     2.084     2.257
   131   6 C      3.799    -0.068    21.798     6.648
   132   1 H      0.925     0.054     2.273     2.358
   133   1 H      0.925     0.064     2.148     2.292
   134   6 C      3.741     0.001    20.641     6.482
   135   1 H      0.925     0.068     2.106     2.269
   136   1 H      0.925     0.070     2.090     2.261
   137   7 N      2.724    -0.171    24.688     7.380
   138   1 H      0.860     0.231     0.960     1.535
   139   6 C      2.736     0.257    22.667     7.795
   140   7 N      2.690    -0.265    26.861     7.697
   141   1 H      0.860     0.237     0.937     1.516
   142   1 H      0.860     0.246     0.900     1.486
   143   7 N      2.697    -0.292    27.517     7.791
   144   1 H      0.860     0.239     0.926     1.507
   145   1 H      0.860     0.252     0.875     1.466
   146   6 C      2.750     0.276    22.325     7.737
   147   8 O      0.861    -0.512    24.059     6.576
   148   7 N      2.684    -0.162    24.506     7.352
   149   1 H      0.860     0.205     1.080     1.628
   150   6 C      3.787     0.021    20.242     6.408
   151   1 H      0.925     0.089     1.888     2.149
   152   6 C      3.845    -0.017    20.852     6.495
   153   1 H      0.925     0.050     2.320     2.382
   154   6 C      3.753    -0.109    22.652     6.787
   155   1 H      0.924     0.041     2.442     2.444
   156   1 H      0.925     0.045     2.388     2.416
   157   1 H      0.925     0.040     2.453     2.449
   158   6 C      3.787    -0.058    21.631     6.624
   159   1 H      0.924     0.023     2.682     2.561
   160   1 H      0.925     0.056     2.244     2.343
   161   6 C      3.739    -0.096    22.413     6.755
   162   1 H      0.924     0.042     2.419     2.432
   163   1 H      0.925     0.035     2.517     2.481
   164   1 H      0.924     0.031     2.570     2.507
   165   6 C      2.759     0.262    22.585     7.782
   166   8 O      0.856    -0.537    24.629     6.654
   167   7 N      2.686    -0.168    24.644     7.373
   168   1 H      0.860     0.227     0.977     1.548
   169   6 C      3.785     0.041    19.903     6.355
   170   1 H      0.925     0.052     2.298     2.370
   171   6 C      3.791    -0.102    22.454     6.748
   172   1 H      0.924     0.036     2.504     2.474
   173   1 H      0.925     0.044     2.400     2.423
   174   6 C      2.680     0.365    20.809     7.465
   175   8 O      0.857    -0.578    25.587     6.782
   176   8 O      0.857    -0.572    25.437     6.762
   177   6 C      2.733     0.275    22.340     7.738
   178   8 O      0.860    -0.512    24.060     6.576
   179   7 N      2.674    -0.151    24.271     7.317
   180   1 H      0.860     0.188     1.168     1.693
   181   6 C      3.776     0.022    20.224     6.408
   182   1 H      0.924     0.101     1.777     2.085
   183   6 C      3.797    -0.064    21.737     6.639
   184   1 H      0.925     0.064     2.147     2.292
   185   1 H      0.924     0.046     2.368     2.406
   186   6 C      3.800    -0.106    22.528     6.758
   187   1 H      0.925     0.045     2.381     2.413
   188   1 H      0.925     0.041     2.437     2.441
   189   6 C      2.687     0.359    20.899     7.482
   190   8 O      0.857    -0.627    26.793     6.940
   191   8 O      0.856    -0.633    26.945     6.960
   192   6 C      2.747     0.264    22.546     7.775
   193   8 O      0.860    -0.531    24.474     6.633
   194   7 N      2.685    -0.135    23.937     7.266
   195   1 H      0.860     0.226     0.981     1.552
   196   6 C      3.734    -0.056    21.672     6.644
   197   1 H      0.925     0.130     1.532     1.936
   198   1 H      0.925     0.085     1.929     2.172
   199   6 C      2.743     0.255    22.712     7.803
   200   8 O      0.857    -0.459    22.906     6.417
   201   7 N      2.687    -0.159    24.430     7.341
   202   1 H      0.860     0.210     1.058     1.611
   203   6 C      3.789     0.013    20.361     6.426
   204   1 H      0.925     0.071     2.070     2.250
   205   6 C      3.807    -0.081    22.047     6.684
   206   1 H      0.925     0.077     2.012     2.218
   207   1 H      0.925     0.046     2.368     2.406
   208   6 C      3.840    -0.018    20.871     6.499
   209   1 H      0.925     0.019     2.744     2.591
   210   6 C      3.761    -0.111    22.676     6.788
   211   1 H      0.925     0.046     2.376     2.411
   212   1 H      0.924     0.023     2.694     2.567
   213   1 H      0.925     0.031     2.566     2.505
   214   6 C      3.753    -0.130    23.051     6.846
   215   1 H      0.925     0.045     2.380     2.413
   216   1 H      0.925     0.061     2.193     2.316
   217   1 H      0.925     0.051     2.307     2.375
   218   6 C      2.750     0.255    22.713     7.804
   219   8 O      0.858    -0.483    23.412     6.487
   220   7 N      2.692    -0.150    24.255     7.314
   221   1 H      0.860     0.225     0.985     1.555
   222   6 C      3.790     0.016    20.322     6.420
   223   1 H      0.925     0.080     1.975     2.198
   224   6 C      3.802    -0.091    22.232     6.713
   225   1 H      0.925     0.097     1.809     2.103
   226   1 H      0.924     0.074     2.046     2.237
   227   6 C      3.802    -0.098    22.368     6.733
   228   1 H      0.925     0.074     2.041     2.234
   229   1 H      0.925     0.085     1.924     2.169
   230   6 C      3.735    -0.022    21.052     6.548
   231   1 H      0.924     0.092     1.861     2.133
   232   1 H      0.925     0.069     2.091     2.262
   233   7 N      2.692    -0.157    24.397     7.336
   234   1 H      0.860     0.255     0.866     1.458
   235   6 C      2.735     0.230    23.160     7.879
   236   7 N      2.710    -0.256    26.635     7.665
   237   1 H      0.860     0.231     0.962     1.536
   238   1 H      0.860     0.231     0.960     1.535
   239   7 N      2.716    -0.268    26.936     7.708
   240   1 H      0.860     0.255     0.863     1.455
   241   1 H      0.860     0.261     0.843     1.438
   242   6 C      2.753     0.260    22.615     7.787
   243   8 O      0.861    -0.480    23.355     6.479
   244   7 N      2.688    -0.162    24.499     7.351
   245   1 H      0.860     0.215     1.032     1.591
   246   6 C      3.793     0.015    20.331     6.421
   247   1 H      0.924     0.089     1.884     2.147
   248   6 C      3.807    -0.074    21.911     6.663
   249   1 H      0.925     0.037     2.483     2.464
   250   1 H      0.924     0.063     2.159     2.298
   251   6 C      3.836    -0.025    20.985     6.517
   252   1 H      0.924     0.040     2.450     2.448
   253   6 C      3.749    -0.124    22.954     6.833
   254   1 H      0.925     0.046     2.365     2.405
   255   1 H      0.924     0.043     2.411     2.428
   256   1 H      0.925     0.055     2.262     2.352
   257   6 C      3.741    -0.129    23.062     6.852
   258   1 H      0.924     0.045     2.378     2.412
   259   1 H      0.925     0.054     2.271     2.356
   260   1 H      0.925     0.043     2.415     2.430
   261   6 C      2.743     0.248    22.833     7.824
   262   8 O      0.856    -0.485    23.454     6.493
   263   7 N      2.700    -0.159    24.436     7.342
   264   1 H      0.860     0.199     1.110     1.650
   265   6 C      3.797     0.009    20.429     6.436
   266   1 H      0.925     0.094     1.842     2.122
   267   6 C      3.810    -0.082    22.060     6.686
   268   1 H      0.925     0.060     2.203     2.321
   269   1 H      0.924     0.061     2.192     2.315
   270   6 C      3.801    -0.085    22.121     6.696
   271   1 H      0.924     0.076     2.018     2.221
   272   1 H      0.925     0.081     1.968     2.194
   273   6 C      3.807    -0.094    22.286     6.720
   274   1 H      0.925     0.071     2.074     2.252
   275   1 H      0.924     0.077     2.006     2.215
   276   6 C      3.732    -0.058    21.718     6.652
   277   1 H      0.924     0.131     1.531     1.935
   278   1 H      0.925     0.136     1.493     1.911
   279   7 N      3.490    -0.151    24.264     7.316
   280   1 H      0.860     0.290     0.743     1.350
   281   1 H      0.860     0.304     0.702     1.312
   282   1 H      0.860     0.290     0.745     1.352
   283   6 C      2.770     0.255    22.719     7.806
   284   8 O      0.861    -0.509    23.980     6.566
   285   7 N      2.691    -0.146    24.170     7.302
   286   1 H      0.860     0.225     0.986     1.555
   287   6 C      3.785    -0.002    20.640     6.471
   288   1 H      0.924     0.074     2.041     2.234
   289   6 C      3.828    -0.049    21.427     6.587
   290   1 H      0.925     0.087     1.913     2.163
   291   6 C      3.743    -0.131    23.097     6.856
   292   1 H      0.925     0.034     2.529     2.487
   293   1 H      0.924     0.054     2.268     2.355
   294   1 H      0.925     0.070     2.084     2.257
   295   6 C      3.794    -0.083    22.090     6.693
   296   1 H      0.925     0.055     2.255     2.348
   297   1 H      0.924     0.033     2.549     2.497
   298   6 C      3.753    -0.136    23.171     6.864
   299   1 H      0.925     0.025     2.655     2.548
   300   1 H      0.925     0.056     2.247     2.344
   301   1 H      0.925     0.075     2.035     2.231
   302   6 C      2.748     0.278    22.290     7.731
   303   8 O      0.857    -0.466    23.044     6.436
   304   7 N      2.694    -0.166    24.588     7.364
   305   1 H      0.860     0.222     1.000     1.567
   306   6 C      3.794     0.005    20.501     6.448
   307   1 H      0.924     0.113     1.671     2.022
   308   6 C      3.793    -0.101    22.426     6.744
   309   1 H      0.925     0.097     1.815     2.107
   310   1 H      0.924     0.072     2.060     2.245
   311   6 C      2.957     0.003    27.953     8.672
   312   6 C      2.915    -0.048    29.189     8.859
   313   1 H      0.926     0.077     2.007     2.216
   314   6 C      2.906    -0.097    30.449     9.048
   315   1 H      0.926     0.042     2.423     2.434
   316   6 C      2.850     0.128    25.190     8.226
   317   8 O      1.662    -0.455    21.937     6.323
   318   1 H      0.806     0.334     0.627     1.244
   319   6 C      2.907    -0.065    29.605     8.922
   320   1 H      0.926     0.022     2.705     2.572
   321   6 C      2.914    -0.040    28.999     8.830
   322   1 H      0.926     0.082     1.961     2.190
   323   6 C      2.754     0.285    22.173     7.711
   324   8 O      0.861    -0.464    23.011     6.432
   325   7 N      2.683    -0.191    25.137     7.446
   326   1 H      0.860     0.217     1.024     1.585
   327   6 C      3.774     0.008    20.478     6.448
   328   1 H      0.924     0.081     1.968     2.194
   329   6 C      3.797    -0.074    21.927     6.668
   330   1 H      0.925     0.042     2.427     2.436
   331   1 H      0.924     0.077     2.010     2.217
   332   6 C      3.794    -0.080    22.027     6.683
   333   1 H      0.925     0.078     1.999     2.211
   334   1 H      0.925     0.047     2.364     2.404
   335   6 C      3.796    -0.096    22.331     6.729
   336   1 H      0.925     0.058     2.220     2.330
   337   1 H      0.924     0.082     1.963     2.191
   338   6 C      3.729    -0.052    21.608     6.636
   339   1 H      0.925     0.138     1.474     1.899
   340   1 H      0.924     0.120     1.614     1.987
   341   7 N      3.487    -0.155    24.348     7.329
   342   1 H      0.860     0.289     0.748     1.355
   343   1 H      0.860     0.305     0.698     1.309
   344   1 H      0.860     0.305     0.698     1.309
   345   6 C      2.747     0.265    22.528     7.772
   346   8 O      0.857    -0.484    23.436     6.491
   347   7 N      2.699    -0.190    25.120     7.444
   348   1 H      0.860     0.234     0.946     1.524
   349   6 C      3.796     0.041    19.889     6.350
   350   1 H      0.924     0.066     2.135     2.285
   351   6 C      3.806    -0.095    22.297     6.722
   352   1 H      0.925     0.031     2.570     2.507
   353   1 H      0.925     0.042     2.421     2.433
   354   6 C      2.689     0.363    20.838     7.471
   355   8 O      0.858    -0.668    27.841     7.074
   356   8 O      0.859    -0.606    26.271     6.872
   357   6 C      2.759     0.270    22.438     7.757
   358   8 O      0.859    -0.464    23.000     6.430
   359   7 N      2.689    -0.196    25.261     7.465
   360   1 H      0.860     0.196     1.125     1.662
   361   6 C      3.810     0.030    20.061     6.376
   362   1 H      0.925     0.086     1.913     2.163
   363   6 C      3.737     0.128    18.569     6.149
   364   1 H      0.924     0.031     2.572     2.508
   365   6 C      3.763    -0.141    23.259     6.874
   366   1 H      0.924     0.081     1.964     2.192
   367   1 H      0.925     0.045     2.385     2.415
   368   1 H      0.925     0.057     2.237     2.339
   369   8 O      1.664    -0.499    22.856     6.454
   370   1 H      0.806     0.337     0.620     1.237
   371   6 C      2.756     0.283    22.203     7.716
   372   8 O      0.862    -0.553    24.981     6.701
   373   7 N      2.690    -0.163    24.531     7.356
   374   1 H      0.860     0.212     1.048     1.604
   375   6 C      3.775     0.019    20.274     6.415
   376   1 H      0.924     0.076     2.017     2.221
   377   6 C      3.790    -0.041    21.322     6.576
   378   1 H      0.924     0.054     2.268     2.355
   379   1 H      0.925     0.036     2.507     2.476
   380   6 C      3.799    -0.090    22.210     6.710
   381   1 H      0.925     0.032     2.560     2.502
   382   1 H      0.924     0.018     2.757     2.597
   383   6 C      2.687     0.368    20.768     7.458
   384   8 O      0.857    -0.634    26.981     6.964
   385   8 O      0.857    -0.605    26.242     6.868
   386   6 C      2.767     0.269    22.462     7.762
   387   8 O      0.864    -0.500    23.772     6.537
   388   7 N      2.686    -0.168    24.626     7.370
   389   1 H      0.860     0.216     1.026     1.587
   390   6 C      3.754    -0.035    21.263     6.575
   391   1 H      0.925     0.105     1.743     2.065
   392   1 H      0.924     0.109     1.708     2.044
   393   6 C      2.752     0.276    22.334     7.738
   394   8 O      0.860    -0.467    23.061     6.439
   395   7 N      2.688    -0.147    24.190     7.305
   396   1 H      0.860     0.175     1.242     1.746
   397   6 C      3.795     0.040    19.910     6.354
   398   1 H      0.924     0.075     2.030     2.228
   399   6 C      3.809    -0.079    22.005     6.677
   400   1 H      0.925     0.075     2.036     2.231
   401   1 H      0.925     0.040     2.451     2.448
   402   6 C      2.953    -0.010    28.275     8.721
   403   6 C      2.918    -0.044    29.086     8.844
   404   1 H      0.926     0.023     2.681     2.561
   405   6 C      2.908    -0.076    29.902     8.967
   406   1 H      0.926     0.054     2.268     2.355
   407   6 C      2.836     0.145    24.833     8.166
   408   8 O      1.663    -0.399    20.825     6.160
   409   1 H      0.806     0.362     0.561     1.176
   410   6 C      2.912    -0.078    29.941     8.973
   411   1 H      0.926     0.056     2.247     2.344
   412   6 C      2.922    -0.034    28.859     8.810
   413   1 H      0.926     0.042     2.427     2.436
   414   6 C      2.749     0.253    22.738     7.808
   415   8 O      0.856    -0.518    24.192     6.594
   416   7 N      2.680    -0.163    24.517     7.354
   417   1 H      0.860     0.237     0.937     1.516
   418   6 C      3.782     0.021    20.232     6.407
   419   1 H      0.924     0.096     1.821     2.110
   420   6 C      3.804    -0.074    21.916     6.665
   421   1 H      0.925     0.075     2.037     2.232
   422   1 H      0.925     0.055     2.258     2.350
   423   6 C      2.949    -0.012    28.311     8.727
   424   6 C      2.898    -0.041    29.013     8.832
   425   1 H      0.926     0.039     2.468     2.457
   426   6 C      2.898    -0.068    29.703     8.936
   427   1 H      0.926     0.021     2.717     2.578
   428   6 C      2.827     0.132    25.103     8.210
   429   8 O      1.659    -0.399    20.821     6.160
   430   1 H      0.805     0.325     0.651     1.268
   431   6 C      2.899    -0.072    29.806     8.952
   432   1 H      0.926     0.090     1.880     2.144
   433   6 C      2.899    -0.050    29.232     8.865
   434   1 H      0.926     0.079     1.991     2.206
   435   6 C      2.741     0.253    22.741     7.808
   436   8 O      0.856    -0.512    24.043     6.574
   437   7 N      2.684    -0.160    24.463     7.346
   438   1 H      0.860     0.247     0.896     1.483
   439   6 C      3.787     0.018    20.288     6.415
   440   1 H      0.924     0.078     1.999     2.211
   441   6 C      3.733     0.130    18.550     6.147
   442   1 H      0.925     0.005     2.976     2.698
   443   6 C      3.740    -0.122    22.925     6.831
   444   1 H      0.924     0.049     2.327     2.386
   445   1 H      0.925     0.027     2.623     2.533
   446   1 H      0.925     0.030     2.584     2.514
   447   8 O      1.661    -0.429    21.427     6.249
   448   1 H      0.805     0.311     0.689     1.304
   449   6 C      2.754     0.257    22.675     7.798
   450   8 O      0.859    -0.472    23.171     6.454
   451   7 N      2.686    -0.141    24.057     7.285
   452   1 H      0.860     0.214     1.039     1.597
   453   6 C      3.787     0.014    20.354     6.426
   454   1 H      0.925     0.100     1.785     2.089
   455   6 C      3.833    -0.047    21.384     6.579
   456   1 H      0.924     0.064     2.157     2.297
   457   6 C      3.753    -0.136    23.166     6.863
   458   1 H      0.925     0.086     1.922     2.168
   459   1 H      0.925     0.038     2.473     2.459
   460   1 H      0.924     0.036     2.508     2.476
   461   6 C      3.787    -0.082    22.075     6.692
   462   1 H      0.925     0.055     2.255     2.348
   463   1 H      0.925     0.038     2.471     2.458
   464   6 C      3.745    -0.124    22.950     6.834
   465   1 H      0.925     0.048     2.341     2.393
   466   1 H      0.925     0.074     2.043     2.235
   467   1 H      0.925     0.058     2.219     2.329
   468   6 C      2.755     0.264    22.547     7.776
   469   8 O      0.858    -0.533    24.525     6.640
   470   7 N      2.694    -0.145    24.139     7.297
   471   1 H      0.860     0.243     0.913     1.496
   472   6 C      3.743    -0.027    21.133     6.558
   473   1 H      0.925     0.064     2.147     2.292
   474   1 H      0.925     0.095     1.832     2.117
   475   6 C      2.753     0.269    22.450     7.759
   476   8 O      0.868    -0.473    23.181     6.455
   477   7 N      2.691    -0.157    24.402     7.337
   478   1 H      0.861     0.182     1.201     1.716
   479   6 C      3.789    -0.003    20.645     6.471
   480   1 H      0.924     0.111     1.686     2.031
   481   6 C      3.826    -0.024    20.984     6.518
   482   1 H      0.925     0.042     2.424     2.435
   483   6 C      3.748    -0.120    22.873     6.821
   484   1 H      0.924     0.054     2.268     2.355
   485   1 H      0.925     0.056     2.244     2.343
   486   1 H      0.925     0.040     2.446     2.446
   487   6 C      3.788    -0.064    21.737     6.640
   488   1 H      0.925     0.031     2.572     2.508
   489   1 H      0.925     0.049     2.339     2.391
   490   6 C      3.747    -0.101    22.503     6.766
   491   1 H      0.925     0.041     2.436     2.441
   492   1 H      0.925     0.023     2.690     2.565
   493   1 H      0.924     0.039     2.467     2.456
   494   6 C      2.748     0.277    22.312     7.734
   495   8 O      0.864    -0.455    22.805     6.403
   496   7 N      2.693    -0.172    24.722     7.385
   497   1 H      0.860     0.216     1.029     1.589
   498   6 C      3.741    -0.037    21.307     6.586
   499   1 H      0.925     0.098     1.802     2.099
   500   1 H      0.925     0.103     1.759     2.074
   501   6 C      2.747     0.266    22.503     7.767
   502   8 O      0.857    -0.505    23.903     6.555
   503   7 N      2.689    -0.171    24.697     7.381
   504   1 H      0.860     0.239     0.928     1.509
   505   6 C      3.795     0.033    20.019     6.371
   506   1 H      0.924     0.057     2.237     2.339
   507   6 C      3.808    -0.084    22.093     6.691
   508   1 H      0.925     0.126     1.570     1.959
   509   1 H      0.924     0.084     1.939     2.178
   510   6 C      3.068     0.051    26.793     8.488
   511   7 N      2.790    -0.028    21.782     6.932
   512   1 H      0.860     0.237     0.937     1.516
   513   6 C      2.966     0.053    26.803     8.492
   514   1 H      0.925     0.161     1.319     1.796
   515   7 N      2.815     0.002    21.225     6.842
   516   1 H      0.860     0.278     0.782     1.386
   517   6 C      3.000    -0.008    28.198     8.711
   518   1 H      0.926     0.140     1.463     1.891
   519   6 C      2.745     0.255    22.716     7.804
   520   8 O      0.857    -0.470    23.129     6.448
   521   7 N      2.681    -0.162    24.501     7.351
   522   1 H      0.860     0.196     1.126     1.662
   523   6 C      3.798     0.014    20.347     6.423
   524   1 H      0.925     0.081     1.973     2.197
   525   6 C      3.802    -0.082    22.064     6.688
   526   1 H      0.925     0.044     2.401     2.423
   527   1 H      0.925     0.051     2.302     2.373
   528   6 C      3.848    -0.009    20.710     6.473
   529   1 H      0.925     0.029     2.596     2.520
   530   6 C      3.758    -0.120    22.847     6.815
   531   1 H      0.925     0.049     2.329     2.387
   532   1 H      0.924     0.032     2.555     2.499
   533   1 H      0.924     0.052     2.301     2.372
   534   6 C      3.755    -0.125    22.959     6.832
   535   1 H      0.924     0.067     2.114     2.274
   536   1 H      0.925     0.037     2.486     2.466
   537   1 H      0.924     0.054     2.271     2.357
   538   6 C      2.757     0.285    22.175     7.711
   539   8 O      0.858    -0.503    23.841     6.547
   540   7 N      2.699    -0.173    24.743     7.388
   541   1 H      0.860     0.228     0.972     1.545
   542   6 C      3.781     0.000    20.598     6.465
   543   1 H      0.924     0.089     1.893     2.152
   544   6 C      3.791    -0.090    22.227     6.714
   545   1 H      0.924     0.063     2.161     2.299
   546   1 H      0.925     0.062     2.176     2.307
   547   6 C      3.840    -0.022    20.932     6.509
   548   1 H      0.924     0.031     2.572     2.508
   549   6 C      3.751    -0.128    23.016     6.842
   550   1 H      0.924     0.071     2.074     2.252
   551   1 H      0.925     0.048     2.342     2.393
   552   1 H      0.925     0.049     2.328     2.386
   553   6 C      3.752    -0.126    22.969     6.834
   554   1 H      0.925     0.031     2.571     2.507
   555   1 H      0.925     0.049     2.327     2.386
   556   1 H      0.925     0.059     2.206     2.323
   557   6 C      2.753     0.266    22.514     7.770
   558   8 O      0.858    -0.495    23.680     6.524
   559   7 N      2.690    -0.159    24.448     7.344
   560   1 H      0.860     0.220     1.007     1.572
   561   6 C      3.799     0.013    20.353     6.423
   562   1 H      0.925     0.079     1.985     2.203
   563   6 C      3.715     0.102    19.019     6.230
   564   1 H      0.925     0.031     2.568     2.506
   565   6 C      3.746    -0.132    23.111     6.858
   566   1 H      0.925     0.065     2.145     2.290
   567   1 H      0.924     0.058     2.220     2.330
   568   1 H      0.925     0.076     2.018     2.222
   569   8 O      1.651    -0.476    22.380     6.386
   570   1 H      0.805     0.341     0.610     1.227
   571   6 C      2.749     0.259    22.641     7.791
   572   8 O      0.857    -0.465    23.027     6.434
   573   7 N      2.678    -0.183    24.973     7.422
   574   1 H      0.860     0.214     1.036     1.595
   575   6 C      3.777     0.006    20.499     6.451
   576   1 H      0.925     0.094     1.842     2.123
   577   6 C      3.805    -0.080    22.020     6.680
   578   1 H      0.924     0.073     2.052     2.240
   579   1 H      0.925     0.075     2.028     2.227
   580   6 C      3.800    -0.078    21.987     6.676
   581   1 H      0.925     0.060     2.199     2.319
   582   1 H      0.925     0.053     2.285     2.364
   583   6 C      3.800    -0.104    22.477     6.750
   584   1 H      0.924     0.079     1.985     2.203
   585   1 H      0.924     0.087     1.911     2.162
   586   6 C      3.722    -0.058    21.734     6.658
   587   1 H      0.925     0.122     1.598     1.977
   588   1 H      0.925     0.110     1.695     2.036
   589   7 N      3.484    -0.153    24.306     7.322
   590   1 H      0.860     0.301     0.710     1.320
   591   1 H      0.860     0.299     0.716     1.326
   592   1 H      0.860     0.295     0.727     1.336
   593   6 C      2.743     0.278    22.288     7.730
   594   8 O      0.858    -0.478    23.313     6.473
   595   7 N      2.682    -0.181    24.928     7.415
   596   1 H      0.860     0.223     0.995     1.562
   597   6 C      3.785     0.003    20.538     6.455
   598   1 H      0.925     0.056     2.244     2.343
   599   6 C      3.696     0.056    19.794     6.364
   600   1 H      0.925     0.088     1.902     2.157
   601   1 H      0.924     0.055     2.257     2.349
   602   8 O      1.655    -0.464    22.130     6.351
   603   1 H      0.805     0.345     0.601     1.217
   604   6 C      2.764     0.274    22.370     7.746
   605   8 O      0.859    -0.471    23.149     6.451
   606   7 N      2.737    -0.102    23.240     7.160
   607   6 C      3.829    -0.012    20.766     6.484
   608   1 H      0.924     0.070     2.080     2.256
   609   1 H      0.925     0.066     2.133     2.284
   610   6 C      3.805    -0.082    22.064     6.687
   611   1 H      0.925     0.063     2.168     2.303
   612   1 H      0.924     0.074     2.041     2.234
   613   6 C      3.855    -0.080    21.986     6.669
   614   1 H      0.925     0.083     1.948     2.183
   615   1 H      0.925     0.058     2.221     2.330
   616   6 C      3.823     0.018    20.261     6.405
   617   1 H      0.924     0.089     1.892     2.151
   618   6 C      2.741     0.270    22.445     7.757
   619   8 O      0.857    -0.481    23.364     6.481
   620   7 N      2.682    -0.173    24.750     7.389
   621   1 H      0.860     0.216     1.030     1.590
   622   6 C      3.780     0.011    20.412     6.436
   623   1 H      0.925     0.086     1.923     2.169
   624   6 C      3.671     0.050    19.976     6.406
   625   1 H      0.925     0.072     2.059     2.244
   626   1 H      0.925     0.058     2.225     2.333
   627   8 O      1.652    -0.482    22.508     6.404
   628   1 H      0.806     0.343     0.605     1.222
   629   6 C      2.747     0.267    22.489     7.765
   630   8 O      0.859    -0.458    22.866     6.411
   631   7 N      2.683    -0.186    25.032     7.431
   632   1 H      0.860     0.217     1.024     1.585
   633   6 C      3.774     0.001    20.600     6.467
   634   1 H      0.925     0.113     1.671     2.022
   635   6 C      3.791    -0.088    22.194     6.709
   636   1 H      0.924     0.058     2.226     2.333
   637   1 H      0.924     0.082     1.954     2.186
   638   6 C      3.841    -0.035    21.163     6.544
   639   1 H      0.924     0.063     2.164     2.300
   640   6 C      3.769    -0.139    23.205     6.865
   641   1 H      0.925     0.067     2.119     2.276
   642   1 H      0.924     0.066     2.130     2.282
   643   1 H      0.925     0.039     2.467     2.456
   644   6 C      3.772    -0.146    23.340     6.884
   645   1 H      0.925     0.074     2.044     2.236
   646   1 H      0.925     0.037     2.486     2.465
   647   1 H      0.924     0.064     2.152     2.294
   648   6 C      2.747     0.253    22.744     7.809
   649   8 O      0.859    -0.468    23.085     6.442
   650   7 N      2.693    -0.162    24.512     7.353
   651   1 H      0.860     0.214     1.040     1.597
   652   6 C      3.797     0.025    20.163     6.394
   653   1 H      0.924     0.099     1.797     2.096
   654   6 C      3.816    -0.109    22.572     6.762
   655   1 H      0.925     0.091     1.874     2.141
   656   1 H      0.925     0.109     1.705     2.042
   657   6 C      2.753     0.277    22.320     7.736
   658   8 O      0.858    -0.562    25.202     6.731
   659   7 N      2.638    -0.269    26.977     7.714
   660   1 H      0.860     0.235     0.944     1.522
   661   1 H      0.860     0.255     0.863     1.455
   662   6 C      2.741     0.265    22.535     7.773
   663   8 O      0.861    -0.500    23.775     6.537
   664   7 N      2.696    -0.192    25.157     7.449
   665   1 H      0.860     0.225     0.986     1.555
   666   6 C      3.791     0.034    20.008     6.370
   667   1 H      0.925     0.071     2.080     2.255
   668   6 C      3.754    -0.142    23.293     6.882
   669   1 H      0.924     0.070     2.080     2.255
   670   1 H      0.925     0.066     2.131     2.283
   671   1 H      0.924     0.099     1.798     2.097
   672   6 C      2.760     0.268    22.476     7.764
   673   8 O      0.859    -0.547    24.855     6.684
   674   7 N      2.680    -0.173    24.755     7.390
   675   1 H      0.860     0.235     0.943     1.521
   676   6 C      3.782     0.007    20.475     6.446
   677   1 H      0.925     0.074     2.042     2.235
   678   6 C      3.751    -0.149    23.432     6.903
   679   1 H      0.925     0.100     1.782     2.088
   680   1 H      0.925     0.084     1.938     2.177
   681   1 H      0.925     0.088     1.902     2.157
   682   6 C      2.747     0.270    22.436     7.756
   683   8 O      0.860    -0.499    23.759     6.535
   684   7 N      2.690    -0.172    24.712     7.383
   685   1 H      0.860     0.251     0.880     1.469
   686   6 C      3.804     0.010    20.413     6.432
   687   1 H      0.924     0.104     1.749     2.068
   688   6 C      3.806    -0.091    22.238     6.713
   689   1 H      0.925     0.061     2.185     2.311
   690   1 H      0.925     0.075     2.037     2.232
   691   6 C      3.805    -0.101    22.432     6.743
   692   1 H      0.925     0.107     1.720     2.051
   693   1 H      0.924     0.077     2.015     2.220
   694   6 C      3.800    -0.106    22.527     6.758
   695   1 H      0.924     0.064     2.158     2.297
   696   1 H      0.925     0.079     1.988     2.205
   697   6 C      3.726    -0.061    21.778     6.663
   698   1 H      0.925     0.142     1.449     1.882
   699   1 H      0.924     0.109     1.709     2.044
   700   7 N      3.489    -0.144    24.098     7.291
   701   1 H      0.860     0.298     0.718     1.327
   702   1 H      0.860     0.286     0.758     1.364
   703   1 H      0.860     0.304     0.702     1.312
   704   6 C      2.756     0.267    22.502     7.768
   705   8 O      0.859    -0.521    24.265     6.604
   706   7 N      2.689    -0.183    24.962     7.420
   707   1 H      0.860     0.234     0.949     1.526
   708   6 C      3.793     0.026    20.153     6.393
   709   1 H      0.924     0.057     2.230     2.335
   710   6 C      3.682     0.079    19.471     6.319
   711   1 H      0.925     0.047     2.358     2.402
   712   1 H      0.925     0.050     2.322     2.383
   713   8 O      1.657    -0.470    22.258     6.369
   714   1 H      0.805     0.340     0.612     1.229
   715   6 C      2.748     0.272    22.401     7.750
   716   8 O      0.860    -0.556    25.071     6.713
   717   7 N      2.677    -0.174    24.768     7.391
   718   1 H      0.860     0.232     0.957     1.533
   719   6 C      3.782     0.037    19.963     6.365
   720   1 H      0.925     0.061     2.183     2.311
   721   6 C      3.804    -0.054    21.544     6.608
   722   1 H      0.925     0.064     2.149     2.292
   723   1 H      0.924     0.070     2.088     2.260
   724   6 C      3.805    -0.085    22.118     6.695
   725   1 H      0.925     0.042     2.422     2.434
   726   1 H      0.925     0.030     2.592     2.518
   727   6 C      2.691     0.361    20.874     7.477
   728   8 O      0.858    -0.620    26.616     6.917
   729   8 O      0.856    -0.652    27.429     7.022
   730   6 C      2.749     0.259    22.628     7.789
   731   8 O      0.856    -0.507    23.945     6.561
   732   7 N      2.686    -0.178    24.853     7.404
   733   1 H      0.860     0.238     0.931     1.511
   734   6 C      3.782     0.015    20.344     6.425
   735   1 H      0.925     0.092     1.859     2.132
   736   6 C      3.804    -0.092    22.252     6.716
   737   1 H      0.925     0.060     2.198     2.319
   738   1 H      0.925     0.089     1.884     2.146
   739   6 C      3.846    -0.023    20.951     6.511
   740   1 H      0.925     0.021     2.713     2.576
   741   6 C      3.750    -0.122    22.911     6.827
   742   1 H      0.925     0.070     2.086     2.258
   743   1 H      0.924     0.030     2.588     2.516
   744   1 H      0.925     0.048     2.345     2.395
   745   6 C      3.756    -0.138    23.206     6.868
   746   1 H      0.924     0.072     2.060     2.245
   747   1 H      0.925     0.062     2.173     2.305
   748   1 H      0.925     0.050     2.322     2.383
   749   6 C      2.742     0.267    22.489     7.765
   750   8 O      0.859    -0.511    24.038     6.574
   751   7 N      2.692    -0.187    25.043     7.432
   752   1 H      0.860     0.235     0.946     1.523
   753   6 C      3.792     0.063    19.541     6.295
   754   1 H      0.925     0.050     2.324     2.384
   755   6 C      3.815    -0.081    22.039     6.682
   756   1 H      0.925     0.037     2.491     2.468
   757   1 H      0.925     0.057     2.233     2.337
   758   6 C      2.697     0.371    20.708     7.448
   759   8 O      0.858    -0.695    28.582     7.168
   760   8 O      0.858    -0.633    26.942     6.959
   761   6 C      2.746     0.286    22.153     7.707
   762   8 O      0.866    -0.525    24.337     6.614
   763   7 N      2.696    -0.194    25.202     7.456
   764   1 H      0.860     0.212     1.047     1.603
   765   6 C      3.794     0.044    19.843     6.343
   766   1 H      0.925     0.056     2.245     2.343
   767   6 C      3.819    -0.079    22.000     6.675
   768   1 H      0.925     0.067     2.122     2.278
   769   1 H      0.925     0.057     2.237     2.339
   770   6 C      3.797    -0.071    21.854     6.656
   771   1 H      0.924     0.063     2.169     2.303
   772   1 H      0.924     0.063     2.166     2.302
   773   6 C      3.801    -0.095    22.311     6.725
   774   1 H      0.925     0.063     2.159     2.298
   775   1 H      0.925     0.091     1.873     2.140
   776   6 C      3.734    -0.034    21.266     6.582
   777   1 H      0.925     0.113     1.668     2.019
   778   1 H      0.924     0.088     1.896     2.153
   779   7 N      3.490    -0.142    24.060     7.285
   780   1 H      0.860     0.299     0.717     1.327
   781   1 H      0.860     0.280     0.776     1.380
   782   1 H      0.860     0.287     0.753     1.359
   783   6 C      2.761     0.267    22.497     7.767
   784   8 O      0.858    -0.540    24.692     6.662
   785   7 N      2.693    -0.169    24.665     7.376
   786   1 H      0.860     0.210     1.055     1.609
   787   6 C      3.785     0.022    20.223     6.406
   788   1 H      0.925     0.091     1.868     2.138
   789   6 C      3.757    -0.135    23.140     6.858
   790   1 H      0.925     0.069     2.092     2.262
   791   1 H      0.925     0.083     1.944     2.181
   792   1 H      0.924     0.085     1.924     2.169
   793   6 C      2.745     0.278    22.302     7.732
   794   8 O      0.859    -0.466    23.048     6.437
   795   7 N      2.690    -0.209    25.552     7.508
   796   1 H      0.860     0.203     1.091     1.636
   797   6 C      3.789     0.023    20.207     6.402
   798   1 H      0.925     0.099     1.794     2.094
   799   6 C      3.858    -0.026    20.990     6.516
   800   1 H      0.925     0.069     2.092     2.262
   801   6 C      3.755    -0.098    22.435     6.754
   802   1 H      0.924     0.052     2.290     2.366
   803   1 H      0.924     0.024     2.674     2.557
   804   1 H      0.925     0.019     2.755     2.596
   805   6 C      3.805    -0.071    21.855     6.655
   806   1 H      0.924     0.043     2.405     2.425
   807   1 H      0.925     0.058     2.219     2.330
   808   6 C      3.752    -0.115    22.761     6.803
   809   1 H      0.924     0.042     2.423     2.434
   810   1 H      0.924     0.058     2.226     2.333
   811   1 H      0.925     0.042     2.422     2.434
   812   6 C      2.755     0.273    22.386     7.748
   813   8 O      0.866    -0.495    23.674     6.524
   814   7 N      2.693    -0.168    24.643     7.373
   815   1 H      0.860     0.179     1.220     1.730
   816   6 C      3.736    -0.022    21.044     6.547
   817   1 H      0.925     0.100     1.786     2.090
   818   1 H      0.924     0.077     2.006     2.215
   819   6 C      2.741     0.279    22.283     7.729
   820   8 O      0.857    -0.502    23.822     6.544
   821   7 N      2.682    -0.152    24.287     7.319
   822   1 H      0.860     0.203     1.089     1.635
   823   6 C      3.787     0.027    20.128     6.390
   824   1 H      0.925     0.071     2.073     2.252
   825   6 C      3.805    -0.077    21.963     6.672
   826   1 H      0.925     0.070     2.081     2.256
   827   1 H      0.925     0.074     2.039     2.233
   828   6 C      3.807    -0.063    21.699     6.631
   829   1 H      0.924     0.050     2.320     2.382
   830   1 H      0.924     0.054     2.267     2.355
   831   6 C      3.740    -0.014    20.908     6.524
   832   1 H      0.924     0.082     1.956     2.187
   833   1 H      0.925     0.075     2.036     2.231
   834   7 N      2.740    -0.185    25.008     7.427
   835   1 H      0.860     0.246     0.900     1.486
   836   6 C      2.736     0.255    22.718     7.804
   837   7 N      2.696    -0.267    26.909     7.704
   838   1 H      0.860     0.237     0.937     1.517
   839   1 H      0.860     0.254     0.867     1.459
   840   7 N      2.738    -0.268    26.924     7.706
   841   1 H      0.860     0.228     0.974     1.546
   842   1 H      0.860     0.252     0.877     1.467
   843   6 C      2.752     0.260    22.616     7.787
   844   8 O      0.856    -0.516    24.152     6.589
   845   7 N      2.686    -0.175    24.793     7.395
   846   1 H      0.860     0.222     0.998     1.565
   847   6 C      3.787     0.032    20.046     6.377
   848   1 H      0.925     0.075     2.030     2.228
   849   6 C      3.816    -0.122    22.819     6.799
   850   1 H      0.925     0.095     1.828     2.114
   851   1 H      0.925     0.094     1.843     2.123
   852   6 C      2.743     0.299    21.924     7.667
   853   8 O      0.868    -0.492    23.602     6.514
   854   7 N      2.648    -0.286    27.389     7.773
   855   1 H      0.860     0.253     0.870     1.461
   856   1 H      0.860     0.231     0.963     1.537
   857   6 C      2.747     0.264    22.544     7.774
   858   8 O      0.858    -0.476    23.258     6.466
   859   7 N      2.688    -0.158    24.411     7.338
   860   1 H      0.860     0.203     1.091     1.636
   861   6 C      3.871     0.002    20.499     6.438
   862   1 H      0.925     0.107     1.727     2.055
   863   6 C      3.793    -0.020    20.939     6.516
   864   1 H      0.925     0.066     2.134     2.284
   865   1 H      0.925     0.102     1.767     2.079
   866  16 S      1.984    -0.242   151.430    20.711
   867   1 H      0.923     0.121     1.604     1.981
   868   6 C      2.750     0.275    22.355     7.742
   869   8 O      0.859    -0.443    22.550     6.367
   870   7 N      2.704    -0.170    24.667     7.376
   871   1 H      0.860     0.193     1.143     1.675
   872   6 C      3.810     0.016    20.302     6.414
   873   1 H      0.925     0.073     2.048     2.238
   874   6 C      3.819    -0.104    22.460     6.745
   875   1 H      0.925     0.118     1.633     1.998
   876   1 H      0.925     0.064     2.147     2.292
   877   6 C      2.741     0.275    22.349     7.740
   878   8 O      0.875    -0.465    23.015     6.432
   879   7 N      2.652    -0.293    27.558     7.797
   880   1 H      0.860     0.264     0.830     1.427
   881   1 H      0.860     0.212     1.047     1.603
   882   6 C      2.768     0.271    22.421     7.755
   883   8 O      0.858    -0.407    21.811     6.262
   884   7 N      2.694    -0.173    24.744     7.388
   885   1 H      0.860     0.194     1.137     1.671
   886   6 C      3.759    -0.062    21.738     6.647
   887   1 H      0.924     0.129     1.545     1.944
   888   1 H      0.925     0.121     1.605     1.981
   889   6 C      2.745     0.275    22.357     7.742
   890   8 O      0.861    -0.458    22.872     6.412
   891   7 N      2.682    -0.155    24.346     7.328
   892   1 H      0.860     0.190     1.160     1.687
   893   6 C      3.787     0.008    20.451     6.441
   894   1 H      0.924     0.098     1.802     2.099
   895   6 C      3.848    -0.022    20.926     6.507
   896   1 H      0.925     0.041     2.440     2.443
   897   6 C      3.752    -0.122    22.903     6.825
   898   1 H      0.925     0.023     2.695     2.567
   899   1 H      0.925     0.068     2.103     2.268
   900   1 H      0.925     0.054     2.268     2.355
   901   6 C      3.753    -0.142    23.288     6.882
   902   1 H      0.924     0.062     2.181     2.309
   903   1 H      0.925     0.067     2.117     2.276
   904   1 H      0.924     0.076     2.024     2.225
   905   6 C      2.747     0.267    22.498     7.767
   906   8 O      0.857    -0.490    23.554     6.507
   907   7 N      2.680    -0.197    25.284     7.468
   908   1 H      0.860     0.233     0.953     1.530
   909   6 C      3.788     0.021    20.229     6.406
   910   1 H      0.925     0.071     2.074     2.252
   911   6 C      3.847    -0.020    20.890     6.501
   912   1 H      0.925     0.026     2.643     2.542
   913   6 C      3.760    -0.117    22.797     6.807
   914   1 H      0.924     0.054     2.270     2.356
   915   1 H      0.924     0.053     2.288     2.365
   916   1 H      0.925     0.029     2.607     2.525
   917   6 C      3.792    -0.068    21.809     6.651
   918   1 H      0.925     0.039     2.464     2.455
   919   1 H      0.925     0.074     2.045     2.236
   920   6 C      3.741    -0.118    22.834     6.818
   921   1 H      0.925     0.026     2.637     2.540
   922   1 H      0.924     0.040     2.445     2.445
   923   1 H      0.924     0.055     2.264     2.353
   924   6 C      2.750     0.260    22.613     7.787
   925   8 O      0.859    -0.489    23.535     6.504
   926   7 N      2.684    -0.159    24.442     7.343
   927   1 H      0.860     0.201     1.100     1.643
   928   6 C      3.787     0.004    20.519     6.452
   929   1 H      0.925     0.093     1.853     2.129
   930   6 C      3.726     0.111    18.861     6.201
   931   1 H      0.924     0.039     2.469     2.457
   932   6 C      3.745    -0.141    23.286     6.883
   933   1 H      0.925     0.060     2.202     2.320
   934   1 H      0.925     0.064     2.148     2.292
   935   1 H      0.925     0.049     2.336     2.390
   936   8 O      1.656    -0.524    23.420     6.533
   937   1 H      0.809     0.338     0.616     1.232
   938   6 C      2.749     0.270    22.444     7.757
   939   8 O      0.861    -0.461    22.945     6.422
   940   7 N      2.686    -0.191    25.133     7.446
   941   1 H      0.860     0.213     1.043     1.600
   942   6 C      3.789     0.021    20.241     6.408
   943   1 H      0.925     0.104     1.745     2.066
   944   6 C      3.813    -0.092    22.235     6.712
   945   1 H      0.925     0.071     2.071     2.250
   946   1 H      0.924     0.059     2.216     2.328
   947   6 C      3.805    -0.085    22.112     6.694
   948   1 H      0.924     0.079     1.993     2.208
   949   1 H      0.925     0.079     1.987     2.204
   950   6 C      3.807    -0.102    22.433     6.742
   951   1 H      0.925     0.100     1.786     2.090
   952   1 H      0.924     0.080     1.982     2.202
   953   6 C      3.736    -0.055    21.654     6.641
   954   1 H      0.925     0.105     1.736     2.060
   955   1 H      0.925     0.131     1.526     1.932
   956   7 N      3.489    -0.151    24.259     7.315
   957   1 H      0.860     0.304     0.701     1.312
   958   1 H      0.860     0.298     0.718     1.327
   959   1 H      0.860     0.291     0.741     1.348
   960   6 C      2.746     0.259    22.644     7.792
   961   8 O      0.858    -0.516    24.139     6.587
   962   7 N      2.680    -0.194    25.213     7.457
   963   1 H      0.860     0.214     1.035     1.594
   964   6 C      3.777     0.044    19.862     6.350
   965   1 H      0.924     0.057     2.231     2.336
   966   6 C      3.803    -0.096    22.332     6.728
   967   1 H      0.925     0.042     2.423     2.434
   968   1 H      0.925     0.051     2.302     2.373
   969   6 C      2.689     0.383    20.512     7.412
   970   8 O      0.858    -0.665    27.779     7.066
   971   8 O      0.859    -0.631    26.885     6.952
   972   6 C      2.741     0.272    22.409     7.751
   973   8 O      0.859    -0.511    24.023     6.571
   974   7 N      2.674    -0.193    25.190     7.454
   975   1 H      0.860     0.215     1.035     1.594
   976   6 C      3.778     0.012    20.392     6.434
   977   1 H      0.925     0.078     1.996     2.209
   978   6 C      3.807    -0.049    21.446     6.592
   979   1 H      0.925     0.071     2.072     2.251
   980   1 H      0.924     0.057     2.229     2.335
   981   6 C      3.808    -0.092    22.243     6.714
   982   1 H      0.925     0.040     2.448     2.447
   983   1 H      0.924     0.040     2.455     2.450
   984   6 C      2.693     0.359    20.910     7.484
   985   8 O      0.859    -0.617    26.530     6.906
   986   8 O      0.856    -0.570    25.388     6.755
   987   6 C      2.758     0.262    22.578     7.781
   988   8 O      0.861    -0.493    23.632     6.518
   989   7 N      2.700    -0.172    24.712     7.383
   990   1 H      0.860     0.217     1.025     1.586
   991   6 C      3.802     0.021    20.218     6.402
   992   1 H      0.925     0.106     1.732     2.058
   993   6 C      3.766    -0.133    23.095     6.850
   994   1 H      0.925     0.064     2.149     2.293
   995   1 H      0.925     0.091     1.872     2.139
   996   1 H      0.925     0.069     2.097     2.265
   997   6 C      2.755     0.272    22.405     7.751
   998   8 O      0.863    -0.510    23.998     6.568
   999   7 N      2.692    -0.186    25.034     7.431
  1000   1 H      0.860     0.216     1.028     1.588
  1001   6 C      3.797     0.028    20.114     6.386
  1002   1 H      0.925     0.076     2.017     2.221
  1003   6 C      3.809    -0.046    21.382     6.582
  1004   1 H      0.925     0.028     2.619     2.531
  1005   1 H      0.924     0.065     2.137     2.286
  1006   6 C      3.814    -0.095    22.293     6.720
  1007   1 H      0.925     0.042     2.429     2.437
  1008   1 H      0.925     0.032     2.560     2.502
  1009   6 C      2.695     0.378    20.592     7.427
  1010   8 O      0.859    -0.653    27.461     7.026
  1011   8 O      0.860    -0.605    26.242     6.868
  1012   6 C      2.747     0.270    22.432     7.755
  1013   8 O      0.861    -0.533    24.532     6.641
  1014   7 N      2.688    -0.170    24.684     7.379
  1015   1 H      0.860     0.205     1.082     1.630
  1016   6 C      3.786     0.027    20.135     6.391
  1017   1 H      0.924     0.077     2.014     2.219
  1018   6 C      3.810    -0.077    21.960     6.671
  1019   1 H      0.925     0.064     2.148     2.292
  1020   1 H      0.925     0.068     2.112     2.273
  1021   6 C      3.801    -0.077    21.968     6.673
  1022   1 H      0.924     0.058     2.217     2.329
  1023   1 H      0.925     0.055     2.253     2.347
  1024   6 C      3.799    -0.100    22.407     6.740
  1025   1 H      0.925     0.092     1.860     2.133
  1026   1 H      0.924     0.071     2.079     2.255
  1027   6 C      3.729    -0.054    21.649     6.642
  1028   1 H      0.925     0.124     1.582     1.967
  1029   1 H      0.924     0.133     1.513     1.924
  1030   7 N      3.487    -0.149    24.212     7.308
  1031   1 H      0.860     0.292     0.736     1.344
  1032   1 H      0.860     0.301     0.709     1.319
  1033   1 H      0.860     0.305     0.700     1.310
  1034   6 C      2.743     0.267    22.494     7.766
  1035   8 O      0.857    -0.482    23.384     6.483
  1036   7 N      2.679    -0.179    24.877     7.408
  1037   1 H      0.860     0.218     1.019     1.581
  1038   6 C      3.784     0.018    20.285     6.416
  1039   1 H      0.925     0.090     1.881     2.145
  1040   6 C      3.802    -0.079    22.003     6.678
  1041   1 H      0.925     0.057     2.229     2.335
  1042   1 H      0.925     0.065     2.137     2.286
  1043   6 C      3.848    -0.026    21.001     6.518
  1044   1 H      0.924     0.055     2.260     2.351
  1045   6 C      3.757    -0.139    23.223     6.871
  1046   1 H      0.924     0.070     2.083     2.257
  1047   1 H      0.925     0.061     2.185     2.312
  1048   1 H      0.925     0.064     2.157     2.297
  1049   6 C      3.752    -0.130    23.058     6.848
  1050   1 H      0.925     0.044     2.391     2.418
  1051   1 H      0.925     0.052     2.290     2.367
  1052   1 H      0.924     0.037     2.492     2.469
  1053   6 C      2.744     0.272    22.409     7.751
  1054   8 O      0.857    -0.486    23.469     6.495
  1055   7 N      2.684    -0.186    25.022     7.429
  1056   1 H      0.860     0.201     1.103     1.646
  1057   6 C      3.772     0.024    20.201     6.405
  1058   1 H      0.924     0.071     2.077     2.254
  1059   6 C      3.791    -0.084    22.115     6.697
  1060   1 H      0.924     0.066     2.132     2.283
  1061   1 H      0.924     0.075     2.034     2.230
  1062   6 C      2.953     0.004    27.944     8.670
  1063   6 C      2.912    -0.041    29.019     8.833
  1064   1 H      0.926     0.051     2.311     2.377
  1065   6 C      2.923    -0.040    28.997     8.831
  1066   1 H      0.926     0.045     2.379     2.412
  1067   6 C      2.915    -0.029    28.726     8.789
  1068   1 H      0.926     0.032     2.554     2.499
  1069   6 C      2.917    -0.028    28.699     8.785
  1070   1 H      0.926     0.043     2.408     2.426
  1071   6 C      2.929    -0.044    29.101     8.847
  1072   1 H      0.926     0.031     2.572     2.508
  1073   6 C      2.745     0.273    22.377     7.746
  1074   8 O      0.863    -0.498    23.748     6.534
  1075   7 N      2.691    -0.174    24.774     7.392
  1076   1 H      0.860     0.219     1.013     1.577
  1077   6 C      3.780     0.041    19.902     6.355
  1078   1 H      0.925     0.065     2.142     2.289
  1079   6 C      3.796    -0.104    22.494     6.754
  1080   1 H      0.924     0.074     2.044     2.236
  1081   1 H      0.925     0.067     2.121     2.278
  1082   6 C      2.736     0.292    22.040     7.686
  1083   8 O      0.873    -0.511    24.027     6.572
  1084   7 N      2.651    -0.251    26.533     7.650
  1085   1 H      0.860     0.257     0.858     1.451
  1086   1 H      0.860     0.225     0.987     1.556
  1087   6 C      2.734     0.277    22.310     7.733
  1088   8 O      0.860    -0.475    23.232     6.462
  1089   7 N      2.684    -0.200    25.340     7.476
  1090   1 H      0.860     0.199     1.114     1.653
  1091   6 C      3.787     0.029    20.107     6.387
  1092   1 H      0.924     0.084     1.939     2.178
  1093   6 C      3.829    -0.057    21.569     6.608
  1094   1 H      0.924     0.070     2.085     2.258
  1095   1 H      0.925     0.066     2.129     2.282
  1096   6 C      3.815    -0.104    22.470     6.747
  1097   1 H      0.925     0.087     1.910     2.161
  1098   1 H      0.925     0.084     1.936     2.176
  1099   6 C      2.765     0.292    22.048     7.690
  1100   8 O      0.871    -0.490    23.564     6.509
  1101   7 N      2.650    -0.315    28.100     7.873
  1102   1 H      0.860     0.241     0.920     1.502
  1103   1 H      0.860     0.214     1.036     1.594
  1104   6 C      2.753     0.275    22.350     7.741
  1105   8 O      0.859    -0.498    23.734     6.532
  1106   7 N      2.684    -0.184    24.989     7.424
  1107   1 H      0.860     0.219     1.015     1.578
  1108   6 C      3.794     0.047    19.793     6.335
  1109   1 H      0.925     0.062     2.171     2.304
  1110   6 C      3.809    -0.083    22.085     6.689
  1111   1 H      0.924     0.041     2.439     2.442
  1112   1 H      0.924     0.029     2.594     2.519
  1113   6 C      2.687     0.374    20.669     7.440
  1114   8 O      0.858    -0.628    26.828     6.944
  1115   8 O      0.857    -0.614    26.472     6.898
  1116   6 C      2.751     0.261    22.604     7.785
  1117   8 O      0.858    -0.489    23.540     6.505
  1118   7 N      2.689    -0.195    25.241     7.462
  1119   1 H      0.860     0.205     1.079     1.627
  1120   6 C      3.796     0.034    20.012     6.370
  1121   1 H      0.925     0.087     1.913     2.163
  1122   6 C      3.854    -0.015    20.814     6.489
  1123   1 H      0.925     0.037     2.488     2.466
  1124   6 C      3.807    -0.116    22.710     6.784
  1125   1 H      0.924     0.077     2.007     2.215
  1126   1 H      0.924     0.050     2.319     2.381
  1127   1 H      0.925     0.057     2.240     2.341
  1128   6 C      3.810    -0.117    22.733     6.787
  1129   1 H      0.924     0.050     2.315     2.379
  1130   1 H      0.925     0.020     2.739     2.588
  1131   1 H      0.925     0.051     2.302     2.373
  1132   6 C      2.744     0.259    22.643     7.791
  1133   8 O      0.858    -0.455    22.820     6.405
  1134   7 N      2.675    -0.205    25.468     7.495
  1135   1 H      0.860     0.177     1.229     1.737
  1136   6 C      3.772     0.041    19.913     6.359
  1137   1 H      0.924     0.094     1.843     2.123
  1138   6 C      3.795    -0.101    22.435     6.745
  1139   1 H      0.924     0.032     2.559     2.502
  1140   1 H      0.925     0.041     2.435     2.440
  1141   6 C      2.682     0.375    20.640     7.435
  1142   8 O      0.857    -0.597    26.054     6.843
  1143   8 O      0.857    -0.591    25.906     6.824
  1144   6 C      2.746     0.261    22.608     7.785
  1145   8 O      0.858    -0.476    23.263     6.467
  1146   7 N      2.684    -0.167    24.624     7.370
  1147   1 H      0.860     0.180     1.213     1.725
  1148   6 C      3.770     0.024    20.201     6.405
  1149   1 H      0.924     0.099     1.791     2.093
  1150   6 C      3.747    -0.126    22.995     6.840
  1151   1 H      0.924     0.045     2.384     2.415
  1152   1 H      0.924     0.068     2.104     2.268
  1153   1 H      0.925     0.085     1.931     2.173
  1154   6 C      2.742     0.252    22.768     7.813
  1155   8 O      0.859    -0.493    23.626     6.517
  1156   7 N      2.687    -0.162    24.504     7.352
  1157   1 H      0.860     0.183     1.194     1.712
  1158   6 C      3.796     0.025    20.156     6.393
  1159   1 H      0.925     0.100     1.787     2.091
  1160   6 C      3.749    -0.121    22.889     6.823
  1161   1 H      0.924     0.041     2.432     2.439
  1162   1 H      0.925     0.088     1.896     2.153
  1163   1 H      0.925     0.059     2.210     2.325
  1164   6 C      2.752     0.259    22.634     7.790
  1165   8 O      0.858    -0.501    23.806     6.542
  1166   7 N      2.684    -0.180    24.910     7.413
  1167   1 H      0.860     0.199     1.109     1.650
  1168   6 C      3.781    -0.002    20.631     6.471
  1169   1 H      0.924     0.105     1.740     2.063
  1170   6 C      3.845    -0.009    20.713     6.474
  1171   1 H      0.925     0.031     2.565     2.505
  1172   6 C      3.766    -0.128    22.990     6.834
  1173   1 H      0.924     0.047     2.364     2.404
  1174   1 H      0.925     0.055     2.256     2.349
  1175   1 H      0.924     0.077     2.011     2.218
  1176   6 C      3.762    -0.127    22.976     6.833
  1177   1 H      0.924     0.071     2.075     2.253
  1178   1 H      0.925     0.043     2.410     2.428
  1179   1 H      0.925     0.046     2.376     2.410
  1180   6 C      2.760     0.271    22.413     7.753
  1181   8 O      0.860    -0.475    23.234     6.463
  1182   7 N      2.691    -0.159    24.429     7.341
  1183   1 H      0.860     0.198     1.114     1.653
  1184   6 C      3.809     0.000    20.573     6.457
  1185   1 H      0.925     0.128     1.549     1.946
  1186   6 C      3.803    -0.088    22.174     6.704
  1187   1 H      0.925     0.085     1.933     2.174
  1188   1 H      0.925     0.053     2.278     2.360
  1189   6 C      3.798    -0.096    22.327     6.728
  1190   1 H      0.924     0.071     2.075     2.253
  1191   1 H      0.924     0.101     1.772     2.081
  1192   6 C      3.738    -0.034    21.259     6.579
  1193   1 H      0.925     0.096     1.821     2.110
  1194   1 H      0.924     0.083     1.946     2.182
  1195   7 N      2.736    -0.170    24.672     7.377
  1196   1 H      0.860     0.206     1.077     1.626
  1197   6 C      2.740     0.261    22.608     7.785
  1198   7 N      2.723    -0.251    26.516     7.648
  1199   1 H      0.860     0.255     0.863     1.455
  1200   1 H      0.860     0.258     0.852     1.446
  1201   7 N      2.710    -0.287    27.390     7.773
  1202   1 H      0.860     0.242     0.914     1.497
  1203   1 H      0.860     0.229     0.968     1.541
  1204   6 C      2.750     0.276    22.330     7.738
  1205   8 O      0.862    -0.443    22.563     6.369
  1206   7 N      2.693    -0.179    24.881     7.408
  1207   1 H      0.860     0.175     1.241     1.745
  1208   6 C      3.739    -0.031    21.216     6.572
  1209   1 H      0.925     0.076     2.017     2.221
  1210   1 H      0.924     0.089     1.891     2.151
  1211   6 C      2.756     0.286    22.154     7.708
  1212   8 O      0.866    -0.467    23.052     6.437
  1213   7 N      2.688    -0.194    25.215     7.458
  1214   1 H      0.860     0.207     1.073     1.623
  1215   6 C      3.792     0.008    20.445     6.439
[...]
  2283  H   0.985        C 2281 0.950
  2284  C   3.944        O 2285 1.642    N 2286 1.314    C 2281 0.955
  2285  O   1.981        C 2284 1.642    N 2286 0.199
  2286  N   3.397        C 2284 1.314    H 2287 0.925    H 2288 0.924    O 2285 0.199
  2287  H   0.947        N 2286 0.925
  2288  H   0.942        N 2286 0.924
  2289  C   3.942        O 2290 1.621    N 2291 1.330    C 2279 0.902
  2290  O   1.982        C 2289 1.621    N 2291 0.194
  2291  N   3.484        C 2289 1.330    C 2293 0.967    H 2292 0.922    O 2290 0.194
  2292  H   0.960        N 2291 0.922
  2293  C   3.955        C 2295 0.994    N 2291 0.967    H 2294 0.949    C 2313 0.902
  2294  H   0.994        C 2293 0.949
  2295  C   3.986        C 2298 1.001    C 2293 0.994    H 2296 0.966    H 2297 0.962
  2296  H   0.995        C 2295 0.966
  2297  H   0.993        C 2295 0.962
  2298  C   3.984        C 2301 1.014    C 2295 1.001    H 2300 0.971    H 2299 0.967
  2299  H   0.995        C 2298 0.967
  2300  H   0.993        C 2298 0.971
  2301  C   3.944        C 2298 1.014    H 2302 0.962    N 2304 0.956    H 2303 0.950
  2302  H   0.995        C 2301 0.962
  2303  H   0.992        C 2301 0.950
  2304  N   3.465        C 2306 1.347    C 2301 0.956    H 2305 0.874    N 2310 0.108    N 2307 0.107
  2305  H   0.938        N 2304 0.874
  2306  C   3.979        N 2304 1.347    N 2307 1.304    N 2310 1.291
  2307  N   3.383        C 2306 1.304    H 2308 0.921    H 2309 0.910    N 2304 0.107
  2308  H   0.942        N 2307 0.921
  2309  H   0.940        N 2307 0.910
  2310  N   3.381        C 2306 1.291    H 2311 0.924    H 2312 0.915    N 2304 0.108
  2311  H   0.948        N 2310 0.924
  2312  H   0.943        N 2310 0.915
  2313  C   3.954        O 2314 1.657    N 2315 1.320    C 2293 0.902
  2314  O   1.981        C 2313 1.657    N 2315 0.202
  2315  N   3.476        C 2313 1.320    C 2317 0.969    H 2316 0.899    O 2314 0.202
  2316  H   0.951        N 2315 0.899
  2317  C   3.956        C 2319 0.998    N 2315 0.969    H 2318 0.946    C 2323 0.935
  2318  H   0.992        C 2317 0.946
  2319  C   3.984        C 2317 0.998    H 2321 0.980    H 2322 0.978    H 2320 0.978
  2320  H   0.994        C 2319 0.978
  2321  H   0.997        C 2319 0.980
  2322  H   0.995        C 2319 0.978
  2323  C   3.952        O 2324 1.596    N 2325 1.334    C 2317 0.935
  2324  O   1.937        C 2323 1.596    N 2325 0.197
  2325  N   3.494        C 2323 1.334    C 2327 0.981    H 2326 0.889    O 2324 0.197
  2326  H   0.947        N 2325 0.889
  2327  C   3.953        N 2325 0.981    C 2329 0.972    H 2328 0.944    C 2345 0.936
  2328  H   0.988        C 2327 0.944
  2329  C   3.978        C 2332 1.000    C 2327 0.972    H 2330 0.972    H 2331 0.970
  2330  H   0.994        C 2329 0.972
  2331  H   0.995        C 2329 0.970
  2332  C   3.983        C 2329 1.000    C 2335 0.997    H 2333 0.969    H 2334 0.968
  2333  H   0.994        C 2332 0.969
  2334  H   0.994        C 2332 0.968
  2335  C   3.985        C 2338 1.020    C 2332 0.997    H 2336 0.971    H 2337 0.967
  2336  H   0.994        C 2335 0.971
  2337  H   0.994        C 2335 0.967
  2338  C   3.900        C 2335 1.020    H 2340 0.959    H 2339 0.957    N 2341 0.939
  2339  H   0.985        C 2338 0.957
  2340  H   0.982        C 2338 0.959
  2341  N   3.657        C 2338 0.939    H 2344 0.901    H 2342 0.898    H 2343 0.897
  2342  H   0.911        N 2341 0.898
  2343  H   0.915        N 2341 0.897
  2344  H   0.914        N 2341 0.901
  2345  C   3.939        O 2346 1.532    N 2347 1.371    C 2327 0.936
  2346  O   1.901        C 2345 1.532    N 2347 0.182
  2347  N   3.521        C 2345 1.371    C 2349 0.988    H 2348 0.888    O 2346 0.182
  2348  H   0.944        N 2347 0.888
  2349  C   3.958        N 2347 0.988    C 2351 0.976    H 2350 0.953    C 2369 0.914
  2350  H   0.992        C 2349 0.953
  2351  C   3.983        C 2354 1.002    C 2349 0.976    H 2353 0.975    H 2352 0.975
  2352  H   0.997        C 2351 0.975
  2353  H   0.996        C 2351 0.975
  2354  C   3.982        C 2351 1.002    C 2357 0.990    H 2356 0.970    H 2355 0.962
  2355  H   0.990        C 2354 0.962
  2356  H   0.993        C 2354 0.970
  2357  C   3.948        C 2354 0.990    N 2360 0.974    H 2359 0.972    H 2358 0.965
  2358  H   0.993        C 2357 0.965
  2359  H   0.995        C 2357 0.972
  2360  N   3.435        C 2362 1.284    C 2357 0.974    H 2361 0.888    N 2363 0.101
  2361  H   0.951        N 2360 0.888
  2362  C   3.978        N 2363 1.365    N 2366 1.293    N 2360 1.284
  2363  N   3.417        C 2362 1.365    H 2364 0.913    H 2365 0.875    N 2360 0.101
  2364  H   0.944        N 2363 0.913
  2365  H   0.930        N 2363 0.875
  2366  N   3.344        C 2362 1.293    H 2367 0.892    H 2368 0.881
  2367  H   0.947        N 2366 0.892
  2368  H   0.949        N 2366 0.881
  2369  C   3.943        O 2370 1.591    N 2371 1.336    C 2349 0.914
  2370  O   1.948        C 2369 1.591    N 2371 0.191
  2371  N   3.504        C 2369 1.336    C 2373 0.983    H 2372 0.916    O 2370 0.191
  2372  H   0.954        N 2371 0.916
  2373  C   3.954        N 2371 0.983    C 2375 0.973    H 2374 0.944    C 2385 0.914
  2374  H   0.994        C 2373 0.944
  2375  C   3.989        C 2377 1.014    C 2381 1.002    C 2373 0.973    H 2376 0.958
  2376  H   0.996        C 2375 0.958
  2377  C   3.989        C 2375 1.014    H 2380 0.979    H 2378 0.977    H 2379 0.975
  2378  H   0.998        C 2377 0.977
  2379  H   0.997        C 2377 0.975
  2380  H   0.996        C 2377 0.979
  2381  C   3.991        C 2375 1.002    H 2383 0.984    H 2382 0.982    H 2384 0.978
  2382  H   0.998        C 2381 0.982
  2383  H   0.998        C 2381 0.984
  2384  H   0.996        C 2381 0.978
  2385  C   3.950        O 2386 1.633    N 2387 1.307    C 2373 0.914
  2386  O   1.984        C 2385 1.633    N 2387 0.202
  2387  N   3.467        C 2385 1.307    C 2389 0.964    H 2388 0.901    O 2386 0.202
  2388  H   0.953        N 2387 0.901
  2389  C   3.950        C 2391 0.975    N 2387 0.964    H 2390 0.945    C 2404 0.921
  2390  H   0.991        C 2389 0.945
  2391  C   3.982        C 2393 0.999    C 2397 0.995    C 2389 0.975    H 2392 0.955
  2392  H   0.995        C 2391 0.955
  2393  C   3.989        C 2391 0.999    H 2395 0.985    H 2394 0.982    H 2396 0.978
  2394  H   0.997        C 2393 0.982
  2395  H   0.998        C 2393 0.985
  2396  H   0.994        C 2393 0.978
  2397  C   3.991        C 2400 1.011    C 2391 0.995    H 2398 0.975    H 2399 0.974
  2398  H   0.997        C 2397 0.975
  2399  H   0.998        C 2397 0.974
  2400  C   3.989        C 2397 1.011    H 2403 0.984    H 2401 0.984    H 2402 0.983
  2401  H   0.998        C 2400 0.984
  2402  H   0.998        C 2400 0.983
  2403  H   0.998        C 2400 0.984
  2404  C   3.946        O 2405 1.662    N 2406 1.285    C 2389 0.921
  2405  O   2.002        C 2404 1.662    N 2406 0.197
  2406  N   3.449        C 2404 1.285    C 2408 0.971    H 2407 0.898    O 2405 0.197
  2407  H   0.951        N 2406 0.898
  2408  C   3.966        N 2406 0.971    C 2410 0.963    H 2409 0.949    C 2418 0.944
  2409  H   0.990        C 2408 0.949
  2410  C   3.964        C 2412 1.003    O 2416 0.985    H 2411 0.965    C 2408 0.963
  2411  H   0.998        C 2410 0.965
  2412  C   3.986        C 2410 1.003    H 2414 0.983    H 2415 0.982    H 2413 0.982
  2413  H   0.996        C 2412 0.982
  2414  H   0.998        C 2412 0.983
  2415  H   0.997        C 2412 0.982
  2416  O   1.918        C 2410 0.985    H 2417 0.835
  2417  H   0.883        O 2416 0.835
  2418  C   3.950        O 2419 1.598    N 2420 1.323    C 2408 0.944
  2419  O   1.946        C 2418 1.598    N 2420 0.197
  2420  N   3.476        C 2418 1.323    C 2422 0.959    H 2421 0.909    O 2419 0.197
  2421  H   0.956        N 2420 0.909
  2422  C   3.954        C 2424 0.966    N 2420 0.959    H 2423 0.944    C 2432 0.939
  2423  H   0.991        C 2422 0.944
  2424  C   3.952        C 2426 0.995    O 2430 0.980    H 2425 0.966    C 2422 0.966
  2425  H   0.999        C 2424 0.966
  2426  C   3.983        C 2424 0.995    H 2427 0.981    H 2428 0.981    H 2429 0.979
  2427  H   0.994        C 2426 0.981
  2428  H   0.995        C 2426 0.981
  2429  H   0.997        C 2426 0.979
  2430  O   1.930        C 2424 0.980    H 2431 0.864
  2431  H   0.901        O 2430 0.864
  2432  C   3.957        O 2433 1.593    N 2434 1.336    C 2422 0.939
  2433  O   1.943        C 2432 1.593    N 2434 0.201
  2434  N   3.497        C 2432 1.336    C 2436 0.980    H 2435 0.889    O 2433 0.201
  2435  H   0.945        N 2434 0.889
  2436  C   3.952        N 2434 0.980    C 2438 0.967    H 2437 0.940    C 2452 0.927
  2437  H   0.990        C 2436 0.940
  2438  C   3.980        C 2441 1.011    C 2436 0.967    H 2440 0.965    H 2439 0.947
  2439  H   0.992        C 2438 0.947
  2440  H   0.994        C 2438 0.965
  2441  C   3.985        C 2450 1.422    C 2442 1.385    C 2438 1.011    C 2446 0.117
  2442  C   3.987        C 2444 1.453    C 2441 1.385    H 2443 0.968    C 2448 0.118
  2443  H   0.998        C 2442 0.968
  2444  C   3.991        C 2442 1.453    C 2446 1.445    H 2445 0.966
  2445  H   0.997        C 2444 0.966
  2446  C   3.989        C 2444 1.445    C 2448 1.417    H 2447 0.968    C 2441 0.117
  2447  H   0.998        C 2446 0.968
  2448  C   3.992        C 2450 1.455    C 2446 1.417    H 2449 0.969    C 2442 0.118
  2449  H   0.998        C 2448 0.969
  2450  C   3.992        C 2448 1.455    C 2441 1.422    H 2451 0.957
  2451  H   0.999        C 2450 0.957
  2452  C   3.951        O 2453 1.601    N 2454 1.341    C 2436 0.927
  2453  O   1.968        C 2452 1.601    N 2454 0.193
  2454  N   3.491        C 2452 1.341    C 2456 0.971    H 2455 0.895    O 2453 0.193
  2455  H   0.946        N 2454 0.895
  2456  C   3.962        N 2454 0.971    C 2458 0.967    C 2476 0.960    H 2457 0.947
  2457  H   0.991        C 2456 0.947
  2458  C   3.982        C 2461 1.010    H 2459 0.971    C 2456 0.967    H 2460 0.963
  2459  H   0.996        C 2458 0.971
  2460  H   0.994        C 2458 0.963
  2461  C   3.985        C 2458 1.010    C 2464 0.995    H 2463 0.969    H 2462 0.966
  2462  H   0.991        C 2461 0.966
  2463  H   0.996        C 2461 0.969
  2464  C   3.951        C 2461 0.995    N 2467 0.979    H 2466 0.966    H 2465 0.962
  2465  H   0.992        C 2464 0.962
  2466  H   0.991        C 2464 0.966
  2467  N   3.459        C 2469 1.311    C 2464 0.979    H 2468 0.908    N 2473 0.102
  2468  H   0.951        N 2467 0.908
  2469  C   3.976        N 2473 1.320    N 2467 1.311    N 2470 1.310
  2470  N   3.374        C 2469 1.310    H 2472 0.913    H 2471 0.906    N 2473 0.102
  2471  H   0.930        N 2470 0.906
  2472  H   0.938        N 2470 0.913
  2473  N   3.393        C 2469 1.320    H 2474 0.916    H 2475 0.879    N 2467 0.102    N 2470 0.102
  2474  H   0.946        N 2473 0.916
  2475  H   0.942        N 2473 0.879
  2476  C   3.949        O 2477 1.570    N 2478 1.345    C 2456 0.960
  2477  O   1.876        C 2476 1.570    N 2478 0.196
  2478  N   3.500        C 2476 1.345    C 2480 0.975    H 2479 0.894    O 2477 0.196
  2479  H   0.944        N 2478 0.894
  2480  C   3.963        N 2478 0.975    C 2482 0.961    H 2481 0.954    C 2490 0.921
  2481  H   0.992        C 2480 0.954
  2482  C   3.961        C 2484 0.997    O 2488 0.996    C 2480 0.961    H 2483 0.956
  2483  H   0.999        C 2482 0.956
  2484  C   3.988        C 2482 0.997    H 2487 0.984    H 2486 0.983    H 2485 0.980
  2485  H   0.995        C 2484 0.980
  2486  H   0.996        C 2484 0.983
  2487  H   0.998        C 2484 0.984
  2488  O   1.953        C 2482 0.996    H 2489 0.847
  2489  H   0.888        O 2488 0.847
  2490  C   3.949        O 2491 1.667    N 2492 1.283    C 2480 0.921
  2491  O   1.984        C 2490 1.667    N 2492 0.202
  2492  N   3.453        C 2490 1.283    C 2494 0.987    H 2493 0.900    O 2491 0.202
  2493  H   0.950        N 2492 0.900
  2494  C   3.961        N 2492 0.987    C 2497 0.965    H 2495 0.951    H 2496 0.941
  2495  H   0.989        C 2494 0.951
  2496  H   0.988        C 2494 0.941
  2497  C   3.950        O 2498 1.679    N 2499 1.247    C 2494 0.965
  2498  O   2.002        C 2497 1.679    N 2499 0.198
  2499  N   3.421        C 2497 1.247    C 2501 0.965    H 2500 0.920    O 2498 0.198
  2500  H   0.959        N 2499 0.920
  2501  C   3.968        C 2503 0.988    N 2499 0.965    H 2502 0.949    C 2511 0.916
  2502  H   0.990        C 2501 0.949
  2503  C   3.957        C 2501 0.988    C 2505 0.988    O 2509 0.981    H 2504 0.959
  2504  H   0.999        C 2503 0.959
  2505  C   3.989        C 2503 0.988    H 2506 0.986    H 2508 0.982    H 2507 0.981
  2506  H   0.997        C 2505 0.986
  2507  H   0.996        C 2505 0.981
  2508  H   0.995        C 2505 0.982
  2509  O   1.957        C 2503 0.981    H 2510 0.869
  2510  H   0.885        O 2509 0.869
  2511  C   3.951        O 2512 1.649    N 2513 1.303    C 2501 0.916
  2512  O   1.964        C 2511 1.649    N 2513 0.196
  2513  N   3.473        C 2511 1.303    C 2515 0.985    H 2514 0.917    O 2512 0.196
  2514  H   0.952        N 2513 0.917
  2515  C   3.951        N 2513 0.985    C 2517 0.982    H 2516 0.934    C 2535 0.896
  2516  H   0.987        C 2515 0.934
  2517  C   3.982        C 2520 1.012    C 2515 0.982    H 2519 0.964    H 2518 0.951
  2518  H   0.990        C 2517 0.951
  2519  H   0.995        C 2517 0.964
  2520  C   3.978        C 2521 1.632    C 2534 1.173    C 2517 1.012
  2521  C   3.957        C 2520 1.632    N 2523 1.168    H 2522 0.964
  2522  H   0.994        C 2521 0.964
  2523  N   3.529        C 2525 1.184    C 2521 1.168    H 2524 0.935
  2524  H   0.962        N 2523 0.935
  2525  C   3.965        C 2526 1.402    C 2534 1.214    N 2523 1.184
  2526  C   3.986        C 2528 1.419    C 2525 1.402    H 2527 0.966    C 2532 0.110
  2527  H   0.996        C 2526 0.966
  2528  C   3.983        C 2526 1.419    C 2530 1.408    H 2529 0.969
  2529  H   0.995        C 2528 0.969
  2530  C   3.989        C 2532 1.457    C 2528 1.408    H 2531 0.962
  2531  H   0.999        C 2530 0.962
  2532  C   3.989        C 2530 1.457    C 2534 1.357    H 2533 0.964    C 2526 0.110
  2533  H   0.999        C 2532 0.964
  2534  C   3.980        C 2532 1.357    C 2525 1.214    C 2520 1.173
  2535  C   3.929        O 2536 1.640    N 2537 1.306    C 2515 0.896
  2536  O   1.979        C 2535 1.640    N 2537 0.192
  2537  N   3.459        C 2535 1.306    C 2539 0.958    H 2538 0.922    O 2536 0.192
  2538  H   0.959        N 2537 0.922
  2539  C   3.965        C 2541 0.963    N 2537 0.958    H 2540 0.951    C 2547 0.951
  2540  H   0.995        C 2539 0.951
  2541  C   3.987        H 2542 0.976    H 2543 0.967    C 2539 0.963    C 2544 0.952
  2542  H   0.998        C 2541 0.976
  2543  H   0.997        C 2541 0.967
  2544  C   3.938        O 2546 1.519    O 2545 1.451    C 2541 0.952
  2545  O   1.741        C 2544 1.451    O 2546 0.224
  2546  O   1.816        C 2544 1.519    O 2545 0.224
  2547  C   3.942        O 2548 1.638    N 2549 1.283    C 2539 0.951
  2548  O   1.945        C 2547 1.638    N 2549 0.197
  2549  N   3.445        C 2547 1.283    C 2551 0.963    H 2550 0.923    O 2548 0.197
  2550  H   0.952        N 2549 0.923
  2551  C   3.953        C 2553 0.989    N 2549 0.963    H 2552 0.950    C 2557 0.936
  2552  H   0.994        C 2551 0.950
  2553  C   3.977        C 2551 0.989    H 2556 0.980    H 2555 0.980    H 2554 0.980
  2554  H   0.996        C 2553 0.980
  2555  H   0.992        C 2553 0.980
  2556  H   0.995        C 2553 0.980
  2557  C   3.947        O 2558 1.613    N 2559 1.317    C 2551 0.936
  2558  O   1.925        C 2557 1.613    N 2559 0.191
  2559  N   3.475        C 2557 1.317    C 2561 0.980    H 2560 0.907    O 2558 0.191
  2560  H   0.953        N 2559 0.907
  2561  C   3.959        N 2559 0.980    C 2563 0.975    H 2562 0.948    C 2578 0.908
  2562  H   0.998        C 2561 0.948
  2563  C   3.982        C 2566 0.997    C 2561 0.975    H 2565 0.965    H 2564 0.958
  2564  H   0.993        C 2563 0.958
  2565  H   0.992        C 2563 0.965
  2566  C   3.984        C 2567 1.489    C 2576 1.353    C 2563 0.997
  2567  C   3.985        C 2566 1.489    C 2569 1.360    H 2568 0.964    C 2574 0.109
  2568  H   0.996        C 2567 0.964
  2569  C   3.979        C 2571 1.414    C 2567 1.360    H 2570 0.969    C 2576 0.119
  2570  H   0.995        C 2569 0.969
  2571  C   3.939        C 2569 1.414    C 2574 1.327    O 2572 1.082
  2572  O   2.097        C 2571 1.082    H 2573 0.833
  2573  H   0.888        O 2572 0.833
  2574  C   3.985        C 2576 1.489    C 2571 1.327    H 2575 0.962    C 2567 0.109
  2575  H   0.999        C 2574 0.962
  2576  C   3.988        C 2574 1.489    C 2566 1.353    H 2577 0.970    C 2569 0.119
  2577  H   1.000        C 2576 0.970
  2578  C   3.948        O 2579 1.648    N 2580 1.303    C 2561 0.908
  2579  O   1.978        C 2578 1.648    N 2580 0.199
  2580  N   3.481        C 2578 1.303    C 2582 0.978    H 2581 0.935    O 2579 0.199
  2581  H   0.971        N 2580 0.935
  2582  C   3.952        N 2580 0.978    C 2584 0.968    H 2583 0.951    C 2600 0.913
  2583  H   0.994        C 2582 0.951
  2584  C   3.985        C 2587 1.002    H 2585 0.975    H 2586 0.975    C 2582 0.968
  2585  H   0.998        C 2584 0.975
  2586  H   0.999        C 2584 0.975
  2587  C   3.985        C 2590 1.003    C 2584 1.002    H 2588 0.975    H 2589 0.971
  2588  H   0.998        C 2587 0.975
  2589  H   0.997        C 2587 0.971
  2590  C   3.985        C 2593 1.004    C 2587 1.003    H 2592 0.973    H 2591 0.967
  2591  H   0.993        C 2590 0.967
  2592  H   0.994        C 2590 0.973
  2593  C   3.928        C 2590 1.004    N 2596 0.981    H 2594 0.963    H 2595 0.962
  2594  H   0.987        C 2593 0.963
  2595  H   0.988        C 2593 0.962
  2596  N   3.660        C 2593 0.981    H 2599 0.892    H 2598 0.885    H 2597 0.884
  2597  H   0.904        N 2596 0.884
  2598  H   0.908        N 2596 0.885
  2599  H   0.911        N 2596 0.892
  2600  C   3.935        O 2602 1.501    O 2601 1.479    C 2582 0.913
  2601  O   1.770        C 2600 1.479    O 2602 0.218
  2602  O   1.798        C 2600 1.501    O 2601 0.218

molecular dipole:
                 x           y           z       tot (Debye)
 q only:      588.908     656.272     649.651
   full:      591.235     657.569     659.390    2803.710
molecular quadrupole (traceless):
                xx          xy          yy          xz          yz          zz
 q only:   -11560.495   68714.444    8305.194   68206.465   75234.562    3255.301
  q+dip:   -12122.611   68660.070    7323.048   69366.442   76399.390    4799.563
   full:   -12113.168   68662.256    7304.170   69368.710   76385.971    4808.998


           -------------------------------------------------
          | TOTAL ENERGY            -4085.330020305316 Eh   |
          | GRADIENT NORM               1.326683950968 Eh/α |
          | HOMO-LUMO GAP               1.376837296465 eV   |
           -------------------------------------------------
########################################################################
[WARNING] Runtime exception occurred
-2- restart_readRestart: Dimension missmatch in restart file.
-1- restart_readRestart: Number of electron missmatch in restart file.
########################################################################

------------------------------------------------------------------------
 * finished run on 2020/07/25 at 14:46:32.853     
------------------------------------------------------------------------
 total:
 * wall-time:     0 d,  0 h,  6 min, 47.996 sec
 *  cpu-time:     0 d,  4 h, 59 min, 52.970 sec
 * ratio c/w:    44.101 speedup
 SCF:
 * wall-time:     0 d,  0 h,  6 min, 20.301 sec
 *  cpu-time:     0 d,  4 h, 51 min, 17.874 sec
 * ratio c/w:    45.958 speedup

