      -----------------------------------------------------------      
     |                   =====================                   |     
     |                           x T B                           |     
     |                   =====================                   |     
     |                         S. Grimme                         |     
     |          Mulliken Center for Theoretical Chemistry        |     
     |                    University of Bonn                     |     
      -----------------------------------------------------------      

   * xtb version 6.2.3 (d7bf61a) compiled by 'conda@06d140edd85e' on 2020-05-12

   xtb is free software: you can redistribute it and/or modify it under
   the terms of the GNU Lesser General Public License as published by
   the Free Software Foundation, either version 3 of the License, or
   (at your option) any later version.
   
   xtb is distributed in the hope that it will be useful,
   but WITHOUT ANY WARRANTY; without even the implied warranty of
   MERCHANTABILITY or FITNESS FOR A PARTICULAR PURPOSE.  See the
   GNU Lesser General Public License for more details.
   
   Cite this work as:
   * S. Grimme, C. Bannwarth, P. Shushkov, J. Chem. Theory Comput., 2017,
     13, 1989-2009. DOI: 10.1021/acs.jctc.7b00118
   * C. Bannwarth, S. Ehlert and S. Grimme., J. Chem. Theory Comput., 2019,
     15, 1652-1671. DOI: 10.1021/acs.jctc.8b01176
   * P. Pracht, E. Caldeweyher, S. Ehlert, S. Grimme, ChemRxiv, 2019, preprint.
     DOI: 10.26434/chemrxiv.8326202.v1
   
   for DFT-D4:
   * E. Caldeweyher, C. Bannwarth and S. Grimme, J. Chem. Phys., 2017,
     147, 034112. DOI: 10.1063/1.4993215
   * E. Caldeweyher, S. Ehlert, A. Hansen, H. Neugebauer, S. Spicher,
     C. Bannwarth and S. Grimme, J. Chem. Phys., 2019, 150, 154122.
     DOI: 10.1063/1.5090222
   
   for sTDA-xTB:
   * S. Grimme and C. Bannwarth, J. Chem. Phys., 2016, 145, 054103.
     DOI: 10.1063/1.4959605
   
   in the mass-spec context:
   * V. Asgeirsson, C. Bauer and S. Grimme, Chem. Sci., 2017, 8, 4879.
     DOI: 10.1039/c7sc00601b
   
   for metadynamics refer to:
   * S. Grimme, J. Chem. Theory Comput., 2019, 155, 2847-2862
     DOI: 10.1021/acs.jctc.9b00143
   
   with help from (in alphabetical order)
   C. Bannwarth, F. Bohle, G. Brandenburg, E. Caldeweyher, M. Checinski,
   S. Dohm, S. Ehlert, S. Ehrlich, F. März, H. Neugebauer, J. Pisarek,
   P. Pracht, P. Shushkov, and S. Spicher.
   
 * started run on 2020/07/27 at 12:51:31.777     

           -------------------------------------------------
          |                Calculation Setup                |
           -------------------------------------------------

          program call               : xtb host_28601.xyz --chrg +9 --uhf 0 --gbsa water
          hostname                   : gold61.cluster.local
          coordinate file            : host_28601.xyz
          omp threads                :                    64
          number of atoms            :                  2602
          number of electrons        :                  7192
          charge                     :                     9
          spin                       :                   0.0
          first test random number   :      0.71750678387739

########################################################################
[WARNING] Please study the warnings concerning your input carefully
-2- prog_main: XTBPATH is not set, using XTBHOME instead
-1- prog_main: XTBHOME is not set, using HOME instead
########################################################################
           ------------------------------------------------- 
          |                 G F N 2 - x T B                 |
          | Geometry, Frequencies, Noncovalent interactions |
          |            JCTC 2019 parametrisation            |
           ------------------------------------------------- 
             k(s)              :                1.8500
             k(p)              :                2.2300
             k(d)              :                2.2300
             k(f)              :                2.0000
             kEN (H0ij)        :               -2.0000
             D4 a1             :                0.5200
             D4 a2             :                5.0000
             D4 s6             :                1.0000
             D4 s8             :                2.7000
             D4 s9             :                5.0000
             alphaj            :                2.0000

  Z AO/shell   Hii/eV     exponent
  1     Wed Apr 25 08:07:45 CEST 2018   EN: 2.200 GM2: 0.406  GM3: 0.0800  RAES: 1.40
     1s    -10.707211    1.230000
  6     Wed Apr 25 08:07:45 CEST 2018   EN: 2.550 GM2: 0.538  GM3: 0.1500  RAES: 3.00
     2s    -13.970922    2.096432
     2p    -10.063292    1.800000
  7     Wed Apr 25 08:07:45 CEST 2018   EN: 3.040 GM2: 0.461  GM3:-0.0640  RAES: 1.90
     2s    -16.686243    2.339881
     2p    -12.523956    2.014332
  8     Wed Apr 25 08:07:45 CEST 2018   EN: 3.440 GM2: 0.452  GM3:-0.0517  RAES: 1.80
     2s    -20.229985    2.439742
     2p    -15.503117    2.137023
 16     Tue Apr 24 11:44:34 CEST 2018   EN: 2.580 GM2: 0.340  GM3:-0.0502  RAES: 3.10
     3s    -20.029654    1.981333
     3p    -11.377694    2.025643
     3d     -0.420282    1.702555

 Solvent             : water
 Using internal parameter file: .param_gbsa2_water
 Gsolv ref. state (COSMO-RS): gsolv [1 M gas/solution]
 temperature (mdtemp)       :    298.14999999999998     
 dielectric constant        :    80.200000000000003     
 rho                        :    1.0000000000000000     
 mass                       :    18.000000000000000     
 surface tension            :    15.568945408385856     
 probe radius               :   0.97531378999999996     
 Gshift (Eh)                :    1.8574431267947933E-003
 c1                         :    1.5524381700000001     
 soset                      :   0.13032636000000000     
 HB correction              :  T
           ------------------------------------------------- 
          |        Self-Consistent Charge Iterations        |
           ------------------------------------------------- 

          ...................................................
          :                      SETUP                      :
          :.................................................:
          :  # basis functions                6511          :
          :  # atomic orbitals                6505          :
          :  # shells                         3899          :
          :  # electrons                      7192          :
          :  max. iterations                   250          :
          :  Hamiltonian                  GFN2-xTB          :
          :  restarted?                      false          :
          :  GBSA solvation                   true          :
          :  PC potential                    false          :
          :  electronic temp.          300.0000000     K    :
          :  accuracy                    1.0000000          :
          :  -> integral cutoff          0.2500000E+02      :
          :  -> integral neglect         0.1000000E-07      :
          :  -> SCF convergence          0.1000000E-05 Eh   :
          :  -> wf. convergence          0.1000000E-03 e    :
          :  Broyden damping             0.4000000          :
          ...................................................

 iter      E             dE          RMSdq      gap      omega  full diag
   1  -4120.4693917 -0.412047E+04  0.428E+00    2.06       0.0  T
   2  -4132.7437533 -0.122744E+02  0.226E+00    2.28       1.0  T
   3  -4133.2193967 -0.475643E+00  0.119E+00    2.04       1.0  T
   4  -4133.2951999 -0.758032E-01  0.288E-01    1.72       1.0  T
   5  -4133.3936479 -0.984479E-01  0.144E-01    1.62       1.0  T
   6  -4133.4068763 -0.132284E-01  0.758E-02    1.68       1.0  T
   7  -4133.4093746 -0.249836E-02  0.401E-02    1.65       1.0  T
   8  -4133.4106500 -0.127540E-02  0.180E-02    1.60       1.0  T
   9  -4133.4108412 -0.191182E-03  0.110E-02    1.59       1.0  T
  10  -4133.4109395 -0.983069E-04  0.570E-03    1.57       1.0  T
  11  -4133.4109653 -0.258141E-04  0.280E-03    1.56       1.0  T
  12  -4133.4109722 -0.684571E-05  0.154E-03    1.56       1.3  T
  13  -4133.4109743 -0.209388E-05  0.844E-04    1.56       2.3  T
  14  -4133.4109749 -0.626476E-06  0.429E-04    1.56       4.6  T
  15  -4133.4109751 -0.171668E-06  0.214E-04    1.56       9.2  T

   *** convergence criteria satisfied after 15 iterations ***

         #    Occupation            Energy/Eh            Energy/eV
      -------------------------------------------------------------
         1        2.0000           -0.7548339             -20.5401
       ...           ...                  ...                  ...
      3590        2.0000           -0.3596455              -9.7865
      3591        2.0000           -0.3575436              -9.7293
      3592        2.0000           -0.3575252              -9.7288
      3593        2.0000           -0.3573845              -9.7249
      3594        2.0000           -0.3556468              -9.6776
      3595        2.0000           -0.3545846              -9.6487
      3596        2.0000           -0.3505472              -9.5389 (HOMO)
      3597                         -0.2932901              -7.9808 (LUMO)
      3598                         -0.2775035              -7.5513
      3599                         -0.2747398              -7.4761
      3600                         -0.2743646              -7.4658
      3601                         -0.2721961              -7.4068
       ...                                ...                  ...
      6505                          0.7316606              19.9095
      -------------------------------------------------------------
                  HL-Gap            0.0572571 Eh            1.5580 eV
             Fermi-level           -0.3219187 Eh           -8.7599 eV

 SCC (total)                   0 d,  0 h,  6 min, 39.314 sec
 SCC setup                      ...        0 min,  3.146 sec (  0.788%)
 Dispersion                     ...        0 min,  1.977 sec (  0.495%)
 integral evaluation            ...        0 min, 12.143 sec (  3.041%)
 zeroth order Hamiltonian       ...        0 min,  0.343 sec (  0.086%)
 iterations                     ...        6 min,  3.667 sec ( 91.073%)
 molecular gradient             ...        0 min, 17.389 sec (  4.355%)
 printout                       ...        0 min,  0.649 sec (  0.162%)

         :::::::::::::::::::::::::::::::::::::::::::::::::::::
         ::                     SUMMARY                     ::
         :::::::::::::::::::::::::::::::::::::::::::::::::::::
         :: total energy           -4085.210762897173 Eh    ::
         :: total w/o Gsasa/hb     -4084.804802468700 Eh    ::
         :: gradient norm              1.351306849629 Eh/a0 ::
         :: HOMO-LUMO gap              1.558045294568 eV    ::
         ::.................................................::
         :: SCC energy             -4133.474457500825 Eh    ::
         :: -> isotropic ES           14.294962169668 Eh    ::
         :: -> anisotropic ES         -0.798634267623 Eh    ::
         :: -> anisotropic XC          1.148915428994 Eh    ::
         :: -> dispersion             -3.905486812095 Eh    ::
         :: -> Gsolv                  -4.176710679537 Eh    ::
         ::    -> Gborn               -3.770750251063 Eh    ::
         ::    -> Gsasa               -0.065339861783 Eh    ::
         ::    -> Ghb                 -0.342478009818 Eh    ::
         ::    -> Gshift               0.001857443127 Eh    ::
         :: repulsion energy          47.728151913662 Eh    ::
         :: add. restraining           0.000000000000 Eh    ::
         :::::::::::::::::::::::::::::::::::::::::::::::::::::

           -------------------------------------------------
          |                Property Printout                |
           -------------------------------------------------

    * Orbital Energies and Occupations

         #    Occupation            Energy/Eh            Energy/eV
      -------------------------------------------------------------
         1        2.0000           -0.7548339             -20.5401
       ...           ...                  ...                  ...
      3584        2.0000           -0.3643501              -9.9145
      3585        2.0000           -0.3624451              -9.8626
      3586        2.0000           -0.3617052              -9.8425
      3587        2.0000           -0.3612561              -9.8303
      3588        2.0000           -0.3604868              -9.8093
      3589        2.0000           -0.3603478              -9.8056
      3590        2.0000           -0.3596455              -9.7865
      3591        2.0000           -0.3575436              -9.7293
      3592        2.0000           -0.3575252              -9.7288
      3593        2.0000           -0.3573845              -9.7249
      3594        2.0000           -0.3556468              -9.6776
      3595        2.0000           -0.3545846              -9.6487
      3596        2.0000           -0.3505472              -9.5389 (HOMO)
      3597                         -0.2932901              -7.9808 (LUMO)
      3598                         -0.2775035              -7.5513
      3599                         -0.2747398              -7.4761
      3600                         -0.2743646              -7.4658
      3601                         -0.2721961              -7.4068
      3602                         -0.2676882              -7.2842
      3603                         -0.2660916              -7.2407
      3604                         -0.2634919              -7.1700
      3605                         -0.2613238              -7.1110
      3606                         -0.2613142              -7.1107
      3607                         -0.2610025              -7.1022
       ...                                ...                  ...
      6505                          0.7316606              19.9095
      -------------------------------------------------------------
                  HL-Gap            0.0572571 Eh            1.5580 eV
             Fermi-level           -0.3219187 Eh           -8.7599 eV

     #   Z        covCN         q      C6AA      α(0)
     1   7 N      3.493    -0.135    23.908     7.262
     2   1 H      0.860     0.321     0.655     1.268
     3   1 H      0.860     0.305     0.699     1.310
     4   1 H      0.860     0.312     0.679     1.291
     5   6 C      3.778    -0.048    21.467     6.601
     6   1 H      0.925     0.136     1.494     1.911
     7   6 C      3.856    -0.109    22.536     6.752
     8   1 H      0.925     0.111     1.684     2.029
     9   1 H      0.925     0.118     1.632     1.998
    10   6 C      3.797    -0.020    20.934     6.515
    11   1 H      0.925     0.055     2.264     2.353
    12   1 H      0.925     0.072     2.063     2.246
    13  16 S      2.000    -0.174   148.403    20.503
    14   6 C      3.746    -0.040    21.355     6.592
    15   1 H      0.925     0.019     2.753     2.595
    16   1 H      0.925     0.027     2.635     2.538
    17   1 H      0.924     0.032     2.562     2.503
    18   6 C      2.746     0.264    22.555     7.776
    19   8 O      0.859    -0.445    22.604     6.374
    20   7 N      2.682    -0.146    24.152     7.299
    21   1 H      0.860     0.220     1.009     1.573
    22   6 C      3.772     0.002    20.577     6.464
    23   1 H      0.925     0.107     1.727     2.055
    24   6 C      3.785    -0.117    22.756     6.795
    25   1 H      0.925     0.071     2.078     2.254
    26   1 H      0.924     0.104     1.752     2.070
    27   6 C      2.739     0.282    22.226     7.719
    28   8 O      0.867    -0.525    24.339     6.615
    29   7 N      2.646    -0.265    26.861     7.697
    30   1 H      0.860     0.241     0.920     1.502
    31   1 H      0.860     0.248     0.893     1.480
    32   6 C      2.741     0.284    22.195     7.714
    33   8 O      0.859    -0.484    23.443     6.492
    34   7 N      2.672    -0.200    25.342     7.477
    35   1 H      0.860     0.233     0.953     1.529
    36   6 C      3.771    -0.003    20.669     6.479
    37   1 H      0.924     0.099     1.794     2.095
    38   6 C      3.847    -0.042    21.288     6.563
    39   1 H      0.925     0.095     1.832     2.117
    40   6 C      3.750    -0.134    23.148     6.861
    41   1 H      0.925     0.077     2.007     2.216
    42   1 H      0.925     0.033     2.546     2.495
    43   1 H      0.925     0.047     2.354     2.400
    44   6 C      3.806    -0.070    21.826     6.651
    45   1 H      0.924     0.025     2.656     2.549
    46   1 H      0.925     0.065     2.143     2.289
    47   6 C      3.749    -0.119    22.839     6.816
    48   1 H      0.925     0.029     2.604     2.523
    49   1 H      0.924     0.050     2.316     2.380
    50   1 H      0.925     0.062     2.181     2.309
    51   6 C      2.750     0.284    22.190     7.713
    52   8 O      0.860    -0.464    22.993     6.429
    53   7 N      2.688    -0.185    25.002     7.426
    54   1 H      0.860     0.224     0.992     1.560
    55   6 C      3.767     0.030    20.105     6.391
    56   1 H      0.925     0.062     2.172     2.305
    57   6 C      3.786    -0.072    21.889     6.664
    58   1 H      0.925     0.035     2.513     2.479
    59   1 H      0.925     0.066     2.135     2.285
    60   6 C      2.947     0.007    27.870     8.659
    61   6 C      2.898    -0.044    29.096     8.844
    62   1 H      0.926     0.010     2.896     2.661
    63   6 C      2.901    -0.030    28.742     8.790
    64   1 H      0.926     0.011     2.870     2.649
    65   6 C      2.902    -0.035    28.873     8.810
    66   1 H      0.926     0.041     2.436     2.441
    67   6 C      2.901    -0.042    29.042     8.836
    68   1 H      0.926     0.079     1.993     2.208
    69   6 C      2.901    -0.043    29.073     8.841
    70   1 H      0.926     0.073     2.057     2.243
    71   6 C      2.736     0.275    22.348     7.740
    72   8 O      0.864    -0.476    23.262     6.467
    73   7 N      2.687    -0.215    25.688     7.528
    74   1 H      0.860     0.204     1.084     1.631
    75   6 C      3.776     0.024    20.201     6.404
    76   1 H      0.924     0.071     2.077     2.254
    77   6 C      3.791    -0.060    21.657     6.627
    78   1 H      0.925     0.059     2.210     2.325
    79   1 H      0.925     0.067     2.121     2.277
    80   6 C      3.789    -0.094    22.301     6.726
    81   1 H      0.925     0.059     2.205     2.322
    82   1 H      0.925     0.040     2.447     2.446
    83   6 C      2.687     0.357    20.935     7.488
    84   8 O      0.856    -0.636    27.034     6.971
    85   8 O      0.856    -0.624    26.727     6.931
    86   6 C      2.748     0.265    22.526     7.772
    87   8 O      0.861    -0.499    23.757     6.535
    88   7 N      2.696    -0.180    24.909     7.412
    89   1 H      0.860     0.231     0.959     1.534
    90   6 C      3.801     0.040    19.909     6.353
    91   1 H      0.925     0.084     1.938     2.177
    92   6 C      3.831    -0.075    21.916     6.661
    93   1 H      0.924     0.074     2.042     2.235
    94   1 H      0.925     0.064     2.149     2.293
    95   6 C      3.789    -0.027    21.071     6.538
    96   1 H      0.925     0.036     2.508     2.477
    97   1 H      0.925     0.058     2.222     2.331
    98  16 S      1.963    -0.148   147.303    20.427
    99   6 C      3.745    -0.068    21.873     6.671
   100   1 H      0.926     0.055     2.257     2.349
   101   1 H      0.925     0.039     2.460     2.453
   102   1 H      0.925     0.077     2.014     2.219
   103   6 C      2.751     0.260    22.616     7.787
   104   8 O      0.858    -0.504    23.863     6.549
   105   7 N      2.682    -0.188    25.087     7.439
   106   1 H      0.860     0.217     1.023     1.584
   107   6 C      3.796     0.028    20.108     6.385
   108   1 H      0.924     0.088     1.903     2.157
   109   6 C      3.813    -0.069    21.814     6.648
   110   1 H      0.925     0.065     2.141     2.288
   111   1 H      0.924     0.043     2.406     2.426
   112   6 C      3.854    -0.015    20.815     6.489
   113   1 H      0.925     0.044     2.401     2.423
   114   6 C      3.764    -0.124    22.919     6.824
   115   1 H      0.924     0.070     2.087     2.259
   116   1 H      0.925     0.033     2.538     2.491
   117   1 H      0.925     0.049     2.338     2.391
   118   6 C      3.763    -0.111    22.673     6.787
   119   1 H      0.925     0.060     2.203     2.321
   120   1 H      0.925     0.032     2.560     2.502
   121   1 H      0.925     0.035     2.512     2.478
   122   6 C      2.753     0.267    22.485     7.765
   123   8 O      0.860    -0.497    23.726     6.531
   124   7 N      2.681    -0.199    25.318     7.473
   125   1 H      0.860     0.196     1.127     1.663
   126   6 C      3.777     0.023    20.215     6.406
   127   1 H      0.925     0.087     1.906     2.159
   128   6 C      3.795    -0.073    21.907     6.665
   129   1 H      0.925     0.085     1.931     2.173
   130   1 H      0.924     0.060     2.204     2.321
   131   6 C      3.790    -0.071    21.867     6.660
   132   1 H      0.925     0.042     2.424     2.435
   133   1 H      0.924     0.052     2.296     2.370
   134   6 C      3.739    -0.015    20.927     6.527
   135   1 H      0.924     0.069     2.101     2.267
   136   1 H      0.924     0.079     1.986     2.204
   137   7 N      2.728    -0.187    25.047     7.433
   138   1 H      0.860     0.226     0.981     1.552
   139   6 C      2.744     0.263    22.567     7.778
   140   7 N      2.677    -0.291    27.499     7.788
   141   1 H      0.860     0.251     0.879     1.469
   142   1 H      0.860     0.227     0.978     1.549
   143   7 N      2.713    -0.308    27.923     7.848
   144   1 H      0.860     0.241     0.921     1.503
   145   1 H      0.860     0.239     0.926     1.507
   146   6 C      2.748     0.272    22.396     7.749
   147   8 O      0.857    -0.496    23.691     6.526
   148   7 N      2.675    -0.170    24.688     7.380
   149   1 H      0.860     0.208     1.065     1.617
   150   6 C      3.789     0.010    20.414     6.435
   151   1 H      0.924     0.101     1.772     2.082
   152   6 C      3.850    -0.019    20.875     6.499
   153   1 H      0.925     0.077     2.015     2.220
   154   6 C      3.761    -0.121    22.857     6.815
   155   1 H      0.925     0.041     2.433     2.439
   156   1 H      0.924     0.044     2.394     2.420
   157   1 H      0.924     0.049     2.326     2.385
   158   6 C      3.811    -0.072    21.862     6.655
   159   1 H      0.924     0.055     2.258     2.350
   160   1 H      0.924     0.046     2.373     2.409
   161   6 C      3.747    -0.113    22.734     6.801
   162   1 H      0.925     0.024     2.673     2.557
   163   1 H      0.924     0.056     2.249     2.345
   164   1 H      0.925     0.040     2.454     2.450
   165   6 C      2.748     0.266    22.504     7.768
   166   8 O      0.859    -0.487    23.507     6.500
   167   7 N      2.694    -0.179    24.884     7.409
   168   1 H      0.860     0.192     1.145     1.676
   169   6 C      3.796     0.025    20.151     6.392
   170   1 H      0.924     0.094     1.844     2.124
   171   6 C      3.809    -0.095    22.297     6.722
   172   1 H      0.925     0.044     2.391     2.418
   173   1 H      0.925     0.043     2.410     2.428
   174   6 C      2.689     0.350    21.048     7.508
   175   8 O      0.856    -0.595    25.985     6.834
   176   8 O      0.855    -0.568    25.345     6.750
   177   6 C      2.745     0.268    22.470     7.762
   178   8 O      0.867    -0.471    23.142     6.450
   179   7 N      2.700    -0.178    24.863     7.406
   180   1 H      0.860     0.196     1.126     1.662
   181   6 C      3.786     0.023    20.198     6.401
   182   1 H      0.925     0.063     2.161     2.299
   183   6 C      3.802    -0.055    21.568     6.612
   184   1 H      0.924     0.033     2.543     2.494
   185   1 H      0.925     0.045     2.377     2.411
   186   6 C      3.801    -0.102    22.454     6.747
   187   1 H      0.924     0.041     2.433     2.439
   188   1 H      0.924     0.039     2.468     2.457
   189   6 C      2.687     0.369    20.737     7.452
   190   8 O      0.857    -0.623    26.693     6.927
   191   8 O      0.858    -0.624    26.722     6.931
   192   6 C      2.754     0.265    22.534     7.773
   193   8 O      0.861    -0.495    23.680     6.524
   194   7 N      2.691    -0.165    24.566     7.361
   195   1 H      0.860     0.222     1.002     1.568
   196   6 C      3.740    -0.036    21.290     6.583
   197   1 H      0.924     0.108     1.714     2.048
   198   1 H      0.924     0.088     1.902     2.157
   199   6 C      2.746     0.273    22.393     7.748
   200   8 O      0.859    -0.475    23.237     6.463
   201   7 N      2.690    -0.162    24.515     7.354
   202   1 H      0.860     0.212     1.045     1.601
   203   6 C      3.784     0.012    20.394     6.433
   204   1 H      0.925     0.055     2.255     2.348
   205   6 C      3.808    -0.082    22.058     6.686
   206   1 H      0.925     0.072     2.060     2.244
   207   1 H      0.924     0.056     2.240     2.341
   208   6 C      3.839    -0.017    20.854     6.496
   209   1 H      0.924     0.046     2.365     2.405
   210   6 C      3.752    -0.127    22.994     6.838
   211   1 H      0.925     0.056     2.249     2.345
   212   1 H      0.925     0.050     2.314     2.379
   213   1 H      0.925     0.025     2.657     2.549
   214   6 C      3.747    -0.131    23.090     6.854
   215   1 H      0.925     0.050     2.320     2.382
   216   1 H      0.925     0.036     2.497     2.471
   217   1 H      0.925     0.060     2.203     2.321
   218   6 C      2.744     0.273    22.386     7.747
   219   8 O      0.857    -0.464    23.000     6.430
   220   7 N      2.684    -0.164    24.554     7.359
   221   1 H      0.860     0.202     1.095     1.639
   222   6 C      3.781     0.005    20.518     6.453
   223   1 H      0.925     0.095     1.831     2.116
   224   6 C      3.799    -0.089    22.198     6.708
   225   1 H      0.924     0.085     1.932     2.174
   226   1 H      0.924     0.074     2.042     2.235
   227   6 C      3.793    -0.090    22.228     6.714
   228   1 H      0.924     0.082     1.960     2.189
   229   1 H      0.925     0.091     1.868     2.137
   230   6 C      3.726    -0.027    21.163     6.568
   231   1 H      0.925     0.083     1.951     2.184
   232   1 H      0.924     0.075     2.036     2.231
   233   7 N      2.744    -0.168    24.623     7.370
   234   1 H      0.860     0.238     0.933     1.513
   235   6 C      2.737     0.257    22.678     7.797
   236   7 N      2.672    -0.270    26.975     7.714
   237   1 H      0.860     0.218     1.018     1.581
   238   1 H      0.860     0.250     0.883     1.472
   239   7 N      2.703    -0.282    27.283     7.758
   240   1 H      0.860     0.231     0.959     1.534
   241   1 H      0.860     0.260     0.845     1.440
   242   6 C      2.746     0.263    22.560     7.777
   243   8 O      0.860    -0.471    23.154     6.452
   244   7 N      2.687    -0.174    24.768     7.392
   245   1 H      0.860     0.212     1.047     1.603
   246   6 C      3.789     0.016    20.310     6.418
   247   1 H      0.924     0.086     1.918     2.166
   248   6 C      3.821    -0.087    22.133     6.695
   249   1 H      0.925     0.086     1.917     2.165
   250   1 H      0.925     0.052     2.291     2.367
   251   6 C      3.855    -0.011    20.741     6.477
   252   1 H      0.925     0.040     2.454     2.450
   253   6 C      3.766    -0.124    22.913     6.823
   254   1 H      0.925     0.051     2.306     2.375
   255   1 H      0.925     0.046     2.370     2.408
   256   1 H      0.925     0.047     2.363     2.404
   257   6 C      3.767    -0.110    22.649     6.783
   258   1 H      0.925     0.029     2.605     2.524
   259   1 H      0.925     0.033     2.546     2.495
   260   1 H      0.925     0.037     2.494     2.470
   261   6 C      2.749     0.264    22.541     7.774
   262   8 O      0.856    -0.484    23.429     6.490
   263   7 N      2.678    -0.190    25.132     7.446
   264   1 H      0.860     0.206     1.076     1.625
   265   6 C      3.790     0.002    20.550     6.456
   266   1 H      0.924     0.085     1.927     2.171
   267   6 C      3.796    -0.077    21.981     6.676
   268   1 H      0.924     0.061     2.182     2.310
   269   1 H      0.925     0.069     2.092     2.262
   270   6 C      3.782    -0.096    22.352     6.735
   271   1 H      0.924     0.064     2.148     2.292
   272   1 H      0.924     0.074     2.045     2.237
   273   6 C      3.792    -0.105    22.504     6.756
   274   1 H      0.924     0.083     1.952     2.185
   275   1 H      0.924     0.073     2.050     2.239
   276   6 C      3.734    -0.058    21.709     6.650
   277   1 H      0.924     0.123     1.593     1.974
   278   1 H      0.924     0.135     1.495     1.912
   279   7 N      3.490    -0.147    24.161     7.301
   280   1 H      0.860     0.294     0.732     1.340
   281   1 H      0.860     0.301     0.709     1.319
   282   1 H      0.860     0.296     0.726     1.335
   283   6 C      2.764     0.278    22.302     7.734
   284   8 O      0.861    -0.474    23.226     6.462
   285   7 N      2.688    -0.174    24.775     7.392
   286   1 H      0.860     0.237     0.934     1.514
   287   6 C      3.795    -0.001    20.603     6.464
   288   1 H      0.925     0.073     2.055     2.242
   289   6 C      3.835    -0.036    21.194     6.550
   290   1 H      0.924     0.078     2.003     2.213
   291   6 C      3.744    -0.135    23.182     6.869
   292   1 H      0.925     0.066     2.124     2.279
   293   1 H      0.925     0.042     2.422     2.434
   294   1 H      0.924     0.056     2.244     2.343
   295   6 C      3.800    -0.080    22.026     6.682
   296   1 H      0.925     0.050     2.320     2.382
   297   1 H      0.925     0.038     2.474     2.460
   298   6 C      3.748    -0.129    23.035     6.845
   299   1 H      0.925     0.030     2.586     2.515
   300   1 H      0.925     0.042     2.417     2.431
   301   1 H      0.925     0.077     2.013     2.219
   302   6 C      2.745     0.273    22.393     7.748
   303   8 O      0.857    -0.480    23.339     6.477
   304   7 N      2.686    -0.172    24.712     7.383
   305   1 H      0.860     0.235     0.944     1.522
   306   6 C      3.784     0.023    20.201     6.402
   307   1 H      0.924     0.098     1.807     2.102
   308   6 C      3.805    -0.091    22.240     6.714
   309   1 H      0.925     0.088     1.903     2.157
   310   1 H      0.924     0.061     2.186     2.312
   311   6 C      2.972     0.002    27.983     8.677
   312   6 C      2.914    -0.038    28.955     8.824
   313   1 H      0.926     0.039     2.464     2.454
   314   6 C      2.909    -0.078    29.955     8.974
   315   1 H      0.926     0.013     2.844     2.637
   316   6 C      2.830     0.140    24.945     8.184
   317   8 O      1.661    -0.401    20.876     6.168
   318   1 H      0.805     0.311     0.687     1.302
   319   6 C      2.920    -0.071    29.764     8.946
   320   1 H      0.926     0.035     2.510     2.477
   321   6 C      2.903    -0.043    29.061     8.839
   322   1 H      0.926     0.089     1.888     2.149
   323   6 C      2.751     0.250    22.803     7.819
   324   8 O      0.861    -0.523    24.307     6.610
   325   7 N      2.689    -0.133    23.879     7.258
   326   1 H      0.860     0.210     1.054     1.608
   327   6 C      3.778     0.009    20.450     6.443
   328   1 H      0.925     0.090     1.877     2.142
   329   6 C      3.799    -0.072    21.876     6.659
   330   1 H      0.925     0.044     2.400     2.423
   331   1 H      0.925     0.081     1.969     2.194
   332   6 C      3.796    -0.076    21.965     6.673
   333   1 H      0.925     0.071     2.070     2.250
   334   1 H      0.925     0.051     2.302     2.373
   335   6 C      3.792    -0.098    22.385     6.738
   336   1 H      0.924     0.068     2.104     2.268
   337   1 H      0.924     0.096     1.823     2.112
   338   6 C      3.722    -0.055    21.679     6.649
   339   1 H      0.924     0.140     1.463     1.891
   340   1 H      0.924     0.118     1.628     1.995
   341   7 N      3.485    -0.152    24.278     7.318
   342   1 H      0.860     0.298     0.720     1.329
   343   1 H      0.860     0.284     0.763     1.368
   344   1 H      0.860     0.300     0.714     1.324
   345   6 C      2.744     0.264    22.541     7.774
   346   8 O      0.857    -0.496    23.703     6.527
   347   7 N      2.682    -0.166    24.601     7.366
   348   1 H      0.860     0.208     1.064     1.616
   349   6 C      3.772     0.033    20.057     6.382
   350   1 H      0.925     0.073     2.051     2.239
   351   6 C      3.793    -0.100    22.414     6.742
   352   1 H      0.925     0.029     2.602     2.523
   353   1 H      0.924     0.047     2.359     2.402
   354   6 C      2.682     0.362    20.860     7.474
   355   8 O      0.856    -0.675    28.040     7.099
   356   8 O      0.857    -0.595    26.007     6.837
   357   6 C      2.738     0.270    22.432     7.755
   358   8 O      0.865    -0.476    23.259     6.466
   359   7 N      2.691    -0.182    24.934     7.416
   360   1 H      0.860     0.203     1.089     1.634
   361   6 C      3.791     0.011    20.405     6.433
   362   1 H      0.924     0.093     1.848     2.126
   363   6 C      3.725     0.119    18.736     6.181
   364   1 H      0.925     0.042     2.427     2.436
   365   6 C      3.755    -0.139    23.239     6.874
   366   1 H      0.925     0.074     2.038     2.232
   367   1 H      0.924     0.070     2.088     2.260
   368   1 H      0.925     0.072     2.061     2.245
   369   8 O      1.655    -0.453    21.915     6.319
   370   1 H      0.805     0.311     0.689     1.304
   371   6 C      2.751     0.277    22.315     7.735
   372   8 O      0.860    -0.496    23.698     6.527
   373   7 N      2.682    -0.190    25.131     7.445
   374   1 H      0.860     0.188     1.167     1.692
   375   6 C      3.784     0.025    20.179     6.399
   376   1 H      0.925     0.080     1.975     2.197
   377   6 C      3.796    -0.052    21.516     6.605
   378   1 H      0.925     0.033     2.542     2.493
   379   1 H      0.924     0.049     2.328     2.386
   380   6 C      3.796    -0.087    22.171     6.705
   381   1 H      0.925     0.051     2.303     2.373
   382   1 H      0.924     0.052     2.292     2.367
   383   6 C      2.688     0.353    21.005     7.501
   384   8 O      0.855    -0.651    27.399     7.018
   385   8 O      0.857    -0.587    25.804     6.811
   386   6 C      2.745     0.282    22.233     7.721
   387   8 O      0.867    -0.475    23.229     6.462
   388   7 N      2.687    -0.202    25.382     7.483
   389   1 H      0.860     0.192     1.149     1.679
   390   6 C      3.730    -0.032    21.240     6.579
   391   1 H      0.925     0.112     1.676     2.024
   392   1 H      0.925     0.111     1.685     2.030
   393   6 C      2.743     0.277    22.317     7.735
   394   8 O      0.861    -0.472    23.167     6.453
   395   7 N      2.687    -0.160    24.463     7.346
   396   1 H      0.860     0.175     1.241     1.745
   397   6 C      3.783     0.009    20.439     6.440
   398   1 H      0.925     0.097     1.811     2.105
   399   6 C      3.803    -0.075    21.938     6.668
   400   1 H      0.924     0.076     2.019     2.222
   401   1 H      0.925     0.040     2.448     2.447
   402   6 C      2.950    -0.000    28.040     8.685
   403   6 C      2.933    -0.042    29.044     8.838
   404   1 H      0.926     0.020     2.734     2.586
   405   6 C      2.906    -0.064    29.585     8.919
   406   1 H      0.926     0.047     2.362     2.403
   407   6 C      2.854     0.149    24.753     8.155
   408   8 O      1.661    -0.432    21.479     6.256
   409   1 H      0.805     0.354     0.579     1.195
   410   6 C      2.897    -0.079    29.974     8.977
   411   1 H      0.926     0.066     2.132     2.284
   412   6 C      2.955    -0.039    28.970     8.828
   413   1 H      0.926     0.044     2.402     2.424
   414   6 C      2.752     0.269    22.464     7.761
   415   8 O      0.858    -0.460    22.918     6.419
   416   7 N      2.687    -0.163    24.530     7.356
   417   1 H      0.860     0.221     1.005     1.571
   418   6 C      3.794     0.013    20.373     6.428
   419   1 H      0.925     0.098     1.799     2.097
   420   6 C      3.809    -0.080    22.028     6.681
   421   1 H      0.925     0.070     2.083     2.257
   422   1 H      0.924     0.064     2.149     2.293
   423   6 C      2.977    -0.007    28.182     8.708
   424   6 C      2.927    -0.044    29.092     8.845
   425   1 H      0.926     0.042     2.423     2.434
   426   6 C      2.943    -0.073    29.832     8.958
   427   1 H      0.926     0.041     2.436     2.441
   428   6 C      2.857     0.143    24.890     8.177
   429   8 O      1.660    -0.417    21.184     6.213
   430   1 H      0.805     0.337     0.619     1.236
   431   6 C      2.938    -0.062    29.536     8.913
   432   1 H      0.926     0.082     1.958     2.188
   433   6 C      2.923    -0.046    29.137     8.852
   434   1 H      0.926     0.061     2.191     2.315
   435   6 C      2.745     0.258    22.663     7.795
   436   8 O      0.857    -0.498    23.752     6.534
   437   7 N      2.685    -0.171    24.692     7.380
   438   1 H      0.860     0.252     0.876     1.466
   439   6 C      3.784     0.001    20.577     6.461
   440   1 H      0.925     0.081     1.972     2.196
   441   6 C      3.712     0.107    18.948     6.220
   442   1 H      0.924     0.031     2.577     2.510
   443   6 C      3.732    -0.120    22.887     6.829
   444   1 H      0.925     0.037     2.491     2.468
   445   1 H      0.925     0.040     2.452     2.449
   446   1 H      0.925     0.056     2.247     2.344
   447   8 O      1.654    -0.483    22.521     6.406
   448   1 H      0.805     0.330     0.637     1.254
   449   6 C      2.751     0.264    22.553     7.776
   450   8 O      0.861    -0.449    22.691     6.387
   451   7 N      2.680    -0.171    24.711     7.383
   452   1 H      0.860     0.206     1.078     1.627
   453   6 C      3.781     0.011    20.417     6.437
   454   1 H      0.925     0.090     1.876     2.142
   455   6 C      3.847    -0.030    21.069     6.529
   456   1 H      0.925     0.082     1.954     2.186
   457   6 C      3.750    -0.135    23.163     6.864
   458   1 H      0.924     0.047     2.357     2.401
   459   1 H      0.925     0.067     2.121     2.278
   460   1 H      0.924     0.032     2.552     2.498
   461   6 C      3.809    -0.071    21.848     6.654
   462   1 H      0.924     0.044     2.399     2.422
   463   1 H      0.925     0.037     2.495     2.470
   464   6 C      3.750    -0.118    22.830     6.814
   465   1 H      0.924     0.056     2.242     2.341
   466   1 H      0.925     0.044     2.394     2.420
   467   1 H      0.925     0.056     2.248     2.345
   468   6 C      2.749     0.274    22.372     7.745
   469   8 O      0.862    -0.501    23.796     6.540
   470   7 N      2.690    -0.151    24.264     7.316
   471   1 H      0.860     0.239     0.928     1.509
   472   6 C      3.735    -0.040    21.383     6.599
   473   1 H      0.924     0.070     2.084     2.258
   474   1 H      0.924     0.108     1.710     2.045
   475   6 C      2.739     0.268    22.475     7.762
   476   8 O      0.860    -0.453    22.759     6.396
   477   7 N      2.683    -0.195    25.244     7.462
   478   1 H      0.860     0.199     1.111     1.651
   479   6 C      3.780     0.010    20.438     6.440
   480   1 H      0.924     0.079     1.988     2.205
   481   6 C      3.840    -0.014    20.802     6.488
   482   1 H      0.925     0.038     2.472     2.459
   483   6 C      3.751    -0.103    22.520     6.768
   484   1 H      0.925     0.039     2.466     2.456
   485   1 H      0.925     0.051     2.310     2.377
   486   1 H      0.925     0.031     2.573     2.509
   487   6 C      3.792    -0.069    21.833     6.654
   488   1 H      0.924     0.054     2.275     2.359
   489   1 H      0.925     0.046     2.367     2.406
   490   6 C      3.744    -0.111    22.692     6.796
   491   1 H      0.925     0.037     2.484     2.465
   492   1 H      0.924     0.034     2.527     2.486
   493   1 H      0.925     0.055     2.255     2.348
   494   6 C      2.743     0.277    22.316     7.735
   495   8 O      0.859    -0.484    23.426     6.489
   496   7 N      2.682    -0.179    24.879     7.408
   497   1 H      0.860     0.222     1.001     1.567
   498   6 C      3.729    -0.036    21.324     6.592
   499   1 H      0.925     0.087     1.905     2.158
   500   1 H      0.925     0.098     1.801     2.099
   501   6 C      2.760     0.273    22.392     7.749
   502   8 O      0.858    -0.503    23.857     6.549
   503   7 N      2.688    -0.160    24.469     7.347
   504   1 H      0.860     0.237     0.934     1.514
   505   6 C      3.801     0.029    20.081     6.380
   506   1 H      0.925     0.046     2.365     2.405
   507   6 C      3.804    -0.086    22.134     6.698
   508   1 H      0.925     0.129     1.541     1.941
   509   1 H      0.925     0.082     1.954     2.186
   510   6 C      3.008     0.061    26.618     8.463
   511   7 N      2.753    -0.047    22.147     6.989
   512   1 H      0.860     0.251     0.880     1.470
   513   6 C      3.040     0.072    26.350     8.419
   514   1 H      0.926     0.144     1.436     1.874
   515   7 N      2.720    -0.004    21.343     6.861
   516   1 H      0.860     0.285     0.758     1.364
   517   6 C      3.055    -0.025    28.577     8.767
   518   1 H      0.926     0.130     1.535     1.937
   519   6 C      2.755     0.254    22.731     7.807
   520   8 O      0.860    -0.490    23.554     6.507
   521   7 N      2.695    -0.144    24.116     7.294
   522   1 H      0.860     0.208     1.068     1.619
   523   6 C      3.813     0.030    20.056     6.374
   524   1 H      0.925     0.073     2.056     2.242
   525   6 C      3.815    -0.081    22.032     6.681
   526   1 H      0.924     0.060     2.198     2.319
   527   1 H      0.925     0.055     2.264     2.353
   528   6 C      3.844    -0.018    20.865     6.498
   529   1 H      0.924     0.037     2.489     2.467
   530   6 C      3.752    -0.126    22.972     6.835
   531   1 H      0.925     0.025     2.665     2.553
   532   1 H      0.924     0.059     2.214     2.327
   533   1 H      0.925     0.053     2.279     2.361
   534   6 C      3.758    -0.121    22.865     6.817
   535   1 H      0.924     0.047     2.363     2.404
   536   1 H      0.925     0.064     2.156     2.296
   537   1 H      0.925     0.029     2.603     2.523
   538   6 C      2.762     0.286    22.161     7.709
   539   8 O      0.864    -0.482    23.384     6.484
   540   7 N      2.689    -0.203    25.423     7.489
   541   1 H      0.860     0.230     0.963     1.538
   542   6 C      3.795     0.023    20.194     6.399
   543   1 H      0.925     0.075     2.034     2.231
   544   6 C      3.808    -0.075    21.932     6.667
   545   1 H      0.925     0.054     2.273     2.358
   546   1 H      0.925     0.056     2.252     2.347
   547   6 C      3.839    -0.022    20.940     6.510
   548   1 H      0.925     0.045     2.387     2.416
   549   6 C      3.741    -0.128    23.044     6.849
   550   1 H      0.925     0.060     2.200     2.320
   551   1 H      0.925     0.065     2.146     2.291
   552   1 H      0.925     0.048     2.343     2.394
   553   6 C      3.746    -0.121    22.887     6.824
   554   1 H      0.925     0.031     2.573     2.508
   555   1 H      0.925     0.063     2.167     2.302
   556   1 H      0.924     0.028     2.617     2.530
   557   6 C      2.749     0.267    22.500     7.767
   558   8 O      0.859    -0.513    24.073     6.578
   559   7 N      2.681    -0.179    24.887     7.409
   560   1 H      0.860     0.218     1.017     1.580
   561   6 C      3.786     0.004    20.522     6.453
   562   1 H      0.925     0.069     2.097     2.265
   563   6 C      3.729     0.121    18.702     6.174
   564   1 H      0.924     0.022     2.710     2.574
   565   6 C      3.746    -0.134    23.145     6.862
   566   1 H      0.924     0.078     1.999     2.211
   567   1 H      0.925     0.053     2.280     2.361
   568   1 H      0.925     0.056     2.247     2.344
   569   8 O      1.661    -0.458    22.003     6.332
   570   1 H      0.806     0.358     0.570     1.186
   571   6 C      2.754     0.272    22.399     7.750
   572   8 O      0.860    -0.474    23.214     6.460
   573   7 N      2.685    -0.170    24.680     7.378
   574   1 H      0.860     0.215     1.034     1.593
   575   6 C      3.786    -0.005    20.690     6.479
   576   1 H      0.925     0.094     1.837     2.120
   577   6 C      3.804    -0.080    22.025     6.681
   578   1 H      0.924     0.075     2.034     2.230
   579   1 H      0.925     0.068     2.104     2.268
   580   6 C      3.814    -0.079    22.003     6.676
   581   1 H      0.925     0.056     2.242     2.342
   582   1 H      0.924     0.046     2.371     2.408
   583   6 C      3.805    -0.103    22.465     6.748
   584   1 H      0.925     0.082     1.962     2.190
   585   1 H      0.924     0.089     1.887     2.148
   586   6 C      3.735    -0.058    21.715     6.650
   587   1 H      0.924     0.130     1.538     1.939
   588   1 H      0.924     0.118     1.628     1.995
   589   7 N      3.490    -0.150    24.234     7.312
   590   1 H      0.860     0.300     0.715     1.324
   591   1 H      0.860     0.294     0.732     1.340
   592   1 H      0.860     0.304     0.700     1.311
   593   6 C      2.751     0.274    22.364     7.744
   594   8 O      0.861    -0.507    23.940     6.560
   595   7 N      2.688    -0.158    24.409     7.338
   596   1 H      0.860     0.231     0.960     1.535
   597   6 C      3.786     0.020    20.250     6.410
   598   1 H      0.925     0.091     1.874     2.141
   599   6 C      3.681     0.073    19.557     6.334
   600   1 H      0.925     0.024     2.670     2.555
   601   1 H      0.924     0.051     2.303     2.373
   602   8 O      1.657    -0.465    22.143     6.352
   603   1 H      0.806     0.353     0.581     1.198
   604   6 C      2.759     0.239    23.011     7.856
   605   8 O      0.856    -0.514    24.103     6.582
   606   7 N      2.753    -0.095    23.087     7.136
   607   6 C      3.784    -0.019    20.927     6.516
   608   1 H      0.924     0.072     2.062     2.245
   609   1 H      0.925     0.086     1.915     2.164
   610   6 C      3.863    -0.071    21.807     6.641
   611   1 H      0.925     0.054     2.265     2.354
   612   1 H      0.925     0.050     2.323     2.383
   613   6 C      3.843    -0.077    21.930     6.661
   614   1 H      0.924     0.075     2.033     2.230
   615   1 H      0.925     0.089     1.886     2.148
   616   6 C      3.838     0.010    20.385     6.423
   617   1 H      0.925     0.095     1.835     2.118
   618   6 C      2.746     0.267    22.486     7.764
   619   8 O      0.861    -0.470    23.119     6.447
   620   7 N      2.696    -0.174    24.756     7.390
   621   1 H      0.860     0.209     1.059     1.612
   622   6 C      3.801     0.013    20.355     6.423
   623   1 H      0.925     0.081     1.971     2.195
   624   6 C      3.692     0.066    19.648     6.343
   625   1 H      0.925     0.068     2.108     2.270
   626   1 H      0.925     0.049     2.337     2.391
   627   8 O      1.659    -0.478    22.417     6.392
   628   1 H      0.805     0.348     0.592     1.209
   629   6 C      2.754     0.259    22.642     7.792
   630   8 O      0.860    -0.473    23.191     6.457
   631   7 N      2.699    -0.188    25.083     7.438
   632   1 H      0.860     0.212     1.049     1.604
   633   6 C      3.777     0.002    20.564     6.461
   634   1 H      0.925     0.100     1.782     2.087
   635   6 C      3.793    -0.093    22.285     6.723
   636   1 H      0.925     0.059     2.206     2.323
   637   1 H      0.925     0.076     2.016     2.220
   638   6 C      3.843    -0.022    20.940     6.509
   639   1 H      0.925     0.050     2.320     2.382
   640   6 C      3.758    -0.138    23.202     6.867
   641   1 H      0.925     0.068     2.109     2.271
   642   1 H      0.925     0.060     2.202     2.321
   643   1 H      0.924     0.046     2.369     2.407
   644   6 C      3.762    -0.133    23.110     6.853
   645   1 H      0.925     0.041     2.439     2.442
   646   1 H      0.925     0.057     2.239     2.340
   647   1 H      0.925     0.064     2.157     2.297
   648   6 C      2.763     0.271    22.419     7.754
   649   8 O      0.870    -0.473    23.184     6.456
   650   7 N      2.693    -0.162    24.513     7.353
   651   1 H      0.860     0.212     1.046     1.602
   652   6 C      3.804     0.015    20.320     6.417
   653   1 H      0.924     0.124     1.583     1.968
   654   6 C      3.814    -0.128    22.946     6.818
   655   1 H      0.924     0.079     1.987     2.204
   656   1 H      0.925     0.119     1.620     1.990
   657   6 C      2.745     0.295    22.000     7.680
   658   8 O      0.881    -0.492    23.590     6.513
   659   7 N      2.666    -0.299    27.690     7.815
   660   1 H      0.860     0.234     0.950     1.527
   661   1 H      0.860     0.235     0.943     1.521
   662   6 C      2.751     0.271    22.413     7.752
   663   8 O      0.859    -0.488    23.530     6.504
   664   7 N      2.686    -0.197    25.278     7.467
   665   1 H      0.860     0.230     0.964     1.538
   666   6 C      3.782     0.018    20.293     6.417
   667   1 H      0.925     0.059     2.210     2.325
   668   6 C      3.758    -0.135    23.144     6.859
   669   1 H      0.925     0.067     2.124     2.279
   670   1 H      0.924     0.073     2.057     2.243
   671   1 H      0.925     0.082     1.962     2.191
   672   6 C      2.762     0.267    22.487     7.766
   673   8 O      0.859    -0.503    23.848     6.547
   674   7 N      2.720    -0.170    24.676     7.378
   675   1 H      0.860     0.239     0.928     1.509
   676   6 C      3.806     0.023    20.180     6.395
   677   1 H      0.925     0.062     2.172     2.305
   678   6 C      3.781    -0.150    23.424     6.895
   679   1 H      0.925     0.086     1.917     2.165
   680   1 H      0.925     0.073     2.053     2.240
   681   1 H      0.924     0.080     1.976     2.198
   682   6 C      2.758     0.270    22.431     7.756
   683   8 O      0.858    -0.508    23.964     6.563
   684   7 N      2.682    -0.168    24.628     7.370
   685   1 H      0.860     0.244     0.905     1.491
   686   6 C      3.792     0.010    20.426     6.436
   687   1 H      0.925     0.100     1.789     2.092
   688   6 C      3.790    -0.090    22.218     6.713
   689   1 H      0.924     0.051     2.301     2.372
   690   1 H      0.925     0.079     1.992     2.207
   691   6 C      3.787    -0.094    22.307     6.727
   692   1 H      0.925     0.092     1.864     2.135
   693   1 H      0.924     0.068     2.112     2.273
   694   6 C      3.789    -0.099    22.409     6.742
   695   1 H      0.925     0.093     1.847     2.125
   696   1 H      0.925     0.071     2.077     2.254
   697   6 C      3.728    -0.058    21.711     6.652
   698   1 H      0.925     0.112     1.678     2.026
   699   1 H      0.925     0.127     1.561     1.954
   700   7 N      3.488    -0.140    24.014     7.278
   701   1 H      0.860     0.281     0.773     1.378
   702   1 H      0.860     0.302     0.706     1.316
   703   1 H      0.860     0.310     0.685     1.297
   704   6 C      2.746     0.278    22.289     7.730
   705   8 O      0.863    -0.515    24.114     6.584
   706   7 N      2.684    -0.209    25.560     7.509
   707   1 H      0.860     0.243     0.911     1.495
   708   6 C      3.787     0.025    20.170     6.397
   709   1 H      0.925     0.070     2.088     2.259
   710   6 C      3.688     0.085    19.351     6.297
   711   1 H      0.925     0.027     2.623     2.533
   712   1 H      0.924     0.052     2.290     2.367
   713   8 O      1.658    -0.467    22.190     6.359
   714   1 H      0.806     0.350     0.587     1.204
   715   6 C      2.750     0.271    22.417     7.753
   716   8 O      0.858    -0.491    23.581     6.511
   717   7 N      2.680    -0.205    25.464     7.495
   718   1 H      0.860     0.229     0.971     1.544
   719   6 C      3.785     0.034    20.022     6.374
   720   1 H      0.925     0.066     2.125     2.279
   721   6 C      3.797    -0.055    21.568     6.613
   722   1 H      0.925     0.047     2.353     2.399
   723   1 H      0.924     0.058     2.223     2.332
   724   6 C      3.799    -0.095    22.319     6.727
   725   1 H      0.925     0.008     2.929     2.676
   726   1 H      0.925     0.036     2.502     2.473
   727   6 C      2.687     0.381    20.548     7.418
   728   8 O      0.859    -0.660    27.649     7.050
   729   8 O      0.860    -0.638    27.063     6.975
   730   6 C      2.751     0.268    22.477     7.763
   731   8 O      0.858    -0.533    24.531     6.640
   732   7 N      2.687    -0.168    24.643     7.373
   733   1 H      0.860     0.226     0.981     1.552
   734   6 C      3.771     0.012    20.409     6.438
   735   1 H      0.925     0.082     1.963     2.191
   736   6 C      3.803    -0.084    22.103     6.693
   737   1 H      0.925     0.072     2.067     2.248
   738   1 H      0.925     0.078     1.998     2.211
   739   6 C      3.846    -0.016    20.834     6.493
   740   1 H      0.924     0.031     2.579     2.511
   741   6 C      3.752    -0.126    22.977     6.836
   742   1 H      0.925     0.054     2.274     2.358
   743   1 H      0.925     0.027     2.627     2.535
   744   1 H      0.925     0.051     2.302     2.373
   745   6 C      3.756    -0.133    23.107     6.854
   746   1 H      0.925     0.060     2.200     2.320
   747   1 H      0.925     0.042     2.428     2.437
   748   1 H      0.924     0.070     2.088     2.260
   749   6 C      2.742     0.268    22.470     7.761
   750   8 O      0.857    -0.510    24.017     6.570
   751   7 N      2.691    -0.160    24.471     7.347
   752   1 H      0.860     0.224     0.991     1.559
   753   6 C      3.787     0.043    19.871     6.349
   754   1 H      0.924     0.070     2.089     2.260
   755   6 C      3.806    -0.098    22.364     6.732
   756   1 H      0.925     0.027     2.629     2.535
   757   1 H      0.924     0.056     2.245     2.343
   758   6 C      2.687     0.378    20.595     7.427
   759   8 O      0.857    -0.639    27.101     6.980
   760   8 O      0.859    -0.644    27.222     6.995
   761   6 C      2.759     0.271    22.420     7.754
   762   8 O      0.860    -0.539    24.658     6.658
   763   7 N      2.693    -0.160    24.466     7.346
   764   1 H      0.860     0.214     1.037     1.595
   765   6 C      3.793     0.027    20.130     6.389
   766   1 H      0.925     0.064     2.147     2.291
   767   6 C      3.802    -0.073    21.898     6.662
   768   1 H      0.925     0.063     2.161     2.299
   769   1 H      0.925     0.062     2.178     2.308
   770   6 C      3.799    -0.076    21.950     6.671
   771   1 H      0.924     0.063     2.159     2.298
   772   1 H      0.925     0.051     2.304     2.374
   773   6 C      3.794    -0.092    22.269     6.720
   774   1 H      0.925     0.078     1.999     2.211
   775   1 H      0.924     0.077     2.009     2.217
   776   6 C      3.729    -0.059    21.737     6.656
   777   1 H      0.924     0.128     1.547     1.945
   778   1 H      0.924     0.119     1.620     1.990
   779   7 N      3.490    -0.135    23.923     7.264
   780   1 H      0.860     0.312     0.680     1.292
   781   1 H      0.860     0.282     0.769     1.373
   782   1 H      0.860     0.296     0.726     1.335
   783   6 C      2.739     0.270    22.436     7.755
   784   8 O      0.858    -0.448    22.672     6.384
   785   7 N      2.680    -0.207    25.508     7.501
   786   1 H      0.860     0.197     1.119     1.657
   787   6 C      3.782     0.016    20.324     6.422
   788   1 H      0.925     0.087     1.908     2.160
   789   6 C      3.749    -0.123    22.929     6.829
   790   1 H      0.924     0.065     2.146     2.291
   791   1 H      0.925     0.070     2.090     2.261
   792   1 H      0.924     0.059     2.208     2.324
   793   6 C      2.761     0.285    22.169     7.711
   794   8 O      0.859    -0.483    23.411     6.487
   795   7 N      2.689    -0.191    25.141     7.447
   796   1 H      0.860     0.220     1.009     1.574
   797   6 C      3.800     0.010    20.409     6.432
   798   1 H      0.925     0.105     1.744     2.065
   799   6 C      3.848    -0.017    20.838     6.493
   800   1 H      0.924     0.055     2.255     2.348
   801   6 C      3.756    -0.108    22.628     6.783
   802   1 H      0.925     0.063     2.167     2.302
   803   1 H      0.925     0.037     2.485     2.465
   804   1 H      0.925     0.031     2.570     2.507
   805   6 C      3.806    -0.070    21.829     6.651
   806   1 H      0.924     0.046     2.364     2.404
   807   1 H      0.924     0.047     2.357     2.401
   808   6 C      3.750    -0.124    22.938     6.830
   809   1 H      0.925     0.045     2.381     2.413
   810   1 H      0.925     0.050     2.315     2.379
   811   1 H      0.925     0.047     2.363     2.404
   812   6 C      2.755     0.265    22.522     7.771
   813   8 O      0.861    -0.499    23.771     6.537
   814   7 N      2.684    -0.170    24.670     7.377
   815   1 H      0.860     0.201     1.100     1.643
   816   6 C      3.744    -0.026    21.117     6.555
   817   1 H      0.925     0.098     1.803     2.100
   818   1 H      0.924     0.082     1.960     2.189
   819   6 C      2.746     0.274    22.363     7.743
   820   8 O      0.857    -0.506    23.909     6.556
   821   7 N      2.686    -0.155    24.351     7.329
   822   1 H      0.860     0.198     1.116     1.655
   823   6 C      3.783     0.014    20.354     6.427
   824   1 H      0.924     0.072     2.069     2.249
   825   6 C      3.790    -0.076    21.956     6.673
   826   1 H      0.924     0.074     2.045     2.236
   827   1 H      0.925     0.074     2.038     2.232
   828   6 C      3.791    -0.071    21.869     6.660
   829   1 H      0.925     0.048     2.346     2.395
   830   1 H      0.925     0.062     2.173     2.305
   831   6 C      3.732    -0.023    21.083     6.554
   832   1 H      0.924     0.084     1.943     2.180
   833   1 H      0.924     0.080     1.975     2.197
   834   7 N      2.693    -0.164    24.545     7.358
   835   1 H      0.860     0.248     0.891     1.479
   836   6 C      2.735     0.237    23.047     7.860
   837   7 N      2.671    -0.258    26.699     7.674
   838   1 H      0.860     0.247     0.897     1.484
   839   1 H      0.860     0.254     0.870     1.461
   840   7 N      2.678    -0.286    27.382     7.772
   841   1 H      0.860     0.223     0.994     1.562
   842   1 H      0.860     0.238     0.933     1.513
   843   6 C      2.748     0.275    22.357     7.742
   844   8 O      0.860    -0.487    23.505     6.500
   845   7 N      2.684    -0.171    24.698     7.381
   846   1 H      0.860     0.216     1.030     1.590
   847   6 C      3.788     0.028    20.124     6.389
   848   1 H      0.925     0.078     2.003     2.213
   849   6 C      3.807    -0.112    22.644     6.774
   850   1 H      0.925     0.091     1.867     2.137
   851   1 H      0.924     0.070     2.085     2.258
   852   6 C      2.740     0.299    21.933     7.668
   853   8 O      0.865    -0.485    23.443     6.492
   854   7 N      2.648    -0.273    27.064     7.726
   855   1 H      0.860     0.240     0.923     1.505
   856   1 H      0.860     0.230     0.965     1.539
   857   6 C      2.747     0.268    22.467     7.761
   858   8 O      0.858    -0.500    23.787     6.539
   859   7 N      2.687    -0.141    24.062     7.285
   860   1 H      0.860     0.206     1.078     1.626
   861   6 C      3.796    -0.001    20.596     6.462
   862   1 H      0.925     0.110     1.692     2.034
   863   6 C      3.793    -0.025    21.026     6.530
   864   1 H      0.925     0.063     2.160     2.298
   865   1 H      0.925     0.105     1.736     2.061
   866  16 S      1.898    -0.279   153.100    20.826
   867   1 H      0.923     0.168     1.274     1.765
   868   6 C      2.746     0.265    22.531     7.772
   869   8 O      0.858    -0.443    22.560     6.368
   870   7 N      2.680    -0.189    25.094     7.440
   871   1 H      0.860     0.198     1.114     1.654
   872   6 C      3.794     0.010    20.411     6.434
   873   1 H      0.925     0.095     1.835     2.118
   874   6 C      3.812    -0.104    22.478     6.748
   875   1 H      0.925     0.088     1.901     2.156
   876   1 H      0.924     0.067     2.115     2.274
   877   6 C      2.747     0.284    22.190     7.713
   878   8 O      0.863    -0.487    23.504     6.500
   879   7 N      2.648    -0.282    27.276     7.757
   880   1 H      0.861     0.259     0.847     1.442
   881   1 H      0.861     0.227     0.978     1.549
   882   6 C      2.746     0.287    22.129     7.703
   883   8 O      0.861    -0.437    22.429     6.350
   884   7 N      2.687    -0.177    24.832     7.401
   885   1 H      0.860     0.191     1.154     1.682
   886   6 C      3.730    -0.066    21.857     6.674
   887   1 H      0.924     0.137     1.486     1.906
   888   1 H      0.925     0.110     1.699     2.038
   889   6 C      2.741     0.281    22.245     7.722
   890   8 O      0.862    -0.459    22.894     6.415
   891   7 N      2.688    -0.145    24.144     7.298
   892   1 H      0.860     0.200     1.107     1.648
   893   6 C      3.778    -0.000    20.608     6.468
   894   1 H      0.925     0.079     1.993     2.208
   895   6 C      3.843    -0.013    20.786     6.485
   896   1 H      0.925     0.034     2.528     2.486
   897   6 C      3.762    -0.143    23.308     6.882
   898   1 H      0.924     0.065     2.140     2.288
   899   1 H      0.925     0.075     2.035     2.231
   900   1 H      0.925     0.071     2.077     2.254
   901   6 C      3.760    -0.120    22.854     6.815
   902   1 H      0.925     0.045     2.380     2.413
   903   1 H      0.925     0.028     2.610     2.527
   904   1 H      0.925     0.063     2.161     2.299
   905   6 C      2.743     0.267    22.483     7.764
   906   8 O      0.861    -0.470    23.133     6.449
   907   7 N      2.681    -0.188    25.084     7.438
   908   1 H      0.860     0.212     1.048     1.603
   909   6 C      3.795     0.017    20.288     6.414
   910   1 H      0.924     0.072     2.066     2.248
   911   6 C      3.848    -0.026    20.996     6.518
   912   1 H      0.925     0.038     2.474     2.460
   913   6 C      3.752    -0.117    22.800     6.809
   914   1 H      0.924     0.046     2.375     2.410
   915   1 H      0.925     0.037     2.489     2.467
   916   1 H      0.925     0.060     2.199     2.319
   917   6 C      3.797    -0.069    21.828     6.653
   918   1 H      0.924     0.025     2.666     2.553
   919   1 H      0.924     0.049     2.332     2.388
   920   6 C      3.747    -0.122    22.902     6.826
   921   1 H      0.924     0.038     2.480     2.463
   922   1 H      0.925     0.059     2.211     2.325
   923   1 H      0.925     0.051     2.305     2.374
   924   6 C      2.752     0.281    22.246     7.723
   925   8 O      0.867    -0.487    23.493     6.499
   926   7 N      2.704    -0.176    24.815     7.398
   927   1 H      0.860     0.215     1.031     1.591
   928   6 C      3.794     0.014    20.346     6.423
   929   1 H      0.925     0.086     1.919     2.166
   930   6 C      3.722     0.107    18.924     6.213
   931   1 H      0.924     0.044     2.393     2.419
   932   6 C      3.736    -0.147    23.430     6.908
   933   1 H      0.925     0.070     2.081     2.256
   934   1 H      0.925     0.065     2.144     2.290
   935   1 H      0.925     0.062     2.172     2.305
   936   8 O      1.657    -0.510    23.112     6.490
   937   1 H      0.806     0.335     0.623     1.240
   938   6 C      2.753     0.266    22.504     7.768
   939   8 O      0.862    -0.485    23.452     6.493
   940   7 N      2.690    -0.193    25.191     7.454
   941   1 H      0.860     0.214     1.037     1.595
   942   6 C      3.796     0.006    20.489     6.446
   943   1 H      0.924     0.102     1.770     2.080
   944   6 C      3.803    -0.093    22.269     6.718
   945   1 H      0.924     0.065     2.141     2.288
   946   1 H      0.924     0.088     1.902     2.156
   947   6 C      3.824    -0.077    21.958     6.668
   948   1 H      0.925     0.072     2.062     2.246
   949   1 H      0.924     0.046     2.375     2.410
   950   6 C      3.808    -0.098    22.368     6.732
   951   1 H      0.925     0.075     2.037     2.232
   952   1 H      0.925     0.099     1.791     2.093
   953   6 C      3.749    -0.051    21.557     6.622
   954   1 H      0.925     0.129     1.546     1.945
   955   1 H      0.924     0.104     1.745     2.066
   956   7 N      3.486    -0.153    24.305     7.322
   957   1 H      0.860     0.307     0.693     1.304
   958   1 H      0.860     0.293     0.734     1.342
   959   1 H      0.860     0.295     0.727     1.336
   960   6 C      2.747     0.288    22.116     7.700
   961   8 O      0.858    -0.475    23.244     6.464
   962   7 N      2.686    -0.195    25.241     7.462
   963   1 H      0.860     0.217     1.025     1.586
   964   6 C      3.785     0.022    20.214     6.404
   965   1 H      0.925     0.059     2.216     2.328
   966   6 C      3.810    -0.097    22.350     6.729
   967   1 H      0.925     0.042     2.419     2.432
   968   1 H      0.925     0.059     2.213     2.327
   969   6 C      2.691     0.379    20.579     7.424
   970   8 O      0.858    -0.636    27.030     6.971
   971   8 O      0.857    -0.667    27.818     7.071
   972   6 C      2.755     0.277    22.319     7.736
   973   8 O      0.859    -0.501    23.799     6.541
   974   7 N      2.690    -0.169    24.649     7.374
   975   1 H      0.860     0.210     1.055     1.609
   976   6 C      3.792     0.027    20.135     6.390
   977   1 H      0.924     0.073     2.051     2.240
   978   6 C      3.800    -0.066    21.772     6.643
   979   1 H      0.924     0.063     2.159     2.298
   980   1 H      0.925     0.064     2.150     2.293
   981   6 C      3.803    -0.102    22.443     6.745
   982   1 H      0.925     0.047     2.353     2.399
   983   1 H      0.925     0.046     2.365     2.405
   984   6 C      2.689     0.375    20.643     7.436
   985   8 O      0.861    -0.598    26.061     6.845
   986   8 O      0.861    -0.599    26.090     6.848
   987   6 C      2.750     0.260    22.611     7.786
   988   8 O      0.861    -0.497    23.721     6.530
   989   7 N      2.681    -0.174    24.758     7.390
   990   1 H      0.860     0.231     0.960     1.535
   991   6 C      3.783     0.007    20.480     6.446
   992   1 H      0.924     0.106     1.728     2.056
   993   6 C      3.745    -0.144    23.343     6.892
   994   1 H      0.924     0.100     1.784     2.089
   995   1 H      0.925     0.074     2.040     2.234
   996   1 H      0.924     0.072     2.063     2.246
   997   6 C      2.752     0.276    22.326     7.737
   998   8 O      0.864    -0.519    24.200     6.596
   999   7 N      2.696    -0.170    24.673     7.377
  1000   1 H      0.860     0.230     0.967     1.541
  1001   6 C      3.795     0.035    19.989     6.366
  1002   1 H      0.925     0.086     1.914     2.163
  1003   6 C      3.803    -0.067    21.790     6.646
  1004   1 H      0.925     0.040     2.448     2.447
  1005   1 H      0.925     0.067     2.116     2.275
  1006   6 C      3.792    -0.084    22.120     6.698
  1007   1 H      0.925     0.024     2.678     2.559
  1008   1 H      0.925     0.054     2.276     2.359
  1009   6 C      2.687     0.354    20.991     7.498
  1010   8 O      0.856    -0.662    27.700     7.056
  1011   8 O      0.856    -0.578    25.574     6.780
  1012   6 C      2.757     0.268    22.474     7.763
  1013   8 O      0.856    -0.503    23.855     6.548
  1014   7 N      2.686    -0.208    25.522     7.503
  1015   1 H      0.860     0.229     0.969     1.542
  1016   6 C      3.790     0.037    19.961     6.363
  1017   1 H      0.924     0.062     2.171     2.304
  1018   6 C      3.814    -0.079    22.003     6.676
  1019   1 H      0.925     0.067     2.119     2.276
  1020   1 H      0.925     0.061     2.190     2.314
  1021   6 C      3.794    -0.078    22.001     6.679
  1022   1 H      0.925     0.057     2.238     2.340
  1023   1 H      0.925     0.059     2.212     2.326
  1024   6 C      3.791    -0.102    22.452     6.748
  1025   1 H      0.925     0.082     1.964     2.191
  1026   1 H      0.925     0.070     2.089     2.260
  1027   6 C      3.727    -0.059    21.734     6.656
  1028   1 H      0.925     0.124     1.583     1.967
  1029   1 H      0.925     0.140     1.460     1.890
  1030   7 N      3.489    -0.143    24.080     7.288
  1031   1 H      0.860     0.308     0.689     1.301
  1032   1 H      0.860     0.299     0.716     1.325
  1033   1 H      0.860     0.289     0.746     1.353
  1034   6 C      2.740     0.258    22.653     7.793
  1035   8 O      0.856    -0.520    24.222     6.599
  1036   7 N      2.685    -0.185    25.005     7.427
  1037   1 H      0.860     0.232     0.957     1.532
  1038   6 C      3.791     0.017    20.298     6.416
  1039   1 H      0.925     0.080     1.979     2.200
  1040   6 C      3.827    -0.083    22.055     6.682
  1041   1 H      0.925     0.054     2.270     2.356
  1042   1 H      0.924     0.078     1.999     2.211
  1043   6 C      3.850    -0.011    20.737     6.477
  1044   1 H      0.925     0.028     2.621     2.532
  1045   6 C      3.758    -0.131    23.076     6.849
  1046   1 H      0.925     0.050     2.318     2.381
  1047   1 H      0.925     0.030     2.583     2.514
  1048   1 H      0.925     0.068     2.104     2.269
  1049   6 C      3.756    -0.130    23.043     6.844
  1050   1 H      0.924     0.064     2.155     2.295
  1051   1 H      0.925     0.031     2.577     2.510
  1052   1 H      0.925     0.063     2.160     2.299
  1053   6 C      2.751     0.279    22.274     7.728
  1054   8 O      0.858    -0.509    23.993     6.567
  1055   7 N      2.700    -0.194    25.206     7.457
  1056   1 H      0.860     0.236     0.941     1.520
  1057   6 C      3.798     0.049    19.751     6.328
  1058   1 H      0.924     0.064     2.150     2.293
  1059   6 C      3.821    -0.075    21.913     6.662
  1060   1 H      0.925     0.062     2.178     2.308
  1061   1 H      0.924     0.072     2.068     2.249
  1062   6 C      2.969     0.016    27.659     8.627
  1063   6 C      2.904    -0.041    29.021     8.833
  1064   1 H      0.926     0.042     2.428     2.436
  1065   6 C      2.920    -0.032    28.807     8.802
  1066   1 H      0.926     0.043     2.409     2.427
  1067   6 C      2.901    -0.034    28.846     8.806
  1068   1 H      0.926     0.031     2.569     2.506
  1069   6 C      2.911    -0.037    28.915     8.817
  1070   1 H      0.926     0.045     2.385     2.415
  1071   6 C      2.909    -0.037    28.917     8.818
  1072   1 H      0.926     0.022     2.704     2.571
  1073   6 C      2.762     0.278    22.295     7.733
  1074   8 O      0.864    -0.516    24.128     6.586
  1075   7 N      2.692    -0.201    25.365     7.480
  1076   1 H      0.860     0.214     1.038     1.596
  1077   6 C      3.796     0.047    19.786     6.334
  1078   1 H      0.925     0.073     2.050     2.239
  1079   6 C      3.820    -0.103    22.441     6.742
  1080   1 H      0.925     0.085     1.927     2.171
  1081   1 H      0.924     0.064     2.152     2.294
  1082   6 C      2.748     0.298    21.946     7.671
  1083   8 O      0.867    -0.500    23.786     6.539
  1084   7 N      2.650    -0.278    27.186     7.744
  1085   1 H      0.860     0.251     0.878     1.468
  1086   1 H      0.860     0.225     0.988     1.557
  1087   6 C      2.752     0.282    22.217     7.718
  1088   8 O      0.858    -0.472    23.167     6.453
  1089   7 N      2.685    -0.200    25.353     7.478
  1090   1 H      0.860     0.219     1.013     1.577
  1091   6 C      3.791     0.034    20.006     6.370
  1092   1 H      0.925     0.079     1.991     2.207
  1093   6 C      3.812    -0.061    21.664     6.625
  1094   1 H      0.925     0.049     2.333     2.388
  1095   1 H      0.924     0.069     2.098     2.265
  1096   6 C      3.798    -0.106    22.525     6.758
  1097   1 H      0.925     0.062     2.170     2.304
  1098   1 H      0.924     0.066     2.131     2.283
  1099   6 C      2.738     0.296    21.970     7.674
  1100   8 O      0.881    -0.511    24.007     6.570
  1101   7 N      2.660    -0.259    26.713     7.676
  1102   1 H      0.860     0.264     0.829     1.427
  1103   1 H      0.860     0.223     0.996     1.564
  1104   6 C      2.768     0.283    22.200     7.717
  1105   8 O      0.859    -0.497    23.708     6.528
  1106   7 N      2.685    -0.183    24.965     7.421
  1107   1 H      0.860     0.187     1.172     1.696
  1108   6 C      3.790     0.037    19.971     6.365
  1109   1 H      0.925     0.084     1.935     2.175
  1110   6 C      3.806    -0.081    22.047     6.684
  1111   1 H      0.925     0.040     2.451     2.448
  1112   1 H      0.925     0.018     2.768     2.602
  1113   6 C      2.687     0.369    20.749     7.455
  1114   8 O      0.859    -0.594    25.981     6.834
  1115   8 O      0.858    -0.639    27.085     6.978
  1116   6 C      2.755     0.266    22.516     7.770
  1117   8 O      0.858    -0.478    23.306     6.473
  1118   7 N      2.686    -0.191    25.135     7.446
  1119   1 H      0.860     0.186     1.180     1.702
  1120   6 C      3.803     0.023    20.188     6.397
  1121   1 H      0.925     0.088     1.894     2.152
  1122   6 C      3.853    -0.014    20.783     6.484
  1123   1 H      0.925     0.033     2.543     2.494
  1124   6 C      3.765    -0.119    22.823     6.809
  1125   1 H      0.925     0.054     2.272     2.357
  1126   1 H      0.925     0.039     2.460     2.453
  1127   1 H      0.924     0.065     2.144     2.290
  1128   6 C      3.756    -0.112    22.699     6.793
  1129   1 H      0.925     0.051     2.302     2.373
  1130   1 H      0.925     0.036     2.508     2.477
  1131   1 H      0.925     0.052     2.290     2.366
  1132   6 C      2.749     0.279    22.275     7.728
  1133   8 O      0.863    -0.454    22.791     6.401
  1134   7 N      2.688    -0.204    25.445     7.492
  1135   1 H      0.860     0.190     1.160     1.687
  1136   6 C      3.787     0.042    19.880     6.351
  1137   1 H      0.925     0.067     2.119     2.277
  1138   6 C      3.801    -0.091    22.241     6.714
  1139   1 H      0.925     0.021     2.724     2.581
  1140   1 H      0.925     0.028     2.609     2.526
  1141   6 C      2.685     0.357    20.933     7.487
  1142   8 O      0.856    -0.586    25.767     6.806
  1143   8 O      0.856    -0.629    26.853     6.948
  1144   6 C      2.740     0.280    22.265     7.726
  1145   8 O      0.859    -0.468    23.097     6.444
  1146   7 N      2.676    -0.179    24.886     7.409
  1147   1 H      0.860     0.193     1.143     1.675
  1148   6 C      3.781     0.023    20.212     6.404
  1149   1 H      0.924     0.098     1.805     2.101
  1150   6 C      3.756    -0.131    23.069     6.848
  1151   1 H      0.925     0.061     2.185     2.312
  1152   1 H      0.924     0.092     1.860     2.132
  1153   1 H      0.925     0.053     2.279     2.361
  1154   6 C      2.755     0.267    22.491     7.766
  1155   8 O      0.856    -0.494    23.660     6.521
  1156   7 N      2.681    -0.167    24.624     7.370
  1157   1 H      0.860     0.201     1.100     1.643
  1158   6 C      3.775     0.013    20.381     6.432
  1159   1 H      0.925     0.090     1.876     2.142
  1160   6 C      3.741    -0.126    22.994     6.841
  1161   1 H      0.925     0.052     2.300     2.372
  1162   1 H      0.925     0.076     2.019     2.222
  1163   1 H      0.924     0.066     2.133     2.284
  1164   6 C      2.742     0.259    22.633     7.790
  1165   8 O      0.857    -0.479    23.334     6.476
  1166   7 N      2.677    -0.171    24.706     7.382
  1167   1 H      0.860     0.213     1.042     1.599
  1168   6 C      3.792     0.009    20.441     6.439
  1169   1 H      0.925     0.111     1.691     2.033
  1170   6 C      3.850    -0.023    20.953     6.511
  1171   1 H      0.924     0.083     1.944     2.180
  1172   6 C      3.761    -0.131    23.065     6.846
  1173   1 H      0.925     0.069     2.098     2.265
  1174   1 H      0.924     0.054     2.265     2.353
  1175   1 H      0.925     0.045     2.377     2.411
  1176   6 C      3.750    -0.116    22.787     6.808
  1177   1 H      0.925     0.023     2.693     2.566
  1178   1 H      0.925     0.056     2.248     2.344
  1179   1 H      0.925     0.038     2.481     2.463
  1180   6 C      2.746     0.274    22.363     7.743
  1181   8 O      0.862    -0.463    22.974     6.426
  1182   7 N      2.679    -0.197    25.285     7.468
  1183   1 H      0.860     0.192     1.149     1.679
  1184   6 C      3.786     0.000    20.593     6.464
  1185   1 H      0.924     0.113     1.670     2.021
  1186   6 C      3.804    -0.088    22.167     6.703
  1187   1 H      0.925     0.088     1.897     2.154
  1188   1 H      0.924     0.057     2.236     2.338
  1189   6 C      3.809    -0.087    22.161     6.701
  1190   1 H      0.925     0.061     2.192     2.315
  1191   1 H      0.925     0.080     1.978     2.199
  1192   6 C      3.744    -0.023    21.061     6.547
  1193   1 H      0.925     0.084     1.941     2.179
  1194   1 H      0.925     0.072     2.068     2.249
  1195   7 N      2.724    -0.157    24.395     7.336
  1196   1 H      0.860     0.225     0.989     1.558
  1197   6 C      2.737     0.241    22.968     7.847
  1198   7 N      2.673    -0.253    26.575     7.656
  1199   1 H      0.860     0.267     0.822     1.420
  1200   1 H      0.860     0.269     0.814     1.413
  1201   7 N      2.696    -0.287    27.396     7.774
  1202   1 H      0.860     0.246     0.898     1.484
  1203   1 H      0.860     0.231     0.962     1.537
  1204   6 C      2.750     0.270    22.447     7.758
  1205   8 O      0.861    -0.479    23.330     6.476
  1206   7 N      2.688    -0.150    24.244     7.313
  1207   1 H      0.860     0.211     1.054     1.608
  1208   6 C      3.737    -0.032    21.226     6.574
  1209   1 H      0.924     0.081     1.967     2.193
  1210   1 H      0.925     0.097     1.812     2.105
  1211   6 C      2.755     0.268    22.477     7.763
  1212   8 O      0.858    -0.491    23.593     6.512
  1213   7 N      2.684    -0.176    24.816     7.399
  1214   1 H      0.860     0.221     1.005     1.571
  1215   6 C      3.800     0.015    20.322     6.418
[...]
  2282  H   0.992        C 2281 0.961
  2283  H   0.990        C 2281 0.954
  2284  C   3.948        O 2285 1.635    N 2286 1.288    C 2281 0.999
  2285  O   1.931        C 2284 1.635    N 2286 0.204
  2286  N   3.384        C 2284 1.288    H 2287 0.928    H 2288 0.924    O 2285 0.204
  2287  H   0.944        N 2286 0.928
  2288  H   0.943        N 2286 0.924
  2289  C   3.953        O 2290 1.634    N 2291 1.301    C 2279 0.949
  2290  O   1.951        C 2289 1.634    N 2291 0.195
  2291  N   3.457        C 2289 1.301    C 2293 0.962    H 2292 0.913    O 2290 0.195
  2292  H   0.957        N 2291 0.913
  2293  C   3.959        C 2295 0.967    C 2313 0.966    N 2291 0.962    H 2294 0.952
  2294  H   0.989        C 2293 0.952
  2295  C   3.985        C 2298 1.001    H 2297 0.972    C 2293 0.967    H 2296 0.965
  2296  H   0.995        C 2295 0.965
  2297  H   0.994        C 2295 0.972
  2298  C   3.983        C 2301 1.007    C 2295 1.001    H 2300 0.971    H 2299 0.963
  2299  H   0.993        C 2298 0.963
  2300  H   0.992        C 2298 0.971
  2301  C   3.945        C 2298 1.007    N 2304 0.967    H 2303 0.959    H 2302 0.954
  2302  H   0.991        C 2301 0.954
  2303  H   0.995        C 2301 0.959
  2304  N   3.452        C 2306 1.318    C 2301 0.967    H 2305 0.885    N 2310 0.104
  2305  H   0.945        N 2304 0.885
  2306  C   3.978        N 2310 1.323    N 2304 1.318    N 2307 1.303
  2307  N   3.380        C 2306 1.303    H 2308 0.923    H 2309 0.912
  2308  H   0.946        N 2307 0.923
  2309  H   0.939        N 2307 0.912
  2310  N   3.381        C 2306 1.323    H 2311 0.931    H 2312 0.852    N 2304 0.104
  2311  H   0.954        N 2310 0.931
  2312  H   0.930        N 2310 0.852
  2313  C   3.958        O 2314 1.614    N 2315 1.306    C 2293 0.966
  2314  O   1.938        C 2313 1.614    N 2315 0.203
  2315  N   3.451        C 2313 1.306    C 2317 0.956    H 2316 0.876    O 2314 0.203
  2316  H   0.946        N 2315 0.876
  2317  C   3.959        C 2319 1.009    N 2315 0.956    C 2323 0.948    H 2318 0.944
  2318  H   0.991        C 2317 0.944
  2319  C   3.986        C 2317 1.009    H 2321 0.974    H 2320 0.972    H 2322 0.969
  2320  H   0.995        C 2319 0.972
  2321  H   0.995        C 2319 0.974
  2322  H   0.994        C 2319 0.969
  2323  C   3.947        O 2324 1.611    N 2325 1.302    C 2317 0.948
  2324  O   1.953        C 2323 1.611    N 2325 0.190
  2325  N   3.443        C 2323 1.302    C 2327 0.976    H 2326 0.872    O 2324 0.190
  2326  H   0.941        N 2325 0.872
  2327  C   3.958        C 2329 0.980    N 2325 0.976    H 2328 0.948    C 2345 0.936
  2328  H   0.991        C 2327 0.948
  2329  C   3.979        C 2332 1.003    C 2327 0.980    H 2331 0.965    H 2330 0.965
  2330  H   0.996        C 2329 0.965
  2331  H   0.993        C 2329 0.965
  2332  C   3.988        C 2329 1.003    C 2335 0.999    H 2334 0.976    H 2333 0.974
  2333  H   0.994        C 2332 0.974
  2334  H   0.998        C 2332 0.976
  2335  C   3.981        C 2338 1.005    C 2332 0.999    H 2336 0.975    H 2337 0.969
  2336  H   0.994        C 2335 0.975
  2337  H   0.990        C 2335 0.969
  2338  C   3.912        C 2335 1.005    H 2340 0.966    H 2339 0.962    N 2341 0.958
  2339  H   0.984        C 2338 0.962
  2340  H   0.987        C 2338 0.966
  2341  N   3.657        C 2338 0.958    H 2342 0.895    H 2343 0.895    H 2344 0.888
  2342  H   0.908        N 2341 0.895
  2343  H   0.914        N 2341 0.895
  2344  H   0.904        N 2341 0.888
  2345  C   3.932        O 2346 1.618    N 2347 1.272    C 2327 0.936
  2346  O   1.991        C 2345 1.618    N 2347 0.188
  2347  N   3.466        C 2345 1.272    C 2349 0.999    H 2348 0.918    O 2346 0.188
  2348  H   0.953        N 2347 0.918
  2349  C   3.967        N 2347 0.999    C 2351 0.970    H 2350 0.946    C 2369 0.940
  2350  H   0.992        C 2349 0.946
  2351  C   3.982        C 2354 0.999    H 2352 0.971    C 2349 0.970    H 2353 0.969
  2352  H   0.995        C 2351 0.971
  2353  H   0.992        C 2351 0.969
  2354  C   3.985        C 2351 0.999    C 2357 0.995    H 2356 0.974    H 2355 0.972
  2355  H   0.995        C 2354 0.972
  2356  H   0.995        C 2354 0.974
  2357  C   3.948        C 2354 0.995    N 2360 0.975    H 2359 0.966    H 2358 0.964
  2358  H   0.995        C 2357 0.964
  2359  H   0.993        C 2357 0.966
  2360  N   3.482        C 2362 1.333    C 2357 0.975    H 2361 0.900    N 2363 0.109
  2361  H   0.943        N 2360 0.900
  2362  C   3.978        N 2360 1.333    N 2363 1.325    N 2366 1.282
  2363  N   3.394        C 2362 1.325    H 2365 0.913    H 2364 0.913    N 2360 0.109
  2364  H   0.933        N 2363 0.913
  2365  H   0.938        N 2363 0.913
  2366  N   3.352        C 2362 1.282    H 2367 0.920    H 2368 0.870
  2367  H   0.945        N 2366 0.920
  2368  H   0.941        N 2366 0.870
  2369  C   3.950        O 2370 1.619    N 2371 1.308    C 2349 0.940
  2370  O   1.969        C 2369 1.619    N 2371 0.201
  2371  N   3.469        C 2369 1.308    C 2373 0.965    H 2372 0.911    O 2370 0.201
  2372  H   0.953        N 2371 0.911
  2373  C   3.954        C 2375 0.976    N 2371 0.965    H 2374 0.953    C 2385 0.930
  2374  H   0.993        C 2373 0.953
  2375  C   3.987        C 2377 1.018    C 2381 0.990    C 2373 0.976    H 2376 0.954
  2376  H   0.996        C 2375 0.954
  2377  C   3.990        C 2375 1.018    H 2379 0.979    H 2380 0.979    H 2378 0.974
  2378  H   0.996        C 2377 0.974
  2379  H   0.999        C 2377 0.979
  2380  H   0.999        C 2377 0.979
  2381  C   3.992        C 2375 0.990    H 2383 0.986    H 2382 0.985    H 2384 0.984
  2382  H   0.997        C 2381 0.985
  2383  H   0.998        C 2381 0.986
  2384  H   0.999        C 2381 0.984
  2385  C   3.951        O 2386 1.609    N 2387 1.334    C 2373 0.930
  2386  O   1.932        C 2385 1.609    N 2387 0.200
  2387  N   3.470        C 2385 1.334    C 2389 0.947    H 2388 0.890    O 2386 0.200
  2388  H   0.949        N 2387 0.890
  2389  C   3.952        C 2391 0.982    H 2390 0.952    N 2387 0.947    C 2404 0.928
  2390  H   0.993        C 2389 0.952
  2391  C   3.981        C 2397 1.002    C 2393 0.992    C 2389 0.982    H 2392 0.951
  2392  H   0.995        C 2391 0.951
  2393  C   3.986        C 2391 0.992    H 2395 0.984    H 2396 0.983    H 2394 0.982
  2394  H   0.994        C 2393 0.982
  2395  H   0.998        C 2393 0.984
  2396  H   0.998        C 2393 0.983
  2397  C   3.987        C 2400 1.005    C 2391 1.002    H 2398 0.974    H 2399 0.969
  2398  H   0.999        C 2397 0.974
  2399  H   0.998        C 2397 0.969
  2400  C   3.992        C 2397 1.005    H 2401 0.987    H 2402 0.987    H 2403 0.983
  2401  H   0.998        C 2400 0.987
  2402  H   0.998        C 2400 0.987
  2403  H   0.997        C 2400 0.983
  2404  C   3.948        O 2405 1.594    N 2406 1.344    C 2389 0.928
  2405  O   1.935        C 2404 1.594    N 2406 0.193
  2406  N   3.494        C 2404 1.344    C 2408 0.977    H 2407 0.886    O 2405 0.193
  2407  H   0.945        N 2406 0.886
  2408  C   3.966        N 2406 0.977    C 2410 0.971    H 2409 0.941    C 2418 0.923
  2409  H   0.992        C 2408 0.941
  2410  C   3.966        C 2412 1.002    O 2416 0.989    C 2408 0.971    H 2411 0.964
  2411  H   0.999        C 2410 0.964
  2412  C   3.986        C 2410 1.002    H 2415 0.983    H 2413 0.981    H 2414 0.980
  2413  H   0.997        C 2412 0.981
  2414  H   0.994        C 2412 0.980
  2415  H   0.996        C 2412 0.983
  2416  O   1.934        C 2410 0.989    H 2417 0.844
  2417  H   0.886        O 2416 0.844
  2418  C   3.945        O 2419 1.643    N 2420 1.285    C 2408 0.923
  2419  O   1.995        C 2418 1.643    N 2420 0.197
  2420  N   3.461        C 2418 1.285    C 2422 0.972    H 2421 0.924    O 2419 0.197
  2421  H   0.960        N 2420 0.924
  2422  C   3.954        N 2420 0.972    C 2424 0.955    H 2423 0.953    C 2432 0.915
  2423  H   0.993        C 2422 0.953
  2424  C   3.956        C 2426 1.003    O 2430 0.993    H 2425 0.959    C 2422 0.955
  2425  H   0.998        C 2424 0.959
  2426  C   3.989        C 2424 1.003    H 2429 0.982    H 2428 0.982    H 2427 0.977
  2427  H   0.996        C 2426 0.977
  2428  H   0.996        C 2426 0.982
  2429  H   0.997        C 2426 0.982
  2430  O   1.945        C 2424 0.993    H 2431 0.849
  2431  H   0.891        O 2430 0.849
  2432  C   3.956        O 2433 1.649    N 2434 1.317    C 2422 0.915
  2433  O   1.990        C 2432 1.649    N 2434 0.201
  2434  N   3.464        C 2432 1.317    C 2436 0.947    H 2435 0.918    O 2433 0.201
  2435  H   0.955        N 2434 0.918
  2436  C   3.945        C 2438 0.955    C 2452 0.948    N 2434 0.947    H 2437 0.938
  2437  H   0.986        C 2436 0.938
  2438  C   3.983        C 2441 1.027    H 2440 0.965    C 2436 0.955    H 2439 0.951
  2439  H   0.993        C 2438 0.951
  2440  H   0.995        C 2438 0.965
  2441  C   3.988        C 2450 1.425    C 2442 1.393    C 2438 1.027
  2442  C   3.988        C 2444 1.463    C 2441 1.393    H 2443 0.965    C 2448 0.104
  2443  H   0.999        C 2442 0.965
  2444  C   3.987        C 2442 1.463    C 2446 1.393    H 2445 0.971    C 2450 0.128
  2445  H   0.999        C 2444 0.971
  2446  C   3.988        C 2448 1.495    C 2444 1.393    H 2447 0.964
  2447  H   0.997        C 2446 0.964
  2448  C   3.989        C 2446 1.495    C 2450 1.393    H 2449 0.962    C 2442 0.104
  2449  H   0.995        C 2448 0.962
  2450  C   3.983        C 2441 1.425    C 2448 1.393    H 2451 0.954    C 2444 0.128
  2451  H   0.996        C 2450 0.954
  2452  C   3.952        O 2453 1.629    N 2454 1.301    C 2436 0.948
  2453  O   1.973        C 2452 1.629    N 2454 0.196
  2454  N   3.459        C 2452 1.301    C 2456 0.968    H 2455 0.905    O 2453 0.196
  2455  H   0.953        N 2454 0.905
  2456  C   3.963        C 2458 0.982    N 2454 0.968    H 2457 0.946    C 2476 0.942
  2457  H   0.992        C 2456 0.946
  2458  C   3.985        C 2461 1.008    C 2456 0.982    H 2459 0.969    H 2460 0.957
  2459  H   0.997        C 2458 0.969
  2460  H   0.993        C 2458 0.957
  2461  C   3.989        C 2458 1.008    C 2464 1.004    H 2463 0.971    H 2462 0.968
  2462  H   0.996        C 2461 0.968
  2463  H   0.996        C 2461 0.971
  2464  C   3.952        C 2461 1.004    N 2467 0.993    H 2465 0.957    H 2466 0.949
  2465  H   0.991        C 2464 0.957
  2466  H   0.991        C 2464 0.949
  2467  N   3.480        C 2469 1.330    C 2464 0.993    H 2468 0.880    N 2473 0.107
  2468  H   0.945        N 2467 0.880
  2469  C   3.979        N 2467 1.330    N 2473 1.317    N 2470 1.299
  2470  N   3.364        C 2469 1.299    H 2472 0.916    H 2471 0.912
  2471  H   0.937        N 2470 0.912
  2472  H   0.939        N 2470 0.916
  2473  N   3.391        C 2469 1.317    H 2474 0.916    H 2475 0.887    N 2467 0.107
  2474  H   0.940        N 2473 0.916
  2475  H   0.945        N 2473 0.887
  2476  C   3.947        O 2477 1.656    N 2478 1.275    C 2456 0.942
  2477  O   1.973        C 2476 1.656    N 2478 0.193
  2478  N   3.454        C 2476 1.275    C 2480 0.984    H 2479 0.916    O 2477 0.193
  2479  H   0.961        N 2478 0.916
  2480  C   3.958        N 2478 0.984    H 2481 0.952    C 2490 0.951    C 2482 0.916
  2481  H   0.990        C 2480 0.952
  2482  C   3.950        O 2488 1.011    C 2484 0.992    H 2483 0.962    C 2480 0.916
  2483  H   0.996        C 2482 0.962
  2484  C   3.991        C 2482 0.992    H 2486 0.984    H 2487 0.984    H 2485 0.982
  2485  H   0.997        C 2484 0.982
  2486  H   0.996        C 2484 0.984
  2487  H   0.996        C 2484 0.984
  2488  O   1.968        C 2482 1.011    H 2489 0.848
  2489  H   0.893        O 2488 0.848
  2490  C   3.955        O 2491 1.635    N 2492 1.299    C 2480 0.951
  2491  O   1.947        C 2490 1.635    N 2492 0.199
  2492  N   3.470        C 2490 1.299    C 2494 0.987    H 2493 0.903    O 2491 0.199
  2493  H   0.952        N 2492 0.903
  2494  C   3.953        N 2492 0.987    H 2496 0.950    H 2495 0.949    C 2497 0.948
  2495  H   0.986        C 2494 0.949
  2496  H   0.985        C 2494 0.950
  2497  C   3.945        O 2498 1.619    N 2499 1.317    C 2494 0.948
  2498  O   1.924        C 2497 1.619    N 2499 0.190
  2499  N   3.482        C 2497 1.317    C 2501 0.980    H 2500 0.917    O 2498 0.190
  2500  H   0.956        N 2499 0.917
  2501  C   3.970        N 2499 0.980    C 2503 0.947    H 2502 0.945    C 2511 0.939
  2502  H   0.991        C 2501 0.945
  2503  C   3.960        O 2509 1.016    C 2505 0.997    H 2504 0.956    C 2501 0.947
  2504  H   0.999        C 2503 0.956
  2505  C   3.989        C 2503 0.997    H 2508 0.984    H 2507 0.984    H 2506 0.982
  2506  H   0.996        C 2505 0.982
  2507  H   0.996        C 2505 0.984
  2508  H   0.996        C 2505 0.984
  2509  O   1.970        C 2503 1.016    H 2510 0.845
  2510  H   0.902        O 2509 0.845
  2511  C   3.947        O 2512 1.642    N 2513 1.283    C 2501 0.939
  2512  O   1.945        C 2511 1.642    N 2513 0.190
  2513  N   3.447        C 2511 1.283    C 2515 0.958    H 2514 0.921    O 2512 0.190
  2514  H   0.959        N 2513 0.921
  2515  C   3.950        C 2517 0.973    N 2513 0.958    H 2516 0.942    C 2535 0.920
  2516  H   0.989        C 2515 0.942
  2517  C   3.978        C 2520 1.008    C 2515 0.973    H 2519 0.964    H 2518 0.959
  2518  H   0.993        C 2517 0.959
  2519  H   0.996        C 2517 0.964
  2520  C   3.964        C 2521 1.548    C 2534 1.222    C 2517 1.008
  2521  C   3.960        C 2520 1.548    N 2523 1.239    H 2522 0.962
  2522  H   0.998        C 2521 0.962
  2523  N   3.569        C 2521 1.239    C 2525 1.175    H 2524 0.933
  2524  H   0.961        N 2523 0.933
  2525  C   3.954        C 2526 1.332    C 2534 1.243    N 2523 1.175
  2526  C   3.984        C 2528 1.495    C 2525 1.332    H 2527 0.967    C 2532 0.113
  2527  H   0.997        C 2526 0.967
  2528  C   3.985        C 2526 1.495    C 2530 1.359    H 2529 0.970
  2529  H   0.996        C 2528 0.970
  2530  C   3.983        C 2532 1.504    C 2528 1.359    H 2531 0.969
  2531  H   0.997        C 2530 0.969
  2532  C   3.988        C 2530 1.504    C 2534 1.318    H 2533 0.973    C 2526 0.113
  2533  H   0.999        C 2532 0.973
  2534  C   3.981        C 2532 1.318    C 2525 1.243    C 2520 1.222
  2535  C   3.926        O 2536 1.627    N 2537 1.283    C 2515 0.920
  2536  O   1.996        C 2535 1.627    N 2537 0.180
  2537  N   3.447        C 2535 1.283    C 2539 0.974    H 2538 0.917    O 2536 0.180
  2538  H   0.960        N 2537 0.917
  2539  C   3.966        N 2537 0.974    C 2541 0.966    C 2547 0.951    H 2540 0.945
  2540  H   0.995        C 2539 0.945
  2541  C   3.977        H 2543 0.977    H 2542 0.970    C 2539 0.966    C 2544 0.918
  2542  H   0.997        C 2541 0.970
  2543  H   0.997        C 2541 0.977
  2544  C   3.940        O 2545 1.514    O 2546 1.485    C 2541 0.918
  2545  O   1.862        C 2544 1.514    O 2546 0.219
  2546  O   1.778        C 2544 1.485    O 2545 0.219
  2547  C   3.945        O 2548 1.635    N 2549 1.277    C 2539 0.951
  2548  O   1.944        C 2547 1.635    N 2549 0.192
  2549  N   3.463        C 2547 1.277    C 2551 0.992    H 2550 0.923    O 2548 0.192
  2550  H   0.961        N 2549 0.923
  2551  C   3.959        N 2549 0.992    C 2553 0.991    H 2552 0.945    C 2557 0.918
  2552  H   0.995        C 2551 0.945
  2553  C   3.977        C 2551 0.991    H 2556 0.978    H 2554 0.978    H 2555 0.978
  2554  H   0.994        C 2553 0.978
  2555  H   0.992        C 2553 0.978
  2556  H   0.995        C 2553 0.978
  2557  C   3.947        O 2558 1.652    N 2559 1.301    C 2551 0.918
  2558  O   1.965        C 2557 1.652    N 2559 0.196
  2559  N   3.455        C 2557 1.301    C 2561 0.963    H 2560 0.893    O 2558 0.196
  2560  H   0.953        N 2559 0.893
  2561  C   3.956        C 2563 0.971    N 2559 0.963    H 2562 0.955    C 2578 0.940
  2562  H   0.994        C 2561 0.955
  2563  C   3.981        C 2566 0.991    C 2561 0.971    H 2564 0.967    H 2565 0.967
  2564  H   0.995        C 2563 0.967
  2565  H   0.995        C 2563 0.967
  2566  C   3.980        C 2576 1.432    C 2567 1.387    C 2563 0.991
  2567  C   3.986        C 2569 1.478    C 2566 1.387    H 2568 0.967    C 2574 0.101
  2568  H   0.997        C 2567 0.967
  2569  C   3.981        C 2567 1.478    C 2571 1.336    H 2570 0.961    C 2576 0.110
  2570  H   0.993        C 2569 0.961
  2571  C   3.939        C 2574 1.391    C 2569 1.336    O 2572 1.078
  2572  O   2.092        C 2571 1.078    H 2573 0.824
  2573  H   0.888        O 2572 0.824
  2574  C   3.985        C 2576 1.419    C 2571 1.391    H 2575 0.966    C 2567 0.101
  2575  H   0.998        C 2574 0.966
  2576  C   3.988        C 2566 1.432    C 2574 1.419    H 2577 0.968    C 2569 0.110
  2577  H   0.999        C 2576 0.968
  2578  C   3.935        O 2579 1.589    N 2580 1.314    C 2561 0.940
  2579  O   1.887        C 2578 1.589    N 2580 0.192
  2580  N   3.462        C 2578 1.314    C 2582 0.956    H 2581 0.910    O 2579 0.192
  2581  H   0.959        N 2580 0.910
  2582  C   3.950        C 2584 0.985    H 2583 0.961    N 2580 0.956    C 2600 0.924
  2583  H   0.997        C 2582 0.961
  2584  C   3.990        C 2587 1.002    C 2582 0.985    H 2585 0.975    H 2586 0.973
  2585  H   0.999        C 2584 0.975
  2586  H   0.995        C 2584 0.973
  2587  C   3.990        C 2590 1.002    C 2584 1.002    H 2589 0.975    H 2588 0.974
  2588  H   0.995        C 2587 0.974
  2589  H   0.998        C 2587 0.975
  2590  C   3.979        C 2593 1.005    C 2587 1.002    H 2591 0.969    H 2592 0.967
  2591  H   0.995        C 2590 0.969
  2592  H   0.989        C 2590 0.967
  2593  C   3.923        C 2590 1.005    H 2594 0.968    N 2596 0.967    H 2595 0.962
  2594  H   0.991        C 2593 0.968
  2595  H   0.984        C 2593 0.962
  2596  N   3.662        C 2593 0.967    H 2598 0.898    H 2599 0.891    H 2597 0.885
  2597  H   0.902        N 2596 0.885
  2598  H   0.918        N 2596 0.898
  2599  H   0.905        N 2596 0.891
  2600  C   3.930        O 2601 1.502    O 2602 1.465    C 2582 0.924
  2601  O   1.792        C 2600 1.502    O 2602 0.221
  2602  O   1.757        C 2600 1.465    O 2601 0.221

molecular dipole:
                 x           y           z       tot (Debye)
 q only:      571.715     689.556     657.773
   full:      574.016     690.916     665.991    2842.217
molecular quadrupole (traceless):
                xx          xy          yy          xz          yz          zz
 q only:   -15731.362   68121.049   12186.047   65113.792   80433.475    3545.315
  q+dip:   -16130.153   68212.655   11381.576   66138.167   81350.984    4748.578
   full:   -16120.773   68212.912   11374.941   66137.677   81348.926    4745.832


           -------------------------------------------------
          | TOTAL ENERGY            -4085.210762897173 Eh   |
          | GRADIENT NORM               1.351306849629 Eh/α |
          | HOMO-LUMO GAP               1.558045294568 eV   |
           -------------------------------------------------
########################################################################
[WARNING] Runtime exception occurred
-2- restart_readRestart: Dimension missmatch in restart file.
-1- restart_readRestart: Number of electron missmatch in restart file.
########################################################################

------------------------------------------------------------------------
 * finished run on 2020/07/27 at 12:58:42.417     
------------------------------------------------------------------------
 total:
 * wall-time:     0 d,  0 h,  7 min, 10.639 sec
 *  cpu-time:     0 d,  5 h, 23 min, 38.457 sec
 * ratio c/w:    45.092 speedup
 SCF:
 * wall-time:     0 d,  0 h,  6 min, 39.376 sec
 *  cpu-time:     0 d,  5 h, 11 min, 31.725 sec
 * ratio c/w:    46.802 speedup

