 +---------------------------------------------------------------+
 |                                                               |
 |        ####### #     # ####### ####### ####### ######         |
 |        #     # ##    # #          #    #       #     #        |
 |        #     # # #   # #          #    #       #     #        |
 |        #     # #  #  # #####      #    #####   ######         |
 |        #     # #   # # #          #    #       #              |
 |        #     # #    ## #          #    #       #              |
 |        ####### #     # #######    #    ####### #              |
 |                                                               |
 |        Linear-Scaling Ab Initio Total Energy Program          |
 |                                                               |
 |          Release for academic collaborators of ODG            |
 |                                             Version 5.3.2.6.  |
 |                                                               |
 +---------------------------------------------------------------+
 |                                                               |
 |  Authors:                                                     |
 |  Jacek Dziedzic, Peter D. Haynes, Nicholas D. M. Hine,        |
 |  Arash. A. Mostofi, Mike C. Payne and Chris-Kriton Skylaris   |
 |                                                               |
 |  Contributors:                                                |
 |  J. Aarons, L. Andrinopoulos, P. W. Avraam, R. A. Bell,       |
 |  A. Bhandari, G. A. Bramley, R. J. Charlton, S. J. Clark,     |
 |  R. J. Clements, G. C. Constantinescu, F. Corsetti,           |
 |  N. Corsini, O. Dieguez, S. M. M. Dubois, K. K. B. Duff,      |
 |  J. M. Escartin, A. Greco, H. Helal, Q. O. Hill, L. P. Lee,   |
 |  J.-H. Li, E. B. Linscott, G. Moynihan, D. D. O`Regan,        |
 |  O. K. Okan, M. J. S. Phipps, C. J. Pickard,                  |
 |  J. C. A. Prentice, M. I. J. Probert, L. E. Ratcliff,         |
 |  M. Robinson, A. Ruiz Serrano, J. S. Spencer, E. W. Tait,     |
 |  G. Teobaldi, D. Turban, V. Vitale, K. A. Wilkinson,          |
 |  C. Weber, J. C. Womack, N. Yeung and T. J. Zuehlsdorff       |
 |                                                               |
 |                                   Copyright (c) 2004-2019     |
 |                                                               |
 |  Please cite:                                                 |
 |  "Introducing ONETEP: Linear-scaling density functional       |
 |   simulations on parallel computers".                         |
 |   C.-K. Skylaris, P. D. Haynes, A. A. Mostofi, M. C. Payne.   |
 |   J. Chem. Phys. 122 084119 (2005).                           |
 |                                                               |
 |          in all publications arising from your use of ONETEP. |
 |                                                               |
 +---------------------------------------------------------------+
 |                                                               |
 |   ONETEP is based on developments described in the following  |
 |   publications:                                               |
 |                                                               |
 |  "Nonorthogonal generalized Wannier function pseudopotential  |
 |   plane-wave method".                                         |
 |   C.-K. Skylaris, A. A. Mostofi, P. D. Haynes, O. Dieguez,    |
 |   M. C. Payne.                                                |
 |   Phys. Rev. B 66 035119 (2002).                              |
 |                                                               |
 |  "Preconditioned iterative minimization for linear-scaling    |
 |   electronic structure calculations".                         |
 |   A. A. Mostofi, P. D. Haynes, C.-K. Skylaris, M. C. Payne.   |
 |   J. Chem. Phys. 119(17), pp.8842-8848 (2003).                |
 |                                                               |
 |  "Total-energy calculations on a real space grid with         |
 |   localized functions and a plane-wave basis".                |
 |   A. A. Mostofi, C.-K. Skylaris, P. D. Haynes, M. C. Payne.   |
 |   Comput. Phys. Commun. 147, pp.788-802 (2002).               |
 |                                                               |
 |  "Accurate kinetic energy evaluation in electronic structure  |
 |   calculations with localized functions on real space grids"  |
 |   C.-K. Skylaris, A. A. Mostofi, P. D. Haynes, C. J. Pickard, |
 |   M. C. Payne.                                                |
 |   Comput. Phys. Commun. 140, pp.315-322 (2001).               |
 |                                                               |
 |  "Accurate ionic forces and geometry optimization in linear-  |
 |   scaling density-functional theory with local orbitals"      |
 |   N. D. M. Hine, M. Robinson, P. D. Haynes, C.-K. Skylaris,   |
 |   M. C. Payne, and A. A. Mostofi.                             |
 |   Phys. Rev. B 83 195102 (2011).                              |
 |                                                               |
 +---------------------------------------------------------------+

Job started: 07-03-2020 07:18 (-0000)
 
Reading parameters from file "complex_38481.dat" ...... done

If your calculation crashes here, before "Checking processes and threads..."
is displayed, then your stack size is insufficient.
If so, use "ulimit -s unlimited" at runtime.
You can disable this check with "check_stack_size F".

Checking processes and threads...
   Determining the default number of threads...
      No default threads set at compilation time: defaulting to 1.
      OpenMP library call suggests 4 threads.
      Hybrid MPI-OpenMP compilation detected.
      Number of MPI processes > 1.
      OMP_NUM_THREADS environment variable present and
      its value matches the one obtained from the OpenMP library call.
      Using this value as default.
      Default threads: 4
      Default applies to threads_max and threads_num_fftboxes.
      Settings in the input file override this default.
   ... done

   Running with 40 MPI processes.
   There are 10 MPI processes running on the same node as the root process.
   Each MPI process is using: 
               1 threads for simulation cell FFTs.
               1 threads for parallel FFT box operations.
               4 threads for loops over batched FFT box operations.
               4 threads in other parallel regions.
... done

Basic input checks...... done

Reading geometry and species blocks from file "complex_38481.dat" ...
  <species_atomic_set> block not found: NGWF initialisation set to SOLVE
IS: Dielectric excluded regions:
    - NONE.
    
  Number of PPD points along a3 set to 1.  This is 
  the default value, it may have been provided also in the input file.
... done
 Writing xyz coordinates to file "complex_38481.xyz" ... done


--------------------------------------------------------------------------------
---------------------------------- INPUT FILE ----------------------------------
--------------------------------------------------------------------------------

cutoff_energy       : 800 eV                                                    
xc_functional B97M-V                                                            
task SINGLEPOINT                                                                
write_xyz true                                                                  
output_detail VERBOSE                                                           
ngwf_threshold_orig : 0.000002                                                  
kernel_cutoff       : 1000                                                      
k_zero              : 3.5                                                       
elec_cg_max 0                                                                   
occ_mix 1.0                                                                     
dispersion 0                                                                    
maxit_ngwf_cg 40                                                                
minit_lnv 10                                                                    
maxit_lnv 10                                                                    
write_denskern T                                                                
write_tightbox_ngwfs T                                                          
charge 9                                                                        
is_implicit_solvent T                                                           
is_auto_solvation T                                                             
is_include_apolar T                                                             
is_smeared_ion_rep T                                                            
is_solvent_surf_tension 4.7624E-5 Ha/bohr**2                                    
is_apolar_scaling_factor 0.281075                                               
is_solvation_beta 1.3                                                           
is_density_threshold 0.00035                                                    
is_bulk_permittivity 78.54                                                      
is_dielectric_model fix_initial                                                 
is_smeared_ion_width 0.8                                                        
mg_defco_fd_order 8                                                             
is_bc_coarseness 10                                                             
is_bc_surface_coarseness 1                                                      
fine_grid_scale 2.0                                                             
%block species                                                                  
N   N   7 4 8.0                                                                 
H   H   1 1 8.0                                                                 
C   C   6 4 8.0                                                                 
S   S  16 9 8.0                                                                 
O   O   8 4 8.0                                                                 
%endblock species                                                               
%block species_pot                                                              
N   N_00.recpot                                                                 
H   H_04.recpot                                                                 
C   C_01.recpot                                                                 
S   S_00.recpot                                                                 
O   O_02.recpot                                                                 
%endblock species_pot                                                           
%block lattice_cart                                                             
139.252   0.000   0.000                                                         
0.000 142.425   0.000                                                           
0.000   0.000   162.84                                                          
%endblock lattice_cart                                                          
%block positions_abs                                                            
     Hash =  -000006764273451756177520
%endblock positions_abs                                                         

--------------------------------------------------------------------------------
-------------------------------- END INPUT FILE --------------------------------
--------------------------------------------------------------------------------


 
 ESDF WARNING(1): "kernelcutoff" (esdf_physical) has no units. Assume "bohr".
 ESDF WARNING(2): "kzero" (esdf_physical) has no units. Assume "1/bohr".
 ESDF WARNING(3
 ): "issmearedionwidth" (esdf_physical) has no units. Assume "bohr".
<<<<<<<<<<<<<<<<<<<<<<<<<<<<<<<<< Full system >>>>>>>>>>>>>>>>>>>>>>>>>>>>>>>>>>
<<<<<<<<<<<<<<<<<<<<<<<<< Pseudopotential information >>>>>>>>>>>>>>>>>>>>>>>>>>
File: N_00.recpot [ 2001 points up to Gmax=  52.9 (1/bohr)]
  Atomic number:  7;  ionic charge:  5.000000
    Shell 1: l = 0; rc = 1.48 bohr
File: H_04.recpot [ 2001 points up to Gmax=  52.9 (1/bohr)]
  Atomic number:  1;  ionic charge:  1.000000
    Local potential
File: C_01.recpot [ 2001 points up to Gmax=  52.9 (1/bohr)]
  Atomic number:  6;  ionic charge:  4.000000
    Shell 1: l = 0; rc = 1.48 bohr
File: S_00.recpot [ 2001 points up to Gmax=  52.9 (1/bohr)]
  Atomic number: 16;  ionic charge:  6.000000
    Shell 1: l = 0; rc = 1.90 bohr
    Shell 2: l = 2; rc = 1.84 bohr
File: O_02.recpot [ 2001 points up to Gmax=  52.9 (1/bohr)]
  Atomic number:  8;  ionic charge:  6.000000
    Shell 1: l = 0; rc = 1.31 bohr
<<<<<<<<<<<<<<<<<<<<<<<<<<<<<<<<<<<<<<<<>>>>>>>>>>>>>>>>>>>>>>>>>>>>>>>>>>>>>>>>

-------------------------- Atom counting information ---------------------------
Symbol    Natoms    Nngwfs    Nprojs
  N        237       948       237
  H       1318      1318         0
  C        816      3264       816
  S          6        54        36
  O        240       960       240
.......   ......    ......    ......
Totals:   2617      6544      1329
--------------------------------------------------------------------------------

=============================== PSINC grid sizes ===============================
                      Simulation cell:  275 x 280 x 320
                              FFT-box:   99 x  99 x  99
                                  PPD:    5 x   5 x   1
Grid space d1=  0.506370909091a0 (KE cutoff=  29.62556Eh = 806.15239eV)
Grid space d2=  0.508660714286a0 (KE cutoff=  29.35943Eh = 798.91072eV)
Grid space d3=  0.508875000000a0 (KE cutoff=  29.33471Eh = 798.23802eV)
================================================================================

********************* Fourier parallelisation information **********************
       Coarse grid (whole simulation cell) dimensions:    275   280   320
          Real-space ('12') slabs/node (min max mean):      8     8     8
         Recip-space ('23') slabs/node (min max mean):      3     4     3
********************************************************************************

********************* Fourier parallelisation information **********************
       Double grid (whole simulation cell) dimensions:    550   560   640
          Real-space ('12') slabs/node (min max mean):     16    16    16
         Recip-space ('23') slabs/node (min max mean):      6     7     6
********************************************************************************
ONETEP fine grid is 550 x 560 x 640 gridpoints, 139.2520 x 142.4250 x 162.8400 bohr.
FD multigrid is     545 x 553 x 633 gridpoints, 137.9861 x 140.6447 x 161.0589 bohr.


Calculating local pseudopotential in open BC on a radial grid ...
Discrepancy between calculated realspace psloc and -Z/x on [5a0,257.280a0]:
max |rel. diff| # avg |rel. diff| #  avg rel. diff #  f # pseudopotential file
 0.000256370913    0.000003612608   0.000000072509   55  'N_00.recpot'
 0.000395389207    0.000016224277  -0.000000076597   55  'H_04.recpot'
 0.000377360759    0.000017565724   0.000000149252   55  'C_01.recpot'
 0.000469715301    0.000020587835   0.000000455518   55  'S_00.recpot'
 0.000665442002    0.000026079317   0.000000158685   55  'O_02.recpot'
... done
 WARNING: meta-GGA functionality under development.
          Using this functional is experimental.
          Minimum tau threshold, xc_min_tau =   1.00000000E-12
 WARNING: Using alternative XC functional PBE for 
          radial densities (xc_radial).

Atom SCF Calculation for N  : Z (AE atom) =   7 : Z (PS atom) =   5
Config String:
Orbitals (num,occ):  2     2.00 3.00
Orbitals   (num,l):  2        0    1
Real-space Grid (nr,dr,rmax): 1203    0.0066555740    8.0000000000
Spherical Bessel Basis (nsws,lmax,cutoff):   47    1  176.3951722778
Confining potential (l,width,scale):  0    3.0000000000  100.0000000000
Confining potential (l,width,scale):  1    3.0000000000  100.0000000000
  1         -4.7312375307   -3.4155304497    7.0523828109   -1.9351020946
  2         -9.7309464766   -2.0532547791    8.2966052865   -2.2494486027
  3         -9.6627394379   -2.1124926340    8.2327997121   -2.2369778124
  4         -9.6814993499   -2.1215521045    8.2229805960   -2.2365178421
  5         -9.6843326483   -2.1250939529    8.2191374534   -2.2362718126
  6         -9.6859628709   -2.1267894855    8.2172963573   -2.2362066344
  7         -9.6867347035   -2.1276425665    8.2163697352   -2.2361903369
  8         -9.6870802100   -2.1280764625    8.2158983890   -2.2361891460
  9         -9.6872290423   -2.1282977424    8.2156580222   -2.2361920435
 10         -9.6872901988   -2.1284107021    8.2155353368   -2.2361953393
 11         -9.6873135296   -2.1284684031    8.2154726809   -2.2361979819
 12         -9.6873212476   -2.1284978948    8.2154406648   -2.2361998431
 13         -9.6873229586   -2.1285129774    8.2154242957   -2.2362010676
 14         -9.6873226456   -2.1285206957    8.2154159216   -2.2362018403
 15         -9.6873218534   -2.1285246479    8.2154116349   -2.2362023142
 16         -9.6873212599   -2.1285262679    8.2154098784   -2.2362025420
 17         -9.6873207834   -2.1285272564    8.2154088068   -2.2362026955
 18         -9.6873204210   -2.1285278597    8.2154081529   -2.2362027982
 19         -9.6873201550   -2.1285282280    8.2154077538   -2.2362028667
 20         -9.6873199645   -2.1285284529    8.2154075102   -2.2362029121
 21         -9.6873198305   -2.1285285903    8.2154073614   -2.2362029421
 22         -9.6873197377   -2.1285286742    8.2154072705   -2.2362029618
Atom SCF converged after  22 iterations to a total energy of     -9.68731974

Atom SCF Calculation for H  : Z (AE atom) =   1 : Z (PS atom) =   1
Config String:
Orbitals (num,occ):  1     1.00
Orbitals   (num,l):  1        0
Real-space Grid (nr,dr,rmax): 1203    0.0066555740    8.0000000000
Spherical Bessel Basis (nsws,lmax,cutoff):   47    0  176.3951722778
Confining potential (l,width,scale):  0    3.0000000000  100.0000000000
  1         -0.3194257691   -0.2393854593    0.2820953124   -0.2424203209
  2         -0.3951823392   -0.2377116493    0.2886404059   -0.2475147891
  3         -0.4317044583   -0.2352244387    0.2921333887   -0.2514046172
  4         -0.4470703708   -0.2341892222    0.2934391879   -0.2531009782
  5         -0.4532132900   -0.2338556667    0.2938388426   -0.2537313520
  6         -0.4556579251   -0.2337612552    0.2939448584   -0.2539550462
  7         -0.4566418315   -0.2337377355    0.2939680120   -0.2540342273
  8         -0.4570437922   -0.2337331116    0.2939708287   -0.2540627372
  9         -0.4572102946   -0.2337328328    0.2939698291   -0.2540732650
 10         -0.4572800424   -0.2337332404    0.2939687193   -0.2540772588
 11         -0.4573095100   -0.2337335791    0.2939680317   -0.2540788122
 12         -0.4573220379   -0.2337337762    0.2939676699   -0.2540794294
 13         -0.4573273880   -0.2337338775    0.2939674931   -0.2540796787
 14         -0.4573296803   -0.2337339266    0.2939674099   -0.2540797808
 15         -0.4573306647   -0.2337339495    0.2939673718   -0.2540798230
 16         -0.4573310882   -0.2337339601    0.2939673545   -0.2540798406
 17         -0.4573312706   -0.2337339649    0.2939673467   -0.2540798479
 18         -0.4573313493   -0.2337339670    0.2939673433   -0.2540798510
Atom SCF converged after  18 iterations to a total energy of     -0.45733135

Atom SCF Calculation for C  : Z (AE atom) =   6 : Z (PS atom) =   4
Config String:
Orbitals (num,occ):  2     2.00 2.00
Orbitals   (num,l):  2        0    1
Real-space Grid (nr,dr,rmax): 1203    0.0066555740    8.0000000000
Spherical Bessel Basis (nsws,lmax,cutoff):   47    1  176.3951722778
Confining potential (l,width,scale):  0    3.0000000000  100.0000000000
Confining potential (l,width,scale):  1    3.0000000000  100.0000000000
  1         -5.2976922011   -1.3069684169    4.5135249990   -1.4493313817
  2         -5.3721716256   -1.3429755895    4.4750154450   -1.4361613026
  3         -5.3809959565   -1.3617365618    4.4541655428   -1.4305930207
  4         -5.3918938866   -1.3667928461    4.4484735100   -1.4294652294
  5         -5.3956096428   -1.3688539142    4.4461376126   -1.4290734646
  6         -5.3968271862   -1.3696852393    4.4451910874   -1.4289366866
  7         -5.3972028401   -1.3700178062    4.4448112275   -1.4288900460
  8         -5.3973067903   -1.3701500158    4.4446598370   -1.4288749220
  9         -5.3973286940   -1.3702023868    4.4445997329   -1.4288704293
 10         -5.3973289850   -1.3702230869    4.4445759233   -1.4288693188
 11         -5.3973254264   -1.3702312560    4.4445665049   -1.4288691775
 12         -5.3973224003   -1.3702344755    4.4445627836   -1.4288692549
 13         -5.3973208708   -1.3702354890    4.4445616088   -1.4288693270
 14         -5.3973198783   -1.3702360102    4.4445610034   -1.4288693814
 15         -5.3973192535   -1.3702362780    4.4445606917   -1.4288694190
 16         -5.3973188684   -1.3702364155    4.4445605313   -1.4288694437
 17         -5.3973186349   -1.3702364860    4.4445604489   -1.4288694595
 18         -5.3973184951   -1.3702365221    4.4445604065   -1.4288694693
 19         -5.3973184122   -1.3702365405    4.4445603848   -1.4288694753
Atom SCF converged after  19 iterations to a total energy of     -5.39731841

Atom SCF Calculation for S  : Z (AE atom) =  16 : Z (PS atom) =   6
Config String:
Orbitals (num,occ):  3     2.00 4.00 0.00
Orbitals   (num,l):  3        0    1    2
Real-space Grid (nr,dr,rmax): 1203    0.0066555740    8.0000000000
Spherical Bessel Basis (nsws,lmax,cutoff):   47    2  176.3951722778
Confining potential (l,width,scale):  0    3.0000000000  100.0000000000
Confining potential (l,width,scale):  1    3.0000000000  100.0000000000
Confining potential (l,width,scale):  2    3.0000000000  100.0000000000
  1        -12.4735062396   -1.0328741412   10.1554312477   -2.4512393157
  2         -9.9458301913   -2.4607392455    8.3041325857   -2.0306994528
  3        -10.1450417646   -2.2931184565    8.4831893826   -2.0812538287
  4        -10.1528335592   -2.2733105793    8.5050388867   -2.0896035179
  5        -10.1571940363   -2.2633716629    8.5160794258   -2.0939370707
  6        -10.1594380571   -2.2584938667    8.5215163935   -2.0961289008
  7        -10.1605856507   -2.2561081821    8.5241804044   -2.0972291378
  8        -10.1611799191   -2.2549395235    8.5254868240   -2.0977806248
  9        -10.1614918752   -2.2543658586    8.5261285885   -2.0980571586
 10        -10.1616572884   -2.2540839121    8.5264441898   -2.0981959233
 11        -10.1617455602   -2.2539453058    8.5265994231   -2.0982656006
 12        -10.1617928447   -2.2538772062    8.5266757320   -2.0983006047
 13        -10.1618182292   -2.2538437891    8.5267131983   -2.0983181961
 14        -10.1618318741   -2.2538274201    8.5267315620   -2.0983270391
 15        -10.1618392144   -2.2538194197    8.5267405433   -2.0983314852
 16        -10.1618431651   -2.2538155200    8.5267449245   -2.0983337210
 17        -10.1618452923   -2.2538136252    8.5267470551   -2.0983348455
 18        -10.1618464380   -2.2538127080    8.5267480875   -2.0983354110
 19        -10.1618470552   -2.2538122659    8.5267485856   -2.0983356955
 20        -10.1618473878   -2.2538120540    8.5267488248   -2.0983358386
 21        -10.1618475670   -2.2538119530    8.5267489389   -2.0983359106
 22        -10.1618476637   -2.2538119053    8.5267489929   -2.0983359468
Atom SCF converged after  22 iterations to a total energy of    -10.16184766

Atom SCF Calculation for O  : Z (AE atom) =   8 : Z (PS atom) =   6
Config String:
Orbitals (num,occ):  2     2.00 4.00
Orbitals   (num,l):  2        0    1
Real-space Grid (nr,dr,rmax): 1203    0.0066555740    8.0000000000
Spherical Bessel Basis (nsws,lmax,cutoff):   47    1  176.3951722778
Confining potential (l,width,scale):  0    3.0000000000  100.0000000000
Confining potential (l,width,scale):  1    3.0000000000  100.0000000000
  1         -1.8735052164   -7.5539365035   10.1554312477   -2.4512393157
  2        -16.0318313751   -3.1285771268   13.6395848164   -3.2358799643
  3        -15.9524020423   -3.0762819706   13.6967272503   -3.2536856837
  4        -15.8521515939   -3.0781493909   13.6951909330   -3.2561700440
  5        -15.8357139793   -3.0748501933   13.6988803334   -3.2580493133
  6        -15.8246052853   -3.0740779781   13.6997881576   -3.2588327446
  7        -15.8189019501   -3.0737449687   13.7001869911   -3.2592378801
  8        -15.8159785510   -3.0736026016   13.7003615168   -3.2594475790
  9        -15.8144776168   -3.0735437994   13.7004360379   -3.2595560735
 10        -15.8137058024   -3.0735207882   13.7004667348   -3.2596122456
 11        -15.8133083127   -3.0735125946   13.7004786868   -3.2596413656
 12        -15.8131032938   -3.0735102195   13.7004828997   -3.2596564858
 13        -15.8129973902   -3.0735099286   13.7004840891   -3.2596643505
 14        -15.8129426040   -3.0735102506   13.7004842061   -3.2596684489
 15        -15.8129142203   -3.0735106556   13.7004840157   -3.2596705887
 16        -15.8128994940   -3.0735109855   13.7004837906   -3.2596717080
 17        -15.8128918425   -3.0735112169   13.7004836103   -3.2596722946
 18        -15.8128878614   -3.0735113674   13.7004834848   -3.2596726026
 19        -15.8128857871   -3.0735114608   13.7004834035   -3.2596727646
 20        -15.8128847048   -3.0735115170   13.7004833533   -3.2596728500
 21        -15.8128841394   -3.0735115501   13.7004833231   -3.2596728951
 22        -15.8128838436   -3.0735115693   13.7004833054   -3.2596729190
 23        -15.8128836887   -3.0735115802   13.7004832951   -3.2596729316
 24        -15.8128836074   -3.0735115864   13.7004832893   -3.2596729383
Atom SCF converged after  24 iterations to a total energy of    -15.81288361

========================== Calculation in vacuum ==============================
= Adjusting the following parameters: 
= is_implicit_solvent: F
= is_include_apolar: F
= write_denskern: T
= write_tightbox_ngwfs: T
= restart read filename prefix: ""
= restart write filename prefix: "vacuum_"
===============================================================================

Determining parallel strategy ...
... using space-filling curve
... NGWF load balancing: max    164;  min    163;  average    164
... Projector load balancing: max     36;  min     32;  average     33
... done
Calculating direct Ion-Ion energy ...
Ion-Ion Energy        :    842065.98724046116695
Basis initialisation ...... NGWF spheres initialised
... Projector spheres initialised
... NGWF tight boxes initialised
... Tight-boxes gathered
... NGWF basis size (local,global):    1793168  71799152
... Nonlocal pseudopotential projector initialisation
... done

========================== Sparse matrix information ===========================
                        Overlap matrix filling:   6.83%
                        Density kernel filling: 100.00%
              NGWF-Proj overlap matrix filling:   1.79%
                    Hamiltonian matrix filling:   7.73%
                  NGWF diagonal matrix filling:   0.05%
                             KS matrix filling: 100.00% 
                           KSKS matrix filling: 100.00% 
================================================================================

Sparse matrix initialisation ... done

Generating smeared ion density ... done
Smeared ion self correction:     -14538.952731
Smeared ion non-self correction: -842017.487675
NGWF initialisation ...... done
============ Calculation of NGWF S^-1 using Hotelling algorithm ================ 
         Iteration  |  Frobenius norm and Maximum abs value    (of I-S*S_n^-1)   
               1       0.78784673E+02     0.98323672E+00
               2       0.76978282E+02     0.96689322E+00
               3       0.74036316E+02     0.93538969E+00
               4       0.69824641E+02     0.87666841E+00
               5       0.64546951E+02     0.77538638E+00
               6       0.58586825E+02     0.70491978E+00
               7       0.52556807E+02     0.67045645E+00
               8       0.46983507E+02     0.64338800E+00
               9       0.40983944E+02     0.60368368E+00
              10       0.32852818E+02     0.53464021E+00
              11       0.22362066E+02     0.42588771E+00
              12       0.11664668E+02     0.29056904E+00
              13       0.39824377E+01     0.15041435E+00
              14       0.67520647E+00     0.46856777E-01
              15       0.38559909E-01     0.50913035E-02
              16       0.33528407E-03     0.64324841E-04
              17       0.48683482E-07     0.11027681E-07
              18       0.10199958E-12     0.57731597E-14
================================================================================
Calculating local pseudopotential in open BC on the fine real space grid ...
... done

MG BCs: +ve charge blocks (gridpoints):     19925 (   15613184).
MG BCs: -ve charge blocks (gridpoints):      7919 (    1061735).
MG BCs:     Elided blocks (gridpoints):    177195 (  174101786).
MG BCs: Computational effort saved:  99.9854%.
MG BCs: Charge after coarse-graining:           -9.0002196.
MG DL_MG: Calling solver with defect correction order = 8
MG DL_MG: Solver finished
MG Hartree energy from (\int phi*rho dr):              1471.575026
MG Hartree energy from (\int eps (grad phi)^2 dr):     1470.950813
MG Discrepancy due to finite box and discretization:     -0.624213 (  -0.04242%)
MG Correction to account for finite box:                  0.463546
MG Remaining discrepancy, due to discretization:         -0.160667 (  -0.01092%)
 WARNING: xc_energy_potential using alternative initial XC functional PBE.
Up spin density kernel initialisation ... 
======= Optimisation of K by Palser-Manolopoulos canonical purification ======== 
         Iteration  |  Band structure energy |    c_n   
               1       -2603.28553543264024    0.5268964
               2       -2780.33995978853409    0.5172107
               3       -2961.60101219352237    0.5156898
               4       -3112.72118327936550    0.5291094
               5       -3205.64739354558014    0.5644041
               6       -3244.62499335248731    0.6088110
               7       -3257.91161454795611    0.6219052
               8       -3263.64085592185165    0.6233636
               9       -3266.38882773597288    0.6403443
              10       -3267.52858924498878    0.6634339
              11       -3267.98887816583692    0.6801402
              12       -3268.19526919637610    0.6927132
              13       -3268.29423657584221    0.6718936
              14       -3268.35252143112666    0.6126802
              15       -3268.39190130806082    0.5557253
              16       -3268.41141859322852    0.5204520
              17       -3268.41696993503319    0.5100230
              18       -3268.41808201326330    0.5051103
              19       -3268.41849346352774    0.5005001
              20       -3268.41878301381439    0.5000020
              21       -3268.41893259198241    0.5000000
              22       -3268.41895940237828    0.5000000
              23       -3268.41896008564800    0.5000110
              24       -3268.41896008607364    0.5000110
Termination criterion satisfied: band energy change below threshold.
Final occupancy bounds: [    0.00000000000000:    1.00000000000000]
Closest occupancy to 0.5:     1.00000000000000
================================================================================
... done

Writing density kernel to file "complex_38481.vacuum_dkn" ... done

>>> Optimising kernel for current NGWFs:
   Initial electron number for spin 1:    7234.00000000
     Final electron number for spin 1:    7234.00000000

=================== Penalty functional idempotency correction ==================
 RMS occupancy error at iteration   1:  0.000000 (step -0.5000 Ne1=   7234.0000)
            Final RMS occupancy error   :  0.000000 (Ne1=   7234.0000)
               Final occupancy bounds   : [  0.0000,  1.0000]
================================================================================

................................................................................
<<<<<<<<<<<<<< LNV (Original version) density kernel optimisation >>>>>>>>>>>>>>
~~~~~~~~~~~~~~~~~~~~~~~~~~~~~~~~~~~~~~~~~~~~~~~~~~~~~~~~~~~~~~~~~~~~~~~~~~~~~~~~
   iter  |      energy (Eh)       | rms gradient |  commutator  |   dE (Eh)
MG BCs: +ve charge blocks (gridpoints):     30422 (   16806895).
MG BCs: -ve charge blocks (gridpoints):      8251 (    1093995).
MG BCs:     Elided blocks (gridpoints):    166688 (  172875815).
MG BCs: Computational effort saved:  99.9797%.
MG BCs: Charge after coarse-graining:           -9.0009360.
MG DL_MG: Calling solver with defect correction order = 8
MG DL_MG: Solver finished
MG Hartree energy from (\int phi*rho dr):              1424.610496
MG Hartree energy from (\int eps (grad phi)^2 dr):     1423.936696
MG Discrepancy due to finite box and discretization:     -0.673800 (  -0.04730%)
MG Correction to account for finite box:                  0.468868
MG Remaining discrepancy, due to discretization:         -0.204932 (  -0.01439%)
      ideal mu1:      -0.745952842728
             Q0:  -11534.144104227889
             G0:    -123.433305891818
   RMS gradient:       0.001697746679
MG BCs: +ve charge blocks (gridpoints):     30391 (   16890106).
MG BCs: -ve charge blocks (gridpoints):      8145 (    1071465).
MG BCs:     Elided blocks (gridpoints):    166720 (  172815134).
MG BCs: Computational effort saved:  99.9798%.
MG BCs: Charge after coarse-graining:           -9.0009573.
MG DL_MG: Calling solver with defect correction order = 8
MG DL_MG: Solver finished
MG Hartree energy from (\int phi*rho dr):              1447.727357
MG Hartree energy from (\int eps (grad phi)^2 dr):     1447.071029
MG Discrepancy due to finite box and discretization:     -0.656328 (  -0.04534%)
MG Correction to account for finite box:                  0.467436
MG Remaining discrepancy, due to discretization:         -0.188892 (  -0.01305%)
     Trial step:       0.500000000000
             Q1:  -11545.901330093271
 Quadratic coef:      49.959427080528
 Linear coef   :     -61.716652945909
           Qmin:  -11553.204297035476
Quadratic minimum step length (  0.308833870565) accepted
    Initial Ne1:    7234.00000000
      Final Ne1:    7234.00000000

=================== Penalty functional idempotency correction ==================
 RMS occupancy error at iteration   1:  0.003081 (step -0.4896 Ne1=   7234.0000)
 RMS occupancy error at iteration   2:  0.000022 (step -0.5000 Ne1=   7234.0000)
            Final RMS occupancy error   :  0.000000 (Ne1=   7234.0000)
               Final occupancy bounds   : [  0.0000,  1.0000]
================================================================================

    1        -1.153414410423E+04     1.6977E-03     1.5358E-03
MG BCs: +ve charge blocks (gridpoints):     30415 (   16859919).
MG BCs: -ve charge blocks (gridpoints):      8192 (    1080294).
MG BCs:     Elided blocks (gridpoints):    166696 (  172836492).
MG BCs: Computational effort saved:  99.9798%.
MG BCs: Charge after coarse-graining:           -9.0009492.
MG DL_MG: Calling solver with defect correction order = 8
MG DL_MG: Solver finished
MG Hartree energy from (\int phi*rho dr):              1432.416615
MG Hartree energy from (\int eps (grad phi)^2 dr):     1431.754462
MG Discrepancy due to finite box and discretization:     -0.662153 (  -0.04623%)
MG Correction to account for finite box:                  0.467892
MG Remaining discrepancy, due to discretization:         -0.194260 (  -0.01356%)
      ideal mu1:      -0.786969382319
             Q0:  -11553.564447163837
             G0:     -10.862760210718
   RMS gradient:       0.000500125298
MG BCs: +ve charge blocks (gridpoints):     30399 (   16877413).
MG BCs: -ve charge blocks (gridpoints):      8162 (    1073885).
MG BCs:     Elided blocks (gridpoints):    166712 (  172825407).
MG BCs: Computational effort saved:  99.9798%.
MG BCs: Charge after coarse-graining:           -9.0009537.
MG DL_MG: Calling solver with defect correction order = 8
MG DL_MG: Solver finished
MG Hartree energy from (\int phi*rho dr):              1438.154333
MG Hartree energy from (\int eps (grad phi)^2 dr):     1437.495969
MG Discrepancy due to finite box and discretization:     -0.658364 (  -0.04578%)
MG Correction to account for finite box:                  0.467239
MG Remaining discrepancy, due to discretization:         -0.191126 (  -0.01329%)
     Trial step:       0.392959203076
             Q1:  -11556.043648449704
 Quadratic coef:       1.789420309746
 Linear coef   :      -4.268621595613
           Qmin:  -11556.110122183185
Quadratic minimum step length (  0.468697636690) accepted
    Initial Ne1:    7233.99993136
      Final Ne1:    7234.00000000

=================== Penalty functional idempotency correction ==================
 RMS occupancy error at iteration   1:  0.001445 (step -0.4948 Ne1=   7234.0000)
 RMS occupancy error at iteration   2:  0.000006 (step -0.5000 Ne1=   7234.0000)
            Final RMS occupancy error   :  0.000000 (Ne1=   7234.0000)
               Final occupancy bounds   : [  0.0000,  1.0000]
================================================================================

    2        -1.155356444716E+04     5.0013E-04     4.5242E-04    -1.9420E+01
MG BCs: +ve charge blocks (gridpoints):     30394 (   16880895).
MG BCs: -ve charge blocks (gridpoints):      8153 (    1072548).
MG BCs:     Elided blocks (gridpoints):    166717 (  172823262).
MG BCs: Computational effort saved:  99.9798%.
MG BCs: Charge after coarse-graining:           -9.0009546.
MG DL_MG: Calling solver with defect correction order = 8
MG DL_MG: Solver finished
MG Hartree energy from (\int phi*rho dr):              1439.284612
MG Hartree energy from (\int eps (grad phi)^2 dr):     1438.626936
MG Discrepancy due to finite box and discretization:     -0.657676 (  -0.04569%)
MG Correction to account for finite box:                  0.467120
MG Remaining discrepancy, due to discretization:         -0.190556 (  -0.01324%)
      ideal mu1:      -0.808393358958
             Q0:  -11556.141686492949
             G0:      -1.815836542540
   RMS gradient:       0.000204555944
MG BCs: +ve charge blocks (gridpoints):     30391 (   16881709).
MG BCs: -ve charge blocks (gridpoints):      8158 (    1072523).
MG BCs:     Elided blocks (gridpoints):    166717 (  172822473).
MG BCs: Computational effort saved:  99.9798%.
MG BCs: Charge after coarse-graining:           -9.0009550.
MG DL_MG: Calling solver with defect correction order = 8
MG DL_MG: Solver finished
MG Hartree energy from (\int phi*rho dr):              1438.627337
MG Hartree energy from (\int eps (grad phi)^2 dr):     1437.970100
MG Discrepancy due to finite box and discretization:     -0.657238 (  -0.04569%)
MG Correction to account for finite box:                  0.466895
MG Remaining discrepancy, due to discretization:         -0.190343 (  -0.01323%)
     Trial step:       0.429160867039
             Q1:  -11556.603532495210
 Quadratic coef:       0.317439982737
 Linear coef   :      -0.779285984997
           Qmin:  -11556.619955362214
Quadratic minimum step length (  0.526775244425) accepted
    Initial Ne1:    7233.99997911
      Final Ne1:    7234.00000000

=================== Penalty functional idempotency correction ==================
 RMS occupancy error at iteration   1:  0.000555 (step -0.4979 Ne1=   7234.0000)
 RMS occupancy error at iteration   2:  0.000001 (step -0.5000 Ne1=   7234.0000)
            Final RMS occupancy error   :  0.000000 (Ne1=   7234.0000)
               Final occupancy bounds   : [  0.0000,  1.0000]
================================================================================

    3        -1.155614168649E+04     2.0456E-04     1.8504E-04    -2.5772E+00
MG BCs: +ve charge blocks (gridpoints):     30393 (   16882028).
MG BCs: -ve charge blocks (gridpoints):      8160 (    1072478).
MG BCs:     Elided blocks (gridpoints):    166715 (  172822199).
MG BCs: Computational effort saved:  99.9798%.
MG BCs: Charge after coarse-graining:           -9.0009550.
MG DL_MG: Calling solver with defect correction order = 8
MG DL_MG: Solver finished
MG Hartree energy from (\int phi*rho dr):              1438.482905
MG Hartree energy from (\int eps (grad phi)^2 dr):     1437.825755
MG Discrepancy due to finite box and discretization:     -0.657149 (  -0.04568%)
MG Correction to account for finite box:                  0.466845
MG Remaining discrepancy, due to discretization:         -0.190305 (  -0.01323%)
      ideal mu1:      -0.811398204428
             Q0:  -11556.624311281252
             G0:      -0.391547125996
   RMS gradient:       0.000095156012
MG BCs: +ve charge blocks (gridpoints):     30391 (   16882377).
MG BCs: -ve charge blocks (gridpoints):      8159 (    1072419).
MG BCs:     Elided blocks (gridpoints):    166717 (  172821909).
MG BCs: Computational effort saved:  99.9798%.
MG BCs: Charge after coarse-graining:           -9.0009550.
MG DL_MG: Calling solver with defect correction order = 8
MG DL_MG: Solver finished
MG Hartree energy from (\int phi*rho dr):              1439.504449
MG Hartree energy from (\int eps (grad phi)^2 dr):     1438.847179
MG Discrepancy due to finite box and discretization:     -0.657270 (  -0.04566%)
MG Correction to account for finite box:                  0.466786
MG Remaining discrepancy, due to discretization:         -0.190484 (  -0.01323%)
     Trial step:       0.475469579081
             Q1:  -11556.720093662501
 Quadratic coef:       0.090386365939
 Linear coef   :      -0.186168747188
           Qmin:  -11556.720174197271
Quadratic minimum step length (  0.489662212570) accepted
    Initial Ne1:    7233.99999568
      Final Ne1:    7234.00000000

=================== Penalty functional idempotency correction ==================
 RMS occupancy error at iteration   1:  0.000177 (step -0.4993 Ne1=   7234.0000)
            Final RMS occupancy error   :  0.000000 (Ne1=   7234.0000)
               Final occupancy bounds   : [ -0.0000,  1.0000]
================================================================================

    4        -1.155662431128E+04     9.5156E-05     8.6080E-05    -4.8262E-01
MG BCs: +ve charge blocks (gridpoints):     30391 (   16882402).
MG BCs: -ve charge blocks (gridpoints):      8159 (    1072427).
MG BCs:     Elided blocks (gridpoints):    166717 (  172821876).
MG BCs: Computational effort saved:  99.9798%.
MG BCs: Charge after coarse-graining:           -9.0009550.
MG DL_MG: Calling solver with defect correction order = 8
MG DL_MG: Solver finished
MG Hartree energy from (\int phi*rho dr):              1439.535180
MG Hartree energy from (\int eps (grad phi)^2 dr):     1438.877906
MG Discrepancy due to finite box and discretization:     -0.657274 (  -0.04566%)
MG Correction to account for finite box:                  0.466784
MG Remaining discrepancy, due to discretization:         -0.190490 (  -0.01323%)
      ideal mu1:      -0.811239468431
             Q0:  -11556.720577998902
             G0:      -0.101138391695
   RMS gradient:       0.000048496415
MG BCs: +ve charge blocks (gridpoints):     30391 (   16881922).
MG BCs: -ve charge blocks (gridpoints):      8158 (    1072620).
MG BCs:     Elided blocks (gridpoints):    166716 (  172822163).
MG BCs: Computational effort saved:  99.9798%.
MG BCs: Charge after coarse-graining:           -9.0009548.
MG DL_MG: Calling solver with defect correction order = 8
MG DL_MG: Solver finished
MG Hartree energy from (\int phi*rho dr):              1439.252465
MG Hartree energy from (\int eps (grad phi)^2 dr):     1438.595038
MG Discrepancy due to finite box and discretization:     -0.657427 (  -0.04568%)
MG Correction to account for finite box:                  0.466803
MG Remaining discrepancy, due to discretization:         -0.190623 (  -0.01324%)
     Trial step:       0.482513715974
             Q1:  -11556.744313910836
 Quadratic coef:       0.025064749270
 Linear coef   :      -0.048800661205
           Qmin:  -11556.744331523307
Quadratic minimum step length (  0.469723198223) accepted
    Initial Ne1:    7234.00169566
      Final Ne1:    7234.00000000

=================== Penalty functional idempotency correction ==================
 RMS occupancy error at iteration   1:  0.000060 (step -0.4997 Ne1=   7234.0000)
            Final RMS occupancy error   :  0.000000 (Ne1=   7234.0000)
               Final occupancy bounds   : [ -0.0000,  1.0000]
================================================================================

    5        -1.155672057800E+04     4.8496E-05     4.3871E-05    -9.6267E-02
MG BCs: +ve charge blocks (gridpoints):     30391 (   16881944).
MG BCs: -ve charge blocks (gridpoints):      8158 (    1072614).
MG BCs:     Elided blocks (gridpoints):    166716 (  172822147).
MG BCs: Computational effort saved:  99.9798%.
MG BCs: Charge after coarse-graining:           -9.0009547.
MG DL_MG: Calling solver with defect correction order = 8
MG DL_MG: Solver finished
MG Hartree energy from (\int phi*rho dr):              1439.259951
MG Hartree energy from (\int eps (grad phi)^2 dr):     1438.602529
MG Discrepancy due to finite box and discretization:     -0.657422 (  -0.04568%)
MG Correction to account for finite box:                  0.466803
MG Remaining discrepancy, due to discretization:         -0.190620 (  -0.01324%)
      ideal mu1:      -0.810672387944
             Q0:  -11556.744374920265
             G0:      -0.023950084437
   RMS gradient:       0.000023623480
MG BCs: +ve charge blocks (gridpoints):     30393 (   16881786).
MG BCs: -ve charge blocks (gridpoints):      8159 (    1072739).
MG BCs:     Elided blocks (gridpoints):    166715 (  172822180).
MG BCs: Computational effort saved:  99.9798%.
MG BCs: Charge after coarse-graining:           -9.0009546.
MG DL_MG: Calling solver with defect correction order = 8
MG DL_MG: Solver finished
MG Hartree energy from (\int phi*rho dr):              1438.806230
MG Hartree energy from (\int eps (grad phi)^2 dr):     1438.148795
MG Discrepancy due to finite box and discretization:     -0.657435 (  -0.04569%)
MG Correction to account for finite box:                  0.466804
MG Remaining discrepancy, due to discretization:         -0.190631 (  -0.01325%)
     Trial step:       0.476075504362
             Q1:  -11556.751336157089
 Quadratic coef:       0.004440811703
 Linear coef   :      -0.011402048528
           Qmin:  -11556.751693779932
Quadratic minimum step length (  0.611176105518) accepted
    Initial Ne1:    7234.00079240
      Final Ne1:    7234.00000000

=================== Penalty functional idempotency correction ==================
 RMS occupancy error at iteration   1:  0.000024 (step -0.4999 Ne1=   7234.0000)
            Final RMS occupancy error   :  0.000000 (Ne1=   7234.0000)
               Final occupancy bounds   : [ -0.0000,  1.0000]
================================================================================

    6        -1.155674437492E+04     2.3623E-05     2.1370E-05    -2.3797E-02
MG BCs: +ve charge blocks (gridpoints):     30393 (   16881738).
MG BCs: -ve charge blocks (gridpoints):      8159 (    1072762).
MG BCs:     Elided blocks (gridpoints):    166715 (  172822205).
MG BCs: Computational effort saved:  99.9798%.
MG BCs: Charge after coarse-graining:           -9.0009546.
MG DL_MG: Calling solver with defect correction order = 8
MG DL_MG: Solver finished
MG Hartree energy from (\int phi*rho dr):              1438.677320
MG Hartree energy from (\int eps (grad phi)^2 dr):     1438.019881
MG Discrepancy due to finite box and discretization:     -0.657439 (  -0.04570%)
MG Correction to account for finite box:                  0.466805
MG Remaining discrepancy, due to discretization:         -0.190634 (  -0.01325%)
      ideal mu1:      -0.810671917918
             Q0:  -11556.751699175104
             G0:      -0.009032260951
   RMS gradient:       0.000014522954
MG BCs: +ve charge blocks (gridpoints):     30393 (   16882099).
MG BCs: -ve charge blocks (gridpoints):      8159 (    1072577).
MG BCs:     Elided blocks (gridpoints):    166715 (  172822029).
MG BCs: Computational effort saved:  99.9798%.
MG BCs: Charge after coarse-graining:           -9.0009547.
MG DL_MG: Calling solver with defect correction order = 8
MG DL_MG: Solver finished
MG Hartree energy from (\int phi*rho dr):              1439.161711
MG Hartree energy from (\int eps (grad phi)^2 dr):     1438.504273
MG Discrepancy due to finite box and discretization:     -0.657438 (  -0.04568%)
MG Correction to account for finite box:                  0.466797
MG Remaining discrepancy, due to discretization:         -0.190641 (  -0.01325%)
     Trial step:       0.539412618214
             Q1:  -11556.753949977458
 Quadratic coef:       0.002621313173
 Linear coef   :      -0.004872115528
           Qmin:  -11556.753963069967
Quadratic minimum step length (  0.501290845356) accepted
    Initial Ne1:    7234.00004671
      Final Ne1:    7234.00000000

=================== Penalty functional idempotency correction ==================
 RMS occupancy error at iteration   1:  0.000001 (step -0.5000 Ne1=   7234.0000)
            Final RMS occupancy error   :  0.000000 (Ne1=   7234.0000)
               Final occupancy bounds   : [  0.0000,  1.0000]
================================================================================

    7        -1.155675169918E+04     1.4523E-05     1.3138E-05    -7.3243E-03
MG BCs: +ve charge blocks (gridpoints):     30393 (   16882068).
MG BCs: -ve charge blocks (gridpoints):      8159 (    1072600).
MG BCs:     Elided blocks (gridpoints):    166715 (  172822037).
MG BCs: Computational effort saved:  99.9798%.
MG BCs: Charge after coarse-graining:           -9.0009547.
MG DL_MG: Calling solver with defect correction order = 8
MG DL_MG: Solver finished
MG Hartree energy from (\int phi*rho dr):              1439.127447
MG Hartree energy from (\int eps (grad phi)^2 dr):     1438.470009
MG Discrepancy due to finite box and discretization:     -0.657438 (  -0.04568%)
MG Correction to account for finite box:                  0.466798
MG Remaining discrepancy, due to discretization:         -0.190640 (  -0.01325%)
      ideal mu1:      -0.810947862917
             Q0:  -11556.753963094205
             G0:      -0.004677443620
   RMS gradient:       0.000010451233
MG BCs: +ve charge blocks (gridpoints):     30393 (   16882146).
MG BCs: -ve charge blocks (gridpoints):      8159 (    1072543).
MG BCs:     Elided blocks (gridpoints):    166715 (  172822016).
MG BCs: Computational effort saved:  99.9798%.
MG BCs: Charge after coarse-graining:           -9.0009547.
MG DL_MG: Calling solver with defect correction order = 8
MG DL_MG: Solver finished
MG Hartree energy from (\int phi*rho dr):              1439.170072
MG Hartree energy from (\int eps (grad phi)^2 dr):     1438.512648
MG Discrepancy due to finite box and discretization:     -0.657424 (  -0.04568%)
MG Correction to account for finite box:                  0.466791
MG Remaining discrepancy, due to discretization:         -0.190633 (  -0.01325%)
     Trial step:       0.520002507090
             Q1:  -11556.755712780636
 Quadratic coef:       0.000682595979
 Linear coef   :      -0.002432282409
           Qmin:  -11556.756129821631
Quadratic minimum step length (  0.926457955890) accepted
    Initial Ne1:    7234.00004444
      Final Ne1:    7234.00000000

=================== Penalty functional idempotency correction ==================
 RMS occupancy error at iteration   1:  0.000009 (step -0.4997 Ne1=   7234.0000)
            Final RMS occupancy error   :  0.000000 (Ne1=   7234.0000)
               Final occupancy bounds   : [ -0.0000,  1.0000]
================================================================================

    8        -1.155675396309E+04     1.0451E-05     9.4544E-06    -2.2639E-03
MG BCs: +ve charge blocks (gridpoints):     30393 (   16882188).
MG BCs: -ve charge blocks (gridpoints):      8158 (    1072514).
MG BCs:     Elided blocks (gridpoints):    166715 (  172822003).
MG BCs: Computational effort saved:  99.9798%.
MG BCs: Charge after coarse-graining:           -9.0009548.
MG DL_MG: Calling solver with defect correction order = 8
MG DL_MG: Solver finished
MG Hartree energy from (\int phi*rho dr):              1439.202871
MG Hartree energy from (\int eps (grad phi)^2 dr):     1438.545459
MG Discrepancy due to finite box and discretization:     -0.657412 (  -0.04568%)
MG Correction to account for finite box:                  0.466785
MG Remaining discrepancy, due to discretization:         -0.190627 (  -0.01325%)
      ideal mu1:      -0.811038176827
             Q0:  -11556.756128263078
             G0:      -0.005347576968
   RMS gradient:       0.000011183001
MG BCs: +ve charge blocks (gridpoints):     30393 (   16882087).
MG BCs: -ve charge blocks (gridpoints):      8159 (    1072602).
MG BCs:     Elided blocks (gridpoints):    166715 (  172822016).
MG BCs: Computational effort saved:  99.9798%.
MG BCs: Charge after coarse-graining:           -9.0009547.
MG DL_MG: Calling solver with defect correction order = 8
MG DL_MG: Solver finished
MG Hartree energy from (\int phi*rho dr):              1438.951940
MG Hartree energy from (\int eps (grad phi)^2 dr):     1438.294549
MG Discrepancy due to finite box and discretization:     -0.657391 (  -0.04569%)
MG Correction to account for finite box:                  0.466777
MG Remaining discrepancy, due to discretization:         -0.190614 (  -0.01325%)
     Trial step:       0.694089662635
             Q1:  -11556.758297674591
 Quadratic coef:       0.001542286380
 Linear coef   :      -0.003711697894
           Qmin:  -11556.758361425063
Quadratic minimum step length (  0.835205177349) accepted
    Initial Ne1:    7234.00007914
      Final Ne1:    7234.00000000

=================== Penalty functional idempotency correction ==================
 RMS occupancy error at iteration   1:  0.000033 (step -0.4989 Ne1=   7234.0000)
            Final RMS occupancy error   :  0.000000 (Ne1=   7234.0000)
               Final occupancy bounds   : [ -0.0000,  1.0000]
================================================================================

    9        -1.155675612826E+04     1.1183E-05     1.0116E-05    -2.1652E-03
MG BCs: +ve charge blocks (gridpoints):     30393 (   16882062).
MG BCs: -ve charge blocks (gridpoints):      8160 (    1072621).
MG BCs:     Elided blocks (gridpoints):    166715 (  172822022).
MG BCs: Computational effort saved:  99.9798%.
MG BCs: Charge after coarse-graining:           -9.0009547.
MG DL_MG: Calling solver with defect correction order = 8
MG DL_MG: Solver finished
MG Hartree energy from (\int phi*rho dr):              1438.900452
MG Hartree energy from (\int eps (grad phi)^2 dr):     1438.243066
MG Discrepancy due to finite box and discretization:     -0.657386 (  -0.04569%)
MG Correction to account for finite box:                  0.466775
MG Remaining discrepancy, due to discretization:         -0.190611 (  -0.01325%)
      ideal mu1:      -0.810863361282
   10        -1.155675835944E+04     1.0523E-05     9.5191E-06    -2.2312E-03
Finished density kernel iterations (  10)

Writing density kernel to file "complex_38481.vacuum_dkn" ... done


>>> Density kernel optimised for the current NGWF basis:
     ~~~~~~~~~~~~~~~~~~~~~~~~~~~~~~~~~~~~~~~~~~~~~~~~~~~~~~~~~~~
     Total energy                =  -1.15567583594384E+04  Eh
     Estimated bandgap           =  -1.9529E-01  Eh
     RMS occupancy error         =   3.3495E-08
     [H,K] commutator            =   9.5191E-06
     Occupancy bounds            = [ -0.000:  1.000]
     ~~~~~~~~~~~~~~~~~~~~~~~~~~~~~~~~~~~~~~~~~~~~~~~~~~~~~~~~~~~




################################################################################
########################### NGWF CG iteration  001 #############################
################################################################################
****** Reciprocal space K.E. preconditioning with k_zero =  3.5000 a0^-1 *******

>>> Checking for convergence of NGWFs:   NOT CONVERGED
  ========================================================================
         NGWF RMS gradient =  1.6968E-03 >  2.0000E-06  | above tolerance
  ========================================================================

>>> Improving NGWFs using line search:
============ Calculation of NGWF S^-1 using Hotelling algorithm ================ 
         Iteration  |  Frobenius norm and Maximum abs value    (of I-S*S_n^-1)   
               1       0.24851419E+00     0.70365409E-02
               2       0.14378966E-02     0.67130352E-04
               3       0.82194197E-07     0.64414251E-08
               4       0.13476444E-12     0.62172489E-14
================================================================================
MG BCs: +ve charge blocks (gridpoints):     29992 (   16828558).
MG BCs: -ve charge blocks (gridpoints):      8164 (    1068928).
MG BCs:     Elided blocks (gridpoints):    167120 (  172879219).
MG BCs: Computational effort saved:  99.9800%.
MG BCs: Charge after coarse-graining:           -9.0009610.
MG DL_MG: Calling solver with defect correction order = 8
MG DL_MG: Solver finished
MG Hartree energy from (\int phi*rho dr):              1409.942606
MG Hartree energy from (\int eps (grad phi)^2 dr):     1409.286750
MG Discrepancy due to finite box and discretization:     -0.655856 (  -0.04652%)
MG Correction to account for finite box:                  0.466715
MG Remaining discrepancy, due to discretization:         -0.189141 (  -0.01341%)
============ Calculation of NGWF S^-1 using Hotelling algorithm ================ 
         Iteration  |  Frobenius norm and Maximum abs value    (of I-S*S_n^-1)   
               1       0.21565418E+01     0.49486817E-01
               2       0.96004118E-01     0.32492216E-02
               3       0.26933852E-03     0.15768529E-04
               4       0.39114846E-08     0.39484215E-09
               5       0.11638516E-12     0.55511151E-14
================================================================================
------------------------------- NGWF line search -------------------------------
RMS gradient                =       0.00169677691207
Trial step length           =               0.122474
Gradient along search dir.  =       -308.27854051238
Functional at step 0        =  -11556.75835943839047
Functional at step 1        =  -11591.46037416497711
Functional predicted        =  -11673.44321524169391
Selected quadratic step     =               0.757009
--------------------------- NGWF line search finished --------------------------
                                               
Writing NGWFs to file "complex_38481.vacuum_tightbox_ngwfs"....  done

>>> Optimising kernel for current NGWFs:
   Initial electron number for spin 1:    7280.13745770
     Final electron number for spin 1:    7234.00000000

=================== Penalty functional idempotency correction ==================
 RMS occupancy error at iteration   1:  0.005307 (step -0.4819 Ne1=   7234.0000)
 RMS occupancy error at iteration   2:  0.000101 (step -0.5003 Ne1=   7234.0000)
            Final RMS occupancy error   :  0.000000 (Ne1=   7234.0000)
               Final occupancy bounds   : [  0.0000,  1.0000]
================================================================================

................................................................................
<<<<<<<<<<<<<< LNV (Original version) density kernel optimisation >>>>>>>>>>>>>>
~~~~~~~~~~~~~~~~~~~~~~~~~~~~~~~~~~~~~~~~~~~~~~~~~~~~~~~~~~~~~~~~~~~~~~~~~~~~~~~~
   iter  |      energy (Eh)       | rms gradient |  commutator  |   dE (Eh)
MG BCs: +ve charge blocks (gridpoints):     24675 (   16532891).
MG BCs: -ve charge blocks (gridpoints):      8253 (    1039997).
MG BCs:     Elided blocks (gridpoints):    172445 (  173203817).
MG BCs: Computational effort saved:  99.9827%.
MG BCs: Charge after coarse-graining:           -9.0007409.
MG DL_MG: Calling solver with defect correction order = 8
MG DL_MG: Solver finished
MG Hartree energy from (\int phi*rho dr):              1281.521607
MG Hartree energy from (\int eps (grad phi)^2 dr):     1280.868442
MG Discrepancy due to finite box and discretization:     -0.653165 (  -0.05097%)
MG Correction to account for finite box:                  0.466441
MG Remaining discrepancy, due to discretization:         -0.186724 (  -0.01457%)
      ideal mu1:      -0.753724668083
             Q0:  -11672.833129944163
             G0:      -9.528103223010
   RMS gradient:       0.000471693548
MG BCs: +ve charge blocks (gridpoints):     24736 (   16545273).
MG BCs: -ve charge blocks (gridpoints):      8246 (    1036578).
MG BCs:     Elided blocks (gridpoints):    172384 (  173194854).
MG BCs: Computational effort saved:  99.9827%.
MG BCs: Charge after coarse-graining:           -9.0007366.
MG DL_MG: Calling solver with defect correction order = 8
MG DL_MG: Solver finished
MG Hartree energy from (\int phi*rho dr):              1295.149147
MG Hartree energy from (\int eps (grad phi)^2 dr):     1294.490513
MG Discrepancy due to finite box and discretization:     -0.658634 (  -0.05085%)
MG Correction to account for finite box:                  0.466294
MG Remaining discrepancy, due to discretization:         -0.192341 (  -0.01485%)
     Trial step:       0.761385106091
             Q1:  -11671.764327586396
 Quadratic coef:       8.323358241065
 Linear coef   :      -7.254555883298
           Qmin:  -11674.413879550862
Quadratic minimum step length (  0.331807825692) accepted
    Initial Ne1:    7233.99890279
      Final Ne1:    7234.00000000

=================== Penalty functional idempotency correction ==================
 RMS occupancy error at iteration   1:  0.000350 (step -0.4986 Ne1=   7234.0000)
 RMS occupancy error at iteration   2:  0.000000 (step -0.5000 Ne1=   7234.0000)
            Final RMS occupancy error   :  0.000000 (Ne1=   7234.0000)
               Final occupancy bounds   : [  0.0000,  1.0000]
================================================================================

    1        -1.167283312994E+04     4.7169E-04     4.2670E-04
MG BCs: +ve charge blocks (gridpoints):     24700 (   16538462).
MG BCs: -ve charge blocks (gridpoints):      8247 (    1038506).
MG BCs:     Elided blocks (gridpoints):    172420 (  173199737).
MG BCs: Computational effort saved:  99.9827%.
MG BCs: Charge after coarse-graining:           -9.0007389.
MG DL_MG: Calling solver with defect correction order = 8
MG DL_MG: Solver finished
MG Hartree energy from (\int phi*rho dr):              1286.403626
MG Hartree energy from (\int eps (grad phi)^2 dr):     1285.748177
MG Discrepancy due to finite box and discretization:     -0.655449 (  -0.05095%)
MG Correction to account for finite box:                  0.466364
MG Remaining discrepancy, due to discretization:         -0.189084 (  -0.01470%)
      ideal mu1:      -0.759406664096
             Q0:  -11674.393307725899
             G0:      -0.863106577719
   RMS gradient:       0.000142494916
MG BCs: +ve charge blocks (gridpoints):     24704 (   16537872).
MG BCs: -ve charge blocks (gridpoints):      8252 (    1039390).
MG BCs:     Elided blocks (gridpoints):    172416 (  173199443).
MG BCs: Computational effort saved:  99.9827%.
MG BCs: Charge after coarse-graining:           -9.0007388.
MG DL_MG: Calling solver with defect correction order = 8
MG DL_MG: Solver finished
MG Hartree energy from (\int phi*rho dr):              1286.936527
MG Hartree energy from (\int eps (grad phi)^2 dr):     1286.280786
MG Discrepancy due to finite box and discretization:     -0.655742 (  -0.05095%)
MG Correction to account for finite box:                  0.466371
MG Remaining discrepancy, due to discretization:         -0.189370 (  -0.01471%)
     Trial step:       0.502626637343
             Q1:  -11674.588570839725
 Quadratic coef:       0.238557243001
 Linear coef   :      -0.433820356827
           Qmin:  -11674.590535128880
Quadratic minimum step length (  0.457017494878) accepted
    Initial Ne1:    7233.99986207
      Final Ne1:    7234.00000000

=================== Penalty functional idempotency correction ==================
 RMS occupancy error at iteration   1:  0.000134 (step -0.4995 Ne1=   7234.0000)
            Final RMS occupancy error   :  0.000000 (Ne1=   7234.0000)
               Final occupancy bounds   : [ -0.0000,  1.0000]
================================================================================

    2        -1.167439330773E+04     1.4249E-04     1.2890E-04    -1.5602E+00
MG BCs: +ve charge blocks (gridpoints):     24704 (   16537919).
MG BCs: -ve charge blocks (gridpoints):      8252 (    1039307).
MG BCs:     Elided blocks (gridpoints):    172416 (  173199479).
MG BCs: Computational effort saved:  99.9827%.
MG BCs: Charge after coarse-graining:           -9.0007388.
MG DL_MG: Calling solver with defect correction order = 8
MG DL_MG: Solver finished
MG Hartree energy from (\int phi*rho dr):              1286.888670
MG Hartree energy from (\int eps (grad phi)^2 dr):     1286.232955
MG Discrepancy due to finite box and discretization:     -0.655714 (  -0.05095%)
MG Correction to account for finite box:                  0.466371
MG Remaining discrepancy, due to discretization:         -0.189343 (  -0.01471%)
      ideal mu1:      -0.760066539453
             Q0:  -11674.590910171508
             G0:      -0.170116384154
   RMS gradient:       0.000062965111
MG BCs: +ve charge blocks (gridpoints):     24705 (   16537339).
MG BCs: -ve charge blocks (gridpoints):      8254 (    1039710).
MG BCs:     Elided blocks (gridpoints):    172415 (  173199656).
MG BCs: Computational effort saved:  99.9827%.
MG BCs: Charge after coarse-graining:           -9.0007388.
MG DL_MG: Calling solver with defect correction order = 8
MG DL_MG: Solver finished
MG Hartree energy from (\int phi*rho dr):              1286.324997
MG Hartree energy from (\int eps (grad phi)^2 dr):     1285.669378
MG Discrepancy due to finite box and discretization:     -0.655619 (  -0.05097%)
MG Correction to account for finite box:                  0.466371
MG Remaining discrepancy, due to discretization:         -0.189248 (  -0.01471%)
     Trial step:       0.479279841697
             Q1:  -11674.640286328155
 Quadratic coef:       0.032157197020
 Linear coef   :      -0.081533353667
           Qmin:  -11674.642591353144
Quadratic minimum step length (  0.607597932349) accepted
    Initial Ne1:    7234.00050482
      Final Ne1:    7234.00000000

=================== Penalty functional idempotency correction ==================
 RMS occupancy error at iteration   1:  0.000067 (step -0.4998 Ne1=   7234.0000)
            Final RMS occupancy error   :  0.000000 (Ne1=   7234.0000)
               Final occupancy bounds   : [ -0.0000,  1.0000]
================================================================================

    3        -1.167459091017E+04     6.2965E-05     5.6959E-05    -1.9760E-01
MG BCs: +ve charge blocks (gridpoints):     24705 (   16537202).
MG BCs: -ve charge blocks (gridpoints):      8254 (    1039795).
MG BCs:     Elided blocks (gridpoints):    172415 (  173199708).
MG BCs: Computational effort saved:  99.9827%.
MG BCs: Charge after coarse-graining:           -9.0007388.
MG DL_MG: Calling solver with defect correction order = 8
MG DL_MG: Solver finished
MG Hartree energy from (\int phi*rho dr):              1286.173774
MG Hartree energy from (\int eps (grad phi)^2 dr):     1285.518179
MG Discrepancy due to finite box and discretization:     -0.655595 (  -0.05097%)
MG Correction to account for finite box:                  0.466371
MG Remaining discrepancy, due to discretization:         -0.189224 (  -0.01471%)
      ideal mu1:      -0.759119676826
             Q0:  -11674.642687401618
             G0:      -0.033106955927
   RMS gradient:       0.000027762945
MG BCs: +ve charge blocks (gridpoints):     24703 (   16536932).
MG BCs: -ve charge blocks (gridpoints):      8254 (    1039861).
MG BCs:     Elided blocks (gridpoints):    172417 (  173199912).
MG BCs: Computational effort saved:  99.9827%.
MG BCs: Charge after coarse-graining:           -9.0007388.
MG DL_MG: Calling solver with defect correction order = 8
MG DL_MG: Solver finished
MG Hartree energy from (\int phi*rho dr):              1286.183581
MG Hartree energy from (\int eps (grad phi)^2 dr):     1285.528078
MG Discrepancy due to finite box and discretization:     -0.655503 (  -0.05096%)
MG Correction to account for finite box:                  0.466370
MG Remaining discrepancy, due to discretization:         -0.189133 (  -0.01470%)
     Trial step:       0.539638249971
             Q1:  -11674.651434183586
 Quadratic coef:       0.009118997790
 Linear coef   :      -0.017865779758
           Qmin:  -11674.651437981827
Quadratic minimum step length (  0.528624874412) accepted
    Initial Ne1:    7234.00022588
      Final Ne1:    7234.00000000

=================== Penalty functional idempotency correction ==================
 RMS occupancy error at iteration   1:  0.000018 (step -0.4999 Ne1=   7234.0000)
            Final RMS occupancy error   :  0.000000 (Ne1=   7234.0000)
               Final occupancy bounds   : [ -0.0000,  1.0000]
================================================================================

    4        -1.167464268740E+04     2.7763E-05     2.5115E-05    -5.1777E-02
MG BCs: +ve charge blocks (gridpoints):     24702 (   16536939).
MG BCs: -ve charge blocks (gridpoints):      8254 (    1039854).
MG BCs:     Elided blocks (gridpoints):    172418 (  173199912).
MG BCs: Computational effort saved:  99.9827%.
MG BCs: Charge after coarse-graining:           -9.0007388.
MG DL_MG: Calling solver with defect correction order = 8
MG DL_MG: Solver finished
MG Hartree energy from (\int phi*rho dr):              1286.183367
MG Hartree energy from (\int eps (grad phi)^2 dr):     1285.527862
MG Discrepancy due to finite box and discretization:     -0.655505 (  -0.05097%)
MG Correction to account for finite box:                  0.466370
MG Remaining discrepancy, due to discretization:         -0.189135 (  -0.01471%)
      ideal mu1:      -0.759173921483
             Q0:  -11674.651442674105
             G0:      -0.009796637967
   RMS gradient:       0.000015121953
MG BCs: +ve charge blocks (gridpoints):     24702 (   16537335).
MG BCs: -ve charge blocks (gridpoints):      8253 (    1039746).
MG BCs:     Elided blocks (gridpoints):    172418 (  173199624).
MG BCs: Computational effort saved:  99.9827%.
MG BCs: Charge after coarse-graining:           -9.0007387.
MG DL_MG: Calling solver with defect correction order = 8
MG DL_MG: Solver finished
MG Hartree energy from (\int phi*rho dr):              1286.507574
MG Hartree energy from (\int eps (grad phi)^2 dr):     1285.852095
MG Discrepancy due to finite box and discretization:     -0.655479 (  -0.05095%)
MG Correction to account for finite box:                  0.466362
MG Remaining discrepancy, due to discretization:         -0.189117 (  -0.01470%)
     Trial step:       0.534103175537
             Q1:  -11674.653924439219
 Quadratic coef:       0.002750650334
 Linear coef   :      -0.005232415448
           Qmin:  -11674.653931010325
Quadratic minimum step length (  0.507997994532) accepted
    Initial Ne1:    7234.00007590
      Final Ne1:    7234.00000000

=================== Penalty functional idempotency correction ==================
 RMS occupancy error at iteration   1:  0.000007 (step -0.5000 Ne1=   7234.0000)
            Final RMS occupancy error   :  0.000000 (Ne1=   7234.0000)
               Final occupancy bounds   : [ -0.0000,  1.0000]
================================================================================

    5        -1.167465144267E+04     1.5122E-05     1.3680E-05    -8.7553E-03
MG BCs: +ve charge blocks (gridpoints):     24702 (   16537310).
MG BCs: -ve charge blocks (gridpoints):      8253 (    1039750).
MG BCs:     Elided blocks (gridpoints):    172418 (  173199645).
MG BCs: Computational effort saved:  99.9827%.
MG BCs: Charge after coarse-graining:           -9.0007387.
MG DL_MG: Calling solver with defect correction order = 8
MG DL_MG: Solver finished
MG Hartree energy from (\int phi*rho dr):              1286.491705
MG Hartree energy from (\int eps (grad phi)^2 dr):     1285.836225
MG Discrepancy due to finite box and discretization:     -0.655480 (  -0.05095%)
MG Correction to account for finite box:                  0.466362
MG Remaining discrepancy, due to discretization:         -0.189118 (  -0.01470%)
      ideal mu1:      -0.759405739683
             Q0:  -11674.653931598878
             G0:      -0.002220473152
   RMS gradient:       0.000007199380
MG BCs: +ve charge blocks (gridpoints):     24703 (   16537305).
MG BCs: -ve charge blocks (gridpoints):      8253 (    1039774).
MG BCs:     Elided blocks (gridpoints):    172417 (  173199626).
MG BCs: Computational effort saved:  99.9827%.
MG BCs: Charge after coarse-graining:           -9.0007387.
MG DL_MG: Calling solver with defect correction order = 8
MG DL_MG: Solver finished
MG Hartree energy from (\int phi*rho dr):              1286.455575
MG Hartree energy from (\int eps (grad phi)^2 dr):     1285.800100
MG Discrepancy due to finite box and discretization:     -0.655474 (  -0.05095%)
MG Correction to account for finite box:                  0.466360
MG Remaining discrepancy, due to discretization:         -0.189114 (  -0.01470%)
     Trial step:       0.520887072258
             Q1:  -11674.654578214046
 Quadratic coef:       0.000510000591
 Linear coef   :      -0.001156615759
           Qmin:  -11674.654587362831
Quadratic minimum step length (  0.590652449253) accepted
    Initial Ne1:    7234.00002247
      Final Ne1:    7234.00000000

=================== Penalty functional idempotency correction ==================
 RMS occupancy error at iteration   1:  0.000002 (step -0.5000 Ne1=   7234.0000)
            Final RMS occupancy error   :  0.000000 (Ne1=   7234.0000)
               Final occupancy bounds   : [  0.0000,  1.0000]
================================================================================

    6        -1.167465393160E+04     7.1994E-06     6.5127E-06    -2.4889E-03
MG BCs: +ve charge blocks (gridpoints):     24703 (   16537301).
MG BCs: -ve charge blocks (gridpoints):      8253 (    1039779).
MG BCs:     Elided blocks (gridpoints):    172417 (  173199625).
MG BCs: Computational effort saved:  99.9827%.
MG BCs: Charge after coarse-graining:           -9.0007387.
MG DL_MG: Calling solver with defect correction order = 8
MG DL_MG: Solver finished
MG Hartree energy from (\int phi*rho dr):              1286.450740
MG Hartree energy from (\int eps (grad phi)^2 dr):     1285.795267
MG Discrepancy due to finite box and discretization:     -0.655473 (  -0.05095%)
MG Correction to account for finite box:                  0.466360
MG Remaining discrepancy, due to discretization:         -0.189114 (  -0.01470%)
      ideal mu1:      -0.759370315314
             Q0:  -11674.654587424709
             G0:      -0.000694214527
   RMS gradient:       0.000004026276
MG BCs: +ve charge blocks (gridpoints):     24702 (   16537195).
MG BCs: -ve charge blocks (gridpoints):      8253 (    1039804).
MG BCs:     Elided blocks (gridpoints):    172418 (  173199706).
MG BCs: Computational effort saved:  99.9827%.
MG BCs: Charge after coarse-graining:           -9.0007387.
MG DL_MG: Calling solver with defect correction order = 8
MG DL_MG: Solver finished
MG Hartree energy from (\int phi*rho dr):              1286.394942
MG Hartree energy from (\int eps (grad phi)^2 dr):     1285.739467
MG Discrepancy due to finite box and discretization:     -0.655475 (  -0.05095%)
MG Correction to account for finite box:                  0.466360
MG Remaining discrepancy, due to discretization:         -0.189115 (  -0.01470%)
     Trial step:       0.554673980833
             Q1:  -11674.654745445237
 Quadratic coef:       0.000227042206
 Linear coef   :      -0.000385062735
           Qmin:  -11674.654750690950
Quadratic minimum step length (  0.470362501226) accepted
    Initial Ne1:    7233.99999947
      Final Ne1:    7234.00000000

=================== Penalty functional idempotency correction ==================
 RMS occupancy error at iteration   1:  0.000000 (step -0.5000 Ne1=   7234.0000)
            Final RMS occupancy error   :  0.000000 (Ne1=   7234.0000)
               Final occupancy bounds   : [  0.0000,  1.0000]
================================================================================

    7        -1.167465458742E+04     4.0263E-06     3.6422E-06    -6.5583E-04
MG BCs: +ve charge blocks (gridpoints):     24702 (   16537204).
MG BCs: -ve charge blocks (gridpoints):      8253 (    1039805).
MG BCs:     Elided blocks (gridpoints):    172418 (  173199696).
MG BCs: Computational effort saved:  99.9827%.
MG BCs: Charge after coarse-graining:           -9.0007387.
MG DL_MG: Calling solver with defect correction order = 8
MG DL_MG: Solver finished
MG Hartree energy from (\int phi*rho dr):              1286.403416
MG Hartree energy from (\int eps (grad phi)^2 dr):     1285.747941
MG Discrepancy due to finite box and discretization:     -0.655475 (  -0.05095%)
MG Correction to account for finite box:                  0.466360
MG Remaining discrepancy, due to discretization:         -0.189115 (  -0.01470%)
      ideal mu1:      -0.759314740018
             Q0:  -11674.654750690097
             G0:      -0.000328772716
   RMS gradient:       0.000002770786
MG BCs: +ve charge blocks (gridpoints):     24702 (   16537189).
MG BCs: -ve charge blocks (gridpoints):      8253 (    1039803).
MG BCs:     Elided blocks (gridpoints):    172418 (  173199713).
MG BCs: Computational effort saved:  99.9827%.
MG BCs: Charge after coarse-graining:           -9.0007387.
MG DL_MG: Calling solver with defect correction order = 8
MG DL_MG: Solver finished
MG Hartree energy from (\int phi*rho dr):              1286.386755
MG Hartree energy from (\int eps (grad phi)^2 dr):     1285.731281
MG Discrepancy due to finite box and discretization:     -0.655475 (  -0.05095%)
MG Correction to account for finite box:                  0.466360
MG Remaining discrepancy, due to discretization:         -0.189114 (  -0.01470%)
     Trial step:       0.510781598132
             Q1:  -11674.654869997175
 Quadratic coef:       0.000048623975
 Linear coef   :      -0.000167931053
           Qmin:  -11674.654895684611
Quadratic minimum step length (  0.882034957987) accepted
    Initial Ne1:    7233.99999953
      Final Ne1:    7234.00000000

=================== Penalty functional idempotency correction ==================
 RMS occupancy error at iteration   1:  0.000001 (step -0.5000 Ne1=   7234.0000)
            Final RMS occupancy error   :  0.000000 (Ne1=   7234.0000)
               Final occupancy bounds   : [  0.0000,  1.0000]
================================================================================

    8        -1.167465475069E+04     2.7708E-06     2.5065E-06    -1.6327E-04
MG BCs: +ve charge blocks (gridpoints):     24703 (   16537177).
MG BCs: -ve charge blocks (gridpoints):      8253 (    1039813).
MG BCs:     Elided blocks (gridpoints):    172417 (  173199715).
MG BCs: Computational effort saved:  99.9827%.
MG BCs: Charge after coarse-graining:           -9.0007388.
MG DL_MG: Calling solver with defect correction order = 8
MG DL_MG: Solver finished
[...]
 RMS occupancy error at iteration   1:  0.000000 (step -0.5000 Ne1=   7234.0000)
            Final RMS occupancy error   :  0.000000 (Ne1=   7234.0000)
               Final occupancy bounds   : [  0.0000,  1.0000]
================================================================================

    7        -1.171082875897E+04     8.2355E-09     7.4500E-09    -4.6566E-10

Reusing previously generated solute cavity.
MG BCs: +ve charge blocks (gridpoints):     29043 (   18644359).
MG BCs: -ve charge blocks (gridpoints):      8256 (    1017063).
MG BCs:     Elided blocks (gridpoints):    168077 (  171115283).
MG BCs: Computational effort saved:  99.9804%.
MG BCs: Charge after coarse-graining:           -9.0009643.
MG DL_MG: Calling solver with defect correction order = 8
MG DL_MG: Solver finished
MG Hartree energy from (\int phi*rho dr):              1236.931159
MG Hartree energy from (\int eps (grad phi)^2 dr):     1236.736685
MG Discrepancy due to finite box and discretization:     -0.194474 (  -0.01572%)
MG Correction to account for finite box:                  0.006394
MG Remaining discrepancy, due to discretization:         -0.188080 (  -0.01521%)
      ideal mu1:      -0.514146372083
             Q0:  -11710.828758968739
             G0:      -0.000000003422
   RMS gradient:       0.000000006664

Reusing previously generated solute cavity.
MG BCs: +ve charge blocks (gridpoints):     29043 (   18644359).
MG BCs: -ve charge blocks (gridpoints):      8256 (    1017063).
MG BCs:     Elided blocks (gridpoints):    168077 (  171115283).
MG BCs: Computational effort saved:  99.9804%.
MG BCs: Charge after coarse-graining:           -9.0009643.
MG DL_MG: Calling solver with defect correction order = 8
MG DL_MG: Solver finished
MG Hartree energy from (\int phi*rho dr):              1236.931178
MG Hartree energy from (\int eps (grad phi)^2 dr):     1236.736704
MG Discrepancy due to finite box and discretization:     -0.194474 (  -0.01572%)
MG Correction to account for finite box:                  0.006394
MG Remaining discrepancy, due to discretization:         -0.188080 (  -0.01521%)
     Trial step:       0.234131818349
             Q1:  -11710.828758968390
 Quadratic coef:       0.000000001150
 Linear coef   :      -0.000000000801
           Qmin:  -11710.828758968879
Quadratic minimum step length (  0.081583598519) accepted
    Initial Ne1:    7234.00000000
      Final Ne1:    7234.00000000

=================== Penalty functional idempotency correction ==================
 RMS occupancy error at iteration   1:  0.000000 (step -0.5000 Ne1=   7234.0000)
            Final RMS occupancy error   :  0.000000 (Ne1=   7234.0000)
               Final occupancy bounds   : [  0.0000,  1.0000]
================================================================================

    8        -1.171082875897E+04     6.6644E-09     6.0287E-09     1.1642E-10

Reusing previously generated solute cavity.
MG BCs: +ve charge blocks (gridpoints):     29043 (   18644359).
MG BCs: -ve charge blocks (gridpoints):      8256 (    1017063).
MG BCs:     Elided blocks (gridpoints):    168077 (  171115283).
MG BCs: Computational effort saved:  99.9804%.
MG BCs: Charge after coarse-graining:           -9.0009643.
MG DL_MG: Calling solver with defect correction order = 8
MG DL_MG: Solver finished
MG Hartree energy from (\int phi*rho dr):              1236.931166
MG Hartree energy from (\int eps (grad phi)^2 dr):     1236.736692
MG Discrepancy due to finite box and discretization:     -0.194474 (  -0.01572%)
MG Correction to account for finite box:                  0.006394
MG Remaining discrepancy, due to discretization:         -0.188080 (  -0.01521%)
      ideal mu1:      -0.514146373286
             Q0:  -11710.828758968622
             G0:      -0.000000003272
   RMS gradient:       0.000000005564

Reusing previously generated solute cavity.
MG BCs: +ve charge blocks (gridpoints):     29043 (   18644359).
MG BCs: -ve charge blocks (gridpoints):      8256 (    1017063).
MG BCs:     Elided blocks (gridpoints):    168077 (  171115283).
MG BCs: Computational effort saved:  99.9804%.
MG BCs: Charge after coarse-graining:           -9.0009643.
MG DL_MG: Calling solver with defect correction order = 8
MG DL_MG: Solver finished
MG Hartree energy from (\int phi*rho dr):              1236.931177
MG Hartree energy from (\int eps (grad phi)^2 dr):     1236.736703
MG Discrepancy due to finite box and discretization:     -0.194474 (  -0.01572%)
MG Correction to account for finite box:                  0.006394
MG Remaining discrepancy, due to discretization:         -0.188080 (  -0.01521%)
     Trial step:       0.138207511622
             Q1:  -11710.828758968390
 Quadratic coef:       0.000000000686
 Linear coef   :      -0.000000000452
           Qmin:  -11710.828758968697
Quadratic minimum step length (  0.045569576487) accepted
    Initial Ne1:    7234.00000000
      Final Ne1:    7234.00000000

=================== Penalty functional idempotency correction ==================
 RMS occupancy error at iteration   1:  0.000000 (step -0.5000 Ne1=   7234.0000)
            Final RMS occupancy error   :  0.000000 (Ne1=   7234.0000)
               Final occupancy bounds   : [  0.0000,  1.0000]
================================================================================

    9        -1.171082875897E+04     5.5638E-09     5.0331E-09     1.1642E-10

Reusing previously generated solute cavity.
MG BCs: +ve charge blocks (gridpoints):     29043 (   18644359).
MG BCs: -ve charge blocks (gridpoints):      8256 (    1017063).
MG BCs:     Elided blocks (gridpoints):    168077 (  171115283).
MG BCs: Computational effort saved:  99.9804%.
MG BCs: Charge after coarse-graining:           -9.0009643.
MG DL_MG: Calling solver with defect correction order = 8
MG DL_MG: Solver finished
MG Hartree energy from (\int phi*rho dr):              1236.931169
MG Hartree energy from (\int eps (grad phi)^2 dr):     1236.736695
MG Discrepancy due to finite box and discretization:     -0.194474 (  -0.01572%)
MG Correction to account for finite box:                  0.006394
MG Remaining discrepancy, due to discretization:         -0.188080 (  -0.01521%)
      ideal mu1:      -0.514146373773
   10        -1.171082875897E+04     4.9448E-09     4.4731E-09     0.0000E+00
Finished density kernel iterations (  10)

Writing density kernel to file "complex_38481.dkn" ... done


>>> Density kernel optimised for the current NGWF basis:
     ~~~~~~~~~~~~~~~~~~~~~~~~~~~~~~~~~~~~~~~~~~~~~~~~~~~~~~~~~~~
     Total energy                =  -1.17108287589686E+04  Eh
     Estimated bandgap           =   1.1855E-01  Eh
     RMS occupancy error         =   3.2231E-16
     [H,K] commutator            =   4.4731E-09
     Occupancy bounds            = [  0.000:  1.000]
     ~~~~~~~~~~~~~~~~~~~~~~~~~~~~~~~~~~~~~~~~~~~~~~~~~~~~~~~~~~~




################################################################################
########################### NGWF CG iteration  005 #############################
################################################################################
****** Reciprocal space K.E. preconditioning with k_zero =  3.5000 a0^-1 *******

>>> Checking for convergence of NGWFs: 
           ........................................................
           |         *** NGWF optimisation converged ***          |
           | RMS NGWF gradient =    0.00000100427572              |
           | Criteria satisfied:                                  |
           | -> RMS NGWF gradient lower than set threshold.       |
           ========================================================

Reusing previously generated solute cavity.
MG BCs: +ve charge blocks (gridpoints):     29043 (   18644359).
MG BCs: -ve charge blocks (gridpoints):      8256 (    1017063).
MG BCs:     Elided blocks (gridpoints):    168077 (  171115283).
MG BCs: Computational effort saved:  99.9804%.
MG BCs: Charge after coarse-graining:           -9.0009643.
MG DL_MG: Calling solver with defect correction order = 8
MG DL_MG: Solver finished
MG Hartree energy from (\int phi*rho dr):              1236.931169
MG Hartree energy from (\int eps (grad phi)^2 dr):     1236.736695
MG Discrepancy due to finite box and discretization:     -0.194474 (  -0.01572%)
MG Correction to account for finite box:                  0.006394
MG Remaining discrepancy, due to discretization:         -0.188080 (  -0.01521%)

================================================================================
           ---------------- ENERGY COMPONENTS (Eh) ----------------
           | Kinetic                    :     8454.02744311248534 |
           | Pseudo. (local,OBC,corr'd) :    -5013.48815018738878 |
           | Pseudopotential (non-local):     1455.26193051679957 |
           | Hartree (molecular)        :     1236.93116921399042 |
           | Exchange-correlation       :    -3353.73790557256461 |
           | Ion-ion (open BC)          :   842065.98724046116695 |
           | Smeared ion non-self corr. :  -842017.48767451266758 |
           | Smeared ion self corr.     :   -14538.95273137971344 |
           | Solvent cavitation energy  :        2.24110781543560 |
           | Solute-solvent dis-rep en. :       -1.61118843621204 |
           | Total                      :   -11710.82875896864971 |
           --------------------------------------------------------
           ------ LOCAL ENERGY COMPONENTS FROM MATRIX TRACES ------
           | Pseudopotential (local)    :    -5013.48815018738969 |
           | Hartree                    :    -1997.88094064135157 |
           --------------------------------------------------------
           Integrated density           :     7233.99999999821739
           Integrated density tr(KS)    :     7233.99999999999909
================================================================================


                        <<<<< CALCULATION SUMMARY >>>>>                         
|ITER|    RMS GRADIENT   |     TOTAL ENERGY    |   step   |     Epredicted              
   0     0.00003835683849 -11710.78191458876245   0.512755 -11710.82230325747878        
   1     0.00001259421242 -11710.82766702643130   0.108366 -11710.82858725862570        
   2     0.00000538733846 -11710.82872517593205   0.018429 -11710.82875381223494        
   3     0.00000233300738 -11710.82875776360743   0.003511 -11710.82875878674895        
   4     0.00000100427572 -11710.82875896862242  <-- CG                                 

=================== Finished the calculation in solvent ========================
= Adjusting the following parameters: 
= read_denskern: F
= read_tightbox_ngwfs: F
= maxit_pen: 0 (restored to user-specified value)
= restart read filename prefix: ""
= restart write filename prefix: ""
================================================================================

================================================================================
IS: Calculation in solvent completed (NGWFs converged).      

Individual components of total energy in solvent:     hartree           kcal/mol
- Usual non-electrostatic DFT terms:    -12948.38984756183709    -8125237.126930
- Electrostatic fixed charge energy:      1236.93116921399042      776186.010606
- Apolar cavitation energy:                  2.24110781543560        1406.316356
- Apolar dispersion-repulsion energy:       -1.61118843621204       -1011.035986
 -------------------------------------------------------------------------------
- Total energy in solvent:              -11710.82875896862242    -7348655.835954

Components of total energy in solvent:                hartree           kcal/mol
- Usual non-electrostatic DFT terms:    -12948.38984756183709    -8125237.126930
- Electrostatic energy:                   1236.93116921399042      776186.010606
- Apolar energy terms:                       0.62991937922356         395.280370
 -------------------------------------------------------------------------------
- Total energy in solvent:              -11710.82875896862242    -7348655.835954

Calculation of free energy of solvation:              hartree           kcal/mol
- Total energy in solvent:         (+)  -11710.82875896862242    -7348655.835954
- Total energy in vacuum:          (-)  -11706.92521876434330    -7346206.327546
 -------------------------------------------------------------------------------
- Total free energy of solvation:           -3.90354020427912       -2449.508407

Components of polar term in f.e. of solvation:        hartree           kcal/mol
- Electrostatic:                            -4.86699165043456       -3054.083305
- Change in nonelectrostatic DFT terms:      0.33353206693209         209.294527
 -------------------------------------------------------------------------------
- Polar term in f.e. of solvation:          -4.53345958350246       -2844.788777

Components of free energy of solvation:               hartree           kcal/mol
- Polar term in f.e. of solvation: (+)      -4.53345958350246       -2844.788777
- Apolar (cavitation, dis., rep.): (+)       0.62991937922356         395.280370
 -------------------------------------------------------------------------------
- Total free energy of solvation:           -3.90354020427890       -2449.508407
================================================================================


------------------------------ TIMING INFORMATION ------------------------------
AVERAGE TIME:   74116.518s on     40 node(s)                                    
TOTAL TIME:     74116.519s on     40 node(s)                                    
================= AVERAGE TIMINGS FROM ALL NODES (CUMULATIVE) ==================
|| TAG                                    #calls    cpu time   %total  Gflops ||
|| work_imbalance                       :     1        0.00s   0.000%  ------ ||
|| parallel_prepare_fd_halos_request    :  2187        0.02s   0.000%  ------ ||
|| parallel_prepare_fd_halos_alloc      :  2187        0.04s   0.000%  ------ ||
|| sparse_set_to_garbage                :   232        0.06s   0.000%  ------ ||
|| parallel_prepare_fd_halos_satisfy    :  2187        0.07s   0.000%  ------ ||
|| ngwfs_initialise_from_radial         :     1        0.15s   0.000%  ------ ||
|| basis_extract_function_from_box      :  6053        0.24s   0.000%  ------ ||
|| restart_ngwfs_tightbox_input         :     1        0.88s   0.001%  ------ ||
|| pseudopotentials_nonlocal_mat        :    34        1.23s   0.002%  ------ ||
|| density_init_guess_real              :     1        3.37s   0.005%  ------ ||
|| parallel_prepare_fd_halos_comms_imbal:  2187        3.62s   0.005%  ------ ||
|| restart_kernel_read                  :     1        4.23s   0.006%  ------ ||
|| openbc_locps_radial                  :     1        5.03s   0.007%  ------ ||
|| restart_kernel_write                 :    19       14.82s   0.020%  ------ ||
|| parallel_prepare_fd_halos_clear      :  2187       15.70s   0.021%  ------ ||
|| sparse_init                          :     2       23.28s   0.031%  ------ ||
|| projectors_func_ovlp_box             :    34       27.47s   0.037%  ------ ||
|| parallel_prepare_fd_halos_comms_wait :  2187       27.98s   0.038%  ------ ||
|| projectors_init_fftbox_recip         :   232       30.52s   0.041%  ------ ||
|| function_ops_brappd_ketppd           :    34       36.35s   0.049%  ------ ||
|| palser_mano_kernel_optimise          :     1       44.30s   0.060%  ------ ||
|| parallel_prepare_fd_halos            :  2187       47.45s   0.064%  ------ ||
|| pseudo_make_structure_factor         :     2       54.72s   0.074%  ------ ||
|| ngwf_gradient_coeffs                 :    18       76.02s   0.103%  ------ ||
|| restart_ngwfs_tightbox_output        :    16       85.37s   0.115%  ------ ||
|| sparse_embed_hotelling_invert_embed  :    34      111.16s   0.150%  ------ ||
|| finite_difference_derivative         :  2187      116.41s   0.157%  ------ ||
|| basis_copy_function_to_box           : 187.3k     123.33s   0.166%  ------ ||
|| openbc_locps_on_grid                 :     2      188.54s   0.254%  ------ ||
|| integrals_kinetic                    :    34      216.87s   0.293%  ------ ||
|| projectors_gradient_batch            :   198      236.39s   0.319%  ------ ||
|| sparse_trace                         :  5514      307.00s   0.414%  ------ ||
|| fourier_apply_box_pair               : 52885      350.03s   0.472% 583.116 ||
|| kernel_purify                        :   557      417.05s   0.563%  ------ ||
|| basis_dot_function_with_box          : 21.79M     517.92s   0.699%  ------ ||
|| kernel_fix                           :   180      658.65s   0.889%  ------ ||
|| lnv_gradient_norm                    :   180      683.44s   0.922%  ------ ||
|| hamiltonian_energy_components        :     4      728.54s   0.983%  ------ ||
|| ke_density_batch_grad_apply          :  3993     1152.86s   1.555%  ------ ||
|| integrals_locpot_mat_els_batch       :  2079     1173.81s   1.584%  ------ ||
|| basis_add_function_to_box            : 58.34M    1224.64s   1.652%  ------ ||
|| ke_density_batch_row_sums            :  3993     1538.43s   2.076%  ------ ||
|| density_batch_row_sums               :  3993     1545.65s   2.085%  ------ ||
|| fourier_apply_cell_backward          :  9808     1599.81s   2.159%  83.451 ||
|| fourier_apply_cell_forward           :  9806     1759.19s   2.374%  75.875 ||
|| density_fftbox_deposit_to_cell       : 59532     1855.34s   2.503%  ------ ||
|| ke_density_fftbox_deposit_to_cell    : 59532     1991.48s   2.687%  ------ ||
|| cell_grid_deposit_box_real           : 121.3k    2240.12s   3.022%  ------ ||
|| sparse_product                       :  7223     2494.87s   3.366%  ------ ||
|| cell_grid_extract_box_real           : 148.8k    2539.22s   3.426%  ------ ||
|| ngwf_gradient_build_batch            :   198     2670.55s   3.603%  ------ ||
|| multigrid_prepare_bound_cond         :   364     2799.66s   3.777%  ------ ||
|| ngwf_gradient_batch                  :   198     3022.82s   4.078%  ------ ||
|| ngwf_gradient_lnv                    :    18     3221.49s   4.347%  ------ ||
|| potential_apply_to_ngwf_batch        :  2079     3792.55s   5.117%  ------ ||
|| density_fftbox_interpolate_multiply  : 59532     4092.27s   5.521%  ------ ||
|| xc_energy_potential                  :   364     4584.41s   6.185%  ------ ||
|| integrals_locpot_dbl_grid            :   189     4986.10s   6.727%  ------ ||
|| density_batch_interp_deposit         :  3993     6719.99s   9.067%  ------ ||
|| dl_mg_solver_calls                   :   364     7301.25s   9.851%  ------ ||
|| nlxc_vdw_energy                      :   726     7638.98s  10.307%  ------ ||
|| density_on_dbl_grid                  :   363     8782.99s  11.850%  ------ ||
|| potential_apply_to_fftbox_batch      :  5940    10074.63s  13.593%  ------ ||
|| multigrid_calculate_hartree          :   364    10272.53s  13.860%  ------ ||
|| integrals_div_locpot_grad_functions  :   180    15267.81s  20.600%  ------ ||
|| ke_density_fftbox_interpolate_multipl: 59532    16319.94s  22.019%  ------ ||
|| ke_density_batch_interp_deposit      :  3993    19094.35s  25.763%  ------ ||
|| fourier_apply_box                    : 1.352M   21326.53s  28.774% 809.962 ||
|| ke_density_on_dbl_grid               :   363    22348.82s  30.154%  ------ ||
|| hamiltonian_lhxc_calculate           :   359    46016.91s  62.087%  ------ ||
|| lnv_denskernel_optimise_cg           :    18    66659.84s  89.939%  ------ ||
|| ngwf_cg_optimise                     :     2    73311.84s  98.914%  ------ ||
|| total_time                           :     1    74116.52s 100.000%  ------ ||
================================================================================
Overhead of generating timer report: 
- 0 ms averaging over threads,
- 6 ms ensuring consistency across MPI ranks,
- 2 ms printing in order.

Job completed: 08-03-2020 03:53 (-0000)

