 +---------------------------------------------------------------+
 |                                                               |
 |        ####### #     # ####### ####### ####### ######         |
 |        #     # ##    # #          #    #       #     #        |
 |        #     # # #   # #          #    #       #     #        |
 |        #     # #  #  # #####      #    #####   ######         |
 |        #     # #   # # #          #    #       #              |
 |        #     # #    ## #          #    #       #              |
 |        ####### #     # #######    #    ####### #              |
 |                                                               |
 |        Linear-Scaling Ab Initio Total Energy Program          |
 |                                                               |
 |          Release for academic collaborators of ODG            |
 |                                             Version 5.3.2.6.  |
 |                                                               |
 +---------------------------------------------------------------+
 |                                                               |
 |  Authors:                                                     |
 |  Jacek Dziedzic, Peter D. Haynes, Nicholas D. M. Hine,        |
 |  Arash. A. Mostofi, Mike C. Payne and Chris-Kriton Skylaris   |
 |                                                               |
 |  Contributors:                                                |
 |  J. Aarons, L. Andrinopoulos, P. W. Avraam, R. A. Bell,       |
 |  A. Bhandari, G. A. Bramley, R. J. Charlton, S. J. Clark,     |
 |  R. J. Clements, G. C. Constantinescu, F. Corsetti,           |
 |  N. Corsini, O. Dieguez, S. M. M. Dubois, K. K. B. Duff,      |
 |  J. M. Escartin, A. Greco, H. Helal, Q. O. Hill, L. P. Lee,   |
 |  J.-H. Li, E. B. Linscott, G. Moynihan, D. D. O`Regan,        |
 |  O. K. Okan, M. J. S. Phipps, C. J. Pickard,                  |
 |  J. C. A. Prentice, M. I. J. Probert, L. E. Ratcliff,         |
 |  M. Robinson, A. Ruiz Serrano, J. S. Spencer, E. W. Tait,     |
 |  G. Teobaldi, D. Turban, V. Vitale, K. A. Wilkinson,          |
 |  C. Weber, J. C. Womack, N. Yeung and T. J. Zuehlsdorff       |
 |                                                               |
 |                                   Copyright (c) 2004-2019     |
 |                                                               |
 |  Please cite:                                                 |
 |  "Introducing ONETEP: Linear-scaling density functional       |
 |   simulations on parallel computers".                         |
 |   C.-K. Skylaris, P. D. Haynes, A. A. Mostofi, M. C. Payne.   |
 |   J. Chem. Phys. 122 084119 (2005).                           |
 |                                                               |
 |          in all publications arising from your use of ONETEP. |
 |                                                               |
 +---------------------------------------------------------------+
 |                                                               |
 |   ONETEP is based on developments described in the following  |
 |   publications:                                               |
 |                                                               |
 |  "Nonorthogonal generalized Wannier function pseudopotential  |
 |   plane-wave method".                                         |
 |   C.-K. Skylaris, A. A. Mostofi, P. D. Haynes, O. Dieguez,    |
 |   M. C. Payne.                                                |
 |   Phys. Rev. B 66 035119 (2002).                              |
 |                                                               |
 |  "Preconditioned iterative minimization for linear-scaling    |
 |   electronic structure calculations".                         |
 |   A. A. Mostofi, P. D. Haynes, C.-K. Skylaris, M. C. Payne.   |
 |   J. Chem. Phys. 119(17), pp.8842-8848 (2003).                |
 |                                                               |
 |  "Total-energy calculations on a real space grid with         |
 |   localized functions and a plane-wave basis".                |
 |   A. A. Mostofi, C.-K. Skylaris, P. D. Haynes, M. C. Payne.   |
 |   Comput. Phys. Commun. 147, pp.788-802 (2002).               |
 |                                                               |
 |  "Accurate kinetic energy evaluation in electronic structure  |
 |   calculations with localized functions on real space grids"  |
 |   C.-K. Skylaris, A. A. Mostofi, P. D. Haynes, C. J. Pickard, |
 |   M. C. Payne.                                                |
 |   Comput. Phys. Commun. 140, pp.315-322 (2001).               |
 |                                                               |
 |  "Accurate ionic forces and geometry optimization in linear-  |
 |   scaling density-functional theory with local orbitals"      |
 |   N. D. M. Hine, M. Robinson, P. D. Haynes, C.-K. Skylaris,   |
 |   M. C. Payne, and A. A. Mostofi.                             |
 |   Phys. Rev. B 83 195102 (2011).                              |
 |                                                               |
 +---------------------------------------------------------------+

Job started: 12-04-2020 17:29 (+0100)
 
Reading parameters from file "complex_37721.dat" ...... done

If your calculation crashes here, before "Checking processes and threads..."
is displayed, then your stack size is insufficient.
If so, use "ulimit -s unlimited" at runtime.
You can disable this check with "check_stack_size F".

Checking processes and threads...
   Determining the default number of threads...
      No default threads set at compilation time: defaulting to 1.
      OpenMP library call suggests 4 threads.
      Hybrid MPI-OpenMP compilation detected.
      Number of MPI processes > 1.
      OMP_NUM_THREADS environment variable present and
      its value matches the one obtained from the OpenMP library call.
      Using this value as default.
      Default threads: 4
      Default applies to threads_max and threads_num_fftboxes.
      Settings in the input file override this default.
   ... done

   Running with 40 MPI processes.
   There are 10 MPI processes running on the same node as the root process.
   Each MPI process is using: 
               1 threads for simulation cell FFTs.
               1 threads for parallel FFT box operations.
               4 threads for loops over batched FFT box operations.
               4 threads in other parallel regions.
... done

Basic input checks...... done

Reading geometry and species blocks from file "complex_37721.dat" ...
  <species_atomic_set> block not found: NGWF initialisation set to SOLVE
IS: Dielectric excluded regions:
    - NONE.
    
  Number of PPD points along a3 set to 1.  This is 
  the default value, it may have been provided also in the input file.
... done
 Writing xyz coordinates to file "complex_37721.xyz" ... done


--------------------------------------------------------------------------------
---------------------------------- INPUT FILE ----------------------------------
--------------------------------------------------------------------------------

cutoff_energy       : 800 eV                                                    
xc_functional B97M-V                                                            
task SINGLEPOINT                                                                
write_xyz true                                                                  
output_detail VERBOSE                                                           
ngwf_threshold_orig : 0.000002                                                  
kernel_cutoff       : 1000                                                      
k_zero              : 3.5                                                       
elec_cg_max 0                                                                   
occ_mix 1.0                                                                     
dispersion 0                                                                    
maxit_ngwf_cg 40                                                                
minit_lnv 10                                                                    
maxit_lnv 10                                                                    
write_denskern T                                                                
write_tightbox_ngwfs T                                                          
charge 9                                                                        
is_implicit_solvent T                                                           
is_auto_solvation T                                                             
is_include_apolar T                                                             
is_smeared_ion_rep T                                                            
is_solvent_surf_tension 4.7624E-5 Ha/bohr**2                                    
is_apolar_scaling_factor 0.281075                                               
is_solvation_beta 1.3                                                           
is_density_threshold 0.00035                                                    
is_bulk_permittivity 78.54                                                      
is_dielectric_model fix_initial                                                 
is_smeared_ion_width 0.8                                                        
mg_defco_fd_order 8                                                             
is_bc_coarseness 10                                                             
is_bc_surface_coarseness 1                                                      
fine_grid_scale 2.0                                                             
%block species                                                                  
N   N   7 4 8.0                                                                 
H   H   1 1 8.0                                                                 
C   C   6 4 8.0                                                                 
S   S  16 9 8.0                                                                 
O   O   8 4 8.0                                                                 
%endblock species                                                               
%block species_pot                                                              
N   N_00.recpot                                                                 
H   H_04.recpot                                                                 
C   C_01.recpot                                                                 
S   S_00.recpot                                                                 
O   O_02.recpot                                                                 
%endblock species_pot                                                           
%block lattice_cart                                                             
139.252   0.000   0.000                                                         
0.000 142.425   0.000                                                           
0.000   0.000   162.84                                                          
%endblock lattice_cart                                                          
%block positions_abs                                                            
     Hash =   000002652780609642062778
%endblock positions_abs                                                         

--------------------------------------------------------------------------------
-------------------------------- END INPUT FILE --------------------------------
--------------------------------------------------------------------------------


 
 ESDF WARNING(1): "kernelcutoff" (esdf_physical) has no units. Assume "bohr".
 ESDF WARNING(2): "kzero" (esdf_physical) has no units. Assume "1/bohr".
 ESDF WARNING(3
 ): "issmearedionwidth" (esdf_physical) has no units. Assume "bohr".
<<<<<<<<<<<<<<<<<<<<<<<<<<<<<<<<< Full system >>>>>>>>>>>>>>>>>>>>>>>>>>>>>>>>>>
<<<<<<<<<<<<<<<<<<<<<<<<< Pseudopotential information >>>>>>>>>>>>>>>>>>>>>>>>>>
File: N_00.recpot [ 2001 points up to Gmax=  52.9 (1/bohr)]
  Atomic number:  7;  ionic charge:  5.000000
    Shell 1: l = 0; rc = 1.48 bohr
File: H_04.recpot [ 2001 points up to Gmax=  52.9 (1/bohr)]
  Atomic number:  1;  ionic charge:  1.000000
    Local potential
File: C_01.recpot [ 2001 points up to Gmax=  52.9 (1/bohr)]
  Atomic number:  6;  ionic charge:  4.000000
    Shell 1: l = 0; rc = 1.48 bohr
File: S_00.recpot [ 2001 points up to Gmax=  52.9 (1/bohr)]
  Atomic number: 16;  ionic charge:  6.000000
    Shell 1: l = 0; rc = 1.90 bohr
    Shell 2: l = 2; rc = 1.84 bohr
File: O_02.recpot [ 2001 points up to Gmax=  52.9 (1/bohr)]
  Atomic number:  8;  ionic charge:  6.000000
    Shell 1: l = 0; rc = 1.31 bohr
<<<<<<<<<<<<<<<<<<<<<<<<<<<<<<<<<<<<<<<<>>>>>>>>>>>>>>>>>>>>>>>>>>>>>>>>>>>>>>>>

-------------------------- Atom counting information ---------------------------
Symbol    Natoms    Nngwfs    Nprojs
  N        237       948       237
  H       1318      1318         0
  C        816      3264       816
  S          6        54        36
  O        240       960       240
.......   ......    ......    ......
Totals:   2617      6544      1329
--------------------------------------------------------------------------------

=============================== PSINC grid sizes ===============================
                      Simulation cell:  275 x 280 x 320
                              FFT-box:   99 x  99 x  99
                                  PPD:    5 x   5 x   1
Grid space d1=  0.506370909091a0 (KE cutoff=  29.62556Eh = 806.15239eV)
Grid space d2=  0.508660714286a0 (KE cutoff=  29.35943Eh = 798.91072eV)
Grid space d3=  0.508875000000a0 (KE cutoff=  29.33471Eh = 798.23802eV)
================================================================================

********************* Fourier parallelisation information **********************
       Coarse grid (whole simulation cell) dimensions:    275   280   320
          Real-space ('12') slabs/node (min max mean):      8     8     8
         Recip-space ('23') slabs/node (min max mean):      3     4     3
********************************************************************************

********************* Fourier parallelisation information **********************
       Double grid (whole simulation cell) dimensions:    550   560   640
          Real-space ('12') slabs/node (min max mean):     16    16    16
         Recip-space ('23') slabs/node (min max mean):      6     7     6
********************************************************************************
ONETEP fine grid is 550 x 560 x 640 gridpoints, 139.2520 x 142.4250 x 162.8400 bohr.
FD multigrid is     545 x 553 x 633 gridpoints, 137.9861 x 140.6447 x 161.0589 bohr.


Calculating local pseudopotential in open BC on a radial grid ...
Discrepancy between calculated realspace psloc and -Z/x on [5a0,257.280a0]:
max |rel. diff| # avg |rel. diff| #  avg rel. diff #  f # pseudopotential file
 0.000256370913    0.000003612608   0.000000072509   55  'N_00.recpot'
 0.000395389207    0.000016224277  -0.000000076597   55  'H_04.recpot'
 0.000377360759    0.000017565724   0.000000149252   55  'C_01.recpot'
 0.000469715301    0.000020587835   0.000000455518   55  'S_00.recpot'
 0.000665442002    0.000026079317   0.000000158685   55  'O_02.recpot'
... done
 WARNING: meta-GGA functionality under development.
          Using this functional is experimental.
          Minimum tau threshold, xc_min_tau =   1.00000000E-12
 WARNING: Using alternative XC functional PBE for 
          radial densities (xc_radial).

Atom SCF Calculation for N  : Z (AE atom) =   7 : Z (PS atom) =   5
Config String:
Orbitals (num,occ):  2     2.00 3.00
Orbitals   (num,l):  2        0    1
Real-space Grid (nr,dr,rmax): 1203    0.0066555740    8.0000000000
Spherical Bessel Basis (nsws,lmax,cutoff):   47    1  176.3951722778
Confining potential (l,width,scale):  0    3.0000000000  100.0000000000
Confining potential (l,width,scale):  1    3.0000000000  100.0000000000
  1         -4.7312375307   -3.4155304497    7.0523828109   -1.9351020946
  2         -9.7309464766   -2.0532547791    8.2966052865   -2.2494486027
  3         -9.6627394379   -2.1124926340    8.2327997121   -2.2369778124
  4         -9.6814993499   -2.1215521045    8.2229805960   -2.2365178421
  5         -9.6843326483   -2.1250939529    8.2191374534   -2.2362718126
  6         -9.6859628709   -2.1267894855    8.2172963573   -2.2362066344
  7         -9.6867347035   -2.1276425665    8.2163697352   -2.2361903369
  8         -9.6870802100   -2.1280764625    8.2158983890   -2.2361891460
  9         -9.6872290423   -2.1282977424    8.2156580222   -2.2361920435
 10         -9.6872901988   -2.1284107021    8.2155353368   -2.2361953393
 11         -9.6873135296   -2.1284684031    8.2154726809   -2.2361979819
 12         -9.6873212476   -2.1284978948    8.2154406648   -2.2361998431
 13         -9.6873229586   -2.1285129774    8.2154242957   -2.2362010676
 14         -9.6873226456   -2.1285206957    8.2154159216   -2.2362018403
 15         -9.6873218534   -2.1285246479    8.2154116349   -2.2362023142
 16         -9.6873212599   -2.1285262679    8.2154098784   -2.2362025420
 17         -9.6873207834   -2.1285272564    8.2154088068   -2.2362026955
 18         -9.6873204210   -2.1285278597    8.2154081529   -2.2362027982
 19         -9.6873201550   -2.1285282280    8.2154077538   -2.2362028667
 20         -9.6873199645   -2.1285284529    8.2154075102   -2.2362029121
 21         -9.6873198305   -2.1285285903    8.2154073614   -2.2362029421
 22         -9.6873197377   -2.1285286742    8.2154072705   -2.2362029618
Atom SCF converged after  22 iterations to a total energy of     -9.68731974

Atom SCF Calculation for H  : Z (AE atom) =   1 : Z (PS atom) =   1
Config String:
Orbitals (num,occ):  1     1.00
Orbitals   (num,l):  1        0
Real-space Grid (nr,dr,rmax): 1203    0.0066555740    8.0000000000
Spherical Bessel Basis (nsws,lmax,cutoff):   47    0  176.3951722778
Confining potential (l,width,scale):  0    3.0000000000  100.0000000000
  1         -0.3194257691   -0.2393854593    0.2820953124   -0.2424203209
  2         -0.3951823392   -0.2377116493    0.2886404059   -0.2475147891
  3         -0.4317044583   -0.2352244387    0.2921333887   -0.2514046172
  4         -0.4470703708   -0.2341892222    0.2934391879   -0.2531009782
  5         -0.4532132900   -0.2338556667    0.2938388426   -0.2537313520
  6         -0.4556579251   -0.2337612552    0.2939448584   -0.2539550462
  7         -0.4566418315   -0.2337377355    0.2939680120   -0.2540342273
  8         -0.4570437922   -0.2337331116    0.2939708287   -0.2540627372
  9         -0.4572102946   -0.2337328328    0.2939698291   -0.2540732650
 10         -0.4572800424   -0.2337332404    0.2939687193   -0.2540772588
 11         -0.4573095100   -0.2337335791    0.2939680317   -0.2540788122
 12         -0.4573220379   -0.2337337762    0.2939676699   -0.2540794294
 13         -0.4573273880   -0.2337338775    0.2939674931   -0.2540796787
 14         -0.4573296803   -0.2337339266    0.2939674099   -0.2540797808
 15         -0.4573306647   -0.2337339495    0.2939673718   -0.2540798230
 16         -0.4573310882   -0.2337339601    0.2939673545   -0.2540798406
 17         -0.4573312706   -0.2337339649    0.2939673467   -0.2540798479
 18         -0.4573313493   -0.2337339670    0.2939673433   -0.2540798510
Atom SCF converged after  18 iterations to a total energy of     -0.45733135

Atom SCF Calculation for C  : Z (AE atom) =   6 : Z (PS atom) =   4
Config String:
Orbitals (num,occ):  2     2.00 2.00
Orbitals   (num,l):  2        0    1
Real-space Grid (nr,dr,rmax): 1203    0.0066555740    8.0000000000
Spherical Bessel Basis (nsws,lmax,cutoff):   47    1  176.3951722778
Confining potential (l,width,scale):  0    3.0000000000  100.0000000000
Confining potential (l,width,scale):  1    3.0000000000  100.0000000000
  1         -5.2976922011   -1.3069684169    4.5135249990   -1.4493313817
  2         -5.3721716256   -1.3429755895    4.4750154450   -1.4361613026
  3         -5.3809959565   -1.3617365618    4.4541655428   -1.4305930207
  4         -5.3918938866   -1.3667928461    4.4484735100   -1.4294652294
  5         -5.3956096428   -1.3688539142    4.4461376126   -1.4290734646
  6         -5.3968271862   -1.3696852393    4.4451910874   -1.4289366866
  7         -5.3972028401   -1.3700178062    4.4448112275   -1.4288900460
  8         -5.3973067903   -1.3701500158    4.4446598370   -1.4288749220
  9         -5.3973286940   -1.3702023868    4.4445997329   -1.4288704293
 10         -5.3973289850   -1.3702230869    4.4445759233   -1.4288693188
 11         -5.3973254264   -1.3702312560    4.4445665049   -1.4288691775
 12         -5.3973224003   -1.3702344755    4.4445627836   -1.4288692549
 13         -5.3973208708   -1.3702354890    4.4445616088   -1.4288693270
 14         -5.3973198783   -1.3702360102    4.4445610034   -1.4288693814
 15         -5.3973192535   -1.3702362780    4.4445606917   -1.4288694190
 16         -5.3973188684   -1.3702364155    4.4445605313   -1.4288694437
 17         -5.3973186349   -1.3702364860    4.4445604489   -1.4288694595
 18         -5.3973184951   -1.3702365221    4.4445604065   -1.4288694693
 19         -5.3973184122   -1.3702365405    4.4445603848   -1.4288694753
Atom SCF converged after  19 iterations to a total energy of     -5.39731841

Atom SCF Calculation for S  : Z (AE atom) =  16 : Z (PS atom) =   6
Config String:
Orbitals (num,occ):  3     2.00 4.00 0.00
Orbitals   (num,l):  3        0    1    2
Real-space Grid (nr,dr,rmax): 1203    0.0066555740    8.0000000000
Spherical Bessel Basis (nsws,lmax,cutoff):   47    2  176.3951722778
Confining potential (l,width,scale):  0    3.0000000000  100.0000000000
Confining potential (l,width,scale):  1    3.0000000000  100.0000000000
Confining potential (l,width,scale):  2    3.0000000000  100.0000000000
  1        -12.4735062396   -1.0328741412   10.1554312477   -2.4512393157
  2         -9.9458301913   -2.4607392455    8.3041325857   -2.0306994528
  3        -10.1450417646   -2.2931184565    8.4831893826   -2.0812538287
  4        -10.1528335592   -2.2733105793    8.5050388867   -2.0896035179
  5        -10.1571940363   -2.2633716629    8.5160794258   -2.0939370707
  6        -10.1594380571   -2.2584938667    8.5215163935   -2.0961289008
  7        -10.1605856507   -2.2561081821    8.5241804044   -2.0972291378
  8        -10.1611799191   -2.2549395235    8.5254868240   -2.0977806248
  9        -10.1614918752   -2.2543658586    8.5261285885   -2.0980571586
 10        -10.1616572884   -2.2540839121    8.5264441898   -2.0981959233
 11        -10.1617455602   -2.2539453058    8.5265994231   -2.0982656006
 12        -10.1617928447   -2.2538772062    8.5266757320   -2.0983006047
 13        -10.1618182292   -2.2538437891    8.5267131983   -2.0983181961
 14        -10.1618318741   -2.2538274201    8.5267315620   -2.0983270391
 15        -10.1618392144   -2.2538194197    8.5267405433   -2.0983314852
 16        -10.1618431651   -2.2538155200    8.5267449245   -2.0983337210
 17        -10.1618452923   -2.2538136252    8.5267470551   -2.0983348455
 18        -10.1618464380   -2.2538127080    8.5267480875   -2.0983354110
 19        -10.1618470552   -2.2538122659    8.5267485856   -2.0983356955
 20        -10.1618473878   -2.2538120540    8.5267488248   -2.0983358386
 21        -10.1618475670   -2.2538119530    8.5267489389   -2.0983359106
 22        -10.1618476637   -2.2538119053    8.5267489929   -2.0983359468
Atom SCF converged after  22 iterations to a total energy of    -10.16184766

Atom SCF Calculation for O  : Z (AE atom) =   8 : Z (PS atom) =   6
Config String:
Orbitals (num,occ):  2     2.00 4.00
Orbitals   (num,l):  2        0    1
Real-space Grid (nr,dr,rmax): 1203    0.0066555740    8.0000000000
Spherical Bessel Basis (nsws,lmax,cutoff):   47    1  176.3951722778
Confining potential (l,width,scale):  0    3.0000000000  100.0000000000
Confining potential (l,width,scale):  1    3.0000000000  100.0000000000
  1         -1.8735052164   -7.5539365035   10.1554312477   -2.4512393157
  2        -16.0318313751   -3.1285771268   13.6395848164   -3.2358799643
  3        -15.9524020423   -3.0762819706   13.6967272503   -3.2536856837
  4        -15.8521515939   -3.0781493909   13.6951909330   -3.2561700440
  5        -15.8357139793   -3.0748501933   13.6988803334   -3.2580493133
  6        -15.8246052853   -3.0740779781   13.6997881576   -3.2588327446
  7        -15.8189019501   -3.0737449687   13.7001869911   -3.2592378801
  8        -15.8159785510   -3.0736026016   13.7003615168   -3.2594475790
  9        -15.8144776168   -3.0735437994   13.7004360379   -3.2595560735
 10        -15.8137058024   -3.0735207882   13.7004667348   -3.2596122456
 11        -15.8133083127   -3.0735125946   13.7004786868   -3.2596413656
 12        -15.8131032938   -3.0735102195   13.7004828997   -3.2596564858
 13        -15.8129973902   -3.0735099286   13.7004840891   -3.2596643505
 14        -15.8129426040   -3.0735102506   13.7004842061   -3.2596684489
 15        -15.8129142203   -3.0735106556   13.7004840157   -3.2596705887
 16        -15.8128994940   -3.0735109855   13.7004837906   -3.2596717080
 17        -15.8128918425   -3.0735112169   13.7004836103   -3.2596722946
 18        -15.8128878614   -3.0735113674   13.7004834848   -3.2596726026
 19        -15.8128857871   -3.0735114608   13.7004834035   -3.2596727646
 20        -15.8128847048   -3.0735115170   13.7004833533   -3.2596728500
 21        -15.8128841394   -3.0735115501   13.7004833231   -3.2596728951
 22        -15.8128838436   -3.0735115693   13.7004833054   -3.2596729190
 23        -15.8128836887   -3.0735115802   13.7004832951   -3.2596729316
 24        -15.8128836074   -3.0735115864   13.7004832893   -3.2596729383
Atom SCF converged after  24 iterations to a total energy of    -15.81288361

========================== Calculation in vacuum ==============================
= Adjusting the following parameters: 
= is_implicit_solvent: F
= is_include_apolar: F
= write_denskern: T
= write_tightbox_ngwfs: T
= restart read filename prefix: ""
= restart write filename prefix: "vacuum_"
===============================================================================

Determining parallel strategy ...
... using space-filling curve
... NGWF load balancing: max    164;  min    163;  average    164
... Projector load balancing: max     36;  min     32;  average     33
... done
Calculating direct Ion-Ion energy ...
Ion-Ion Energy        :    836757.12240910541732
Basis initialisation ...... NGWF spheres initialised
... Projector spheres initialised
... NGWF tight boxes initialised
... Tight-boxes gathered
... NGWF basis size (local,global):    1796360  71770088
... Nonlocal pseudopotential projector initialisation
... done

========================== Sparse matrix information ===========================
                        Overlap matrix filling:   6.76%
                        Density kernel filling: 100.00%
              NGWF-Proj overlap matrix filling:   1.77%
                    Hamiltonian matrix filling:   7.66%
                  NGWF diagonal matrix filling:   0.05%
                             KS matrix filling: 100.00% 
                           KSKS matrix filling: 100.00% 
================================================================================

Sparse matrix initialisation ... done

Generating smeared ion density ... done
Smeared ion self correction:     -14538.952731
Smeared ion non-self correction: -836709.008617
NGWF initialisation ...... done
============ Calculation of NGWF S^-1 using Hotelling algorithm ================ 
         Iteration  |  Frobenius norm and Maximum abs value    (of I-S*S_n^-1)   
               1       0.78790611E+02     0.98312017E+00
               2       0.76986893E+02     0.96667374E+00
               3       0.74045113E+02     0.93499811E+00
               4       0.69827458E+02     0.87603080E+00
               5       0.64539112E+02     0.77482980E+00
               6       0.58569230E+02     0.70699515E+00
               7       0.52531240E+02     0.67117749E+00
               8       0.46949130E+02     0.64364828E+00
               9       0.40932310E+02     0.60501963E+00
              10       0.32770280E+02     0.53783437E+00
              11       0.22244664E+02     0.42819430E+00
              12       0.11537280E+02     0.28695173E+00
              13       0.38940779E+01     0.14185112E+00
              14       0.64076526E+00     0.38747923E-01
              15       0.32550194E-01     0.35299045E-02
              16       0.23120141E-03     0.38811395E-04
              17       0.27691539E-07     0.57701806E-08
              18       0.10067081E-12     0.82156504E-14
================================================================================
Calculating local pseudopotential in open BC on the fine real space grid ...
... done

MG BCs: +ve charge blocks (gridpoints):     20076 (   15807662).
MG BCs: -ve charge blocks (gridpoints):      7911 (    1063129).
MG BCs:     Elided blocks (gridpoints):    177044 (  173905914).
MG BCs: Computational effort saved:  99.9853%.
MG BCs: Charge after coarse-graining:           -9.0002213.
MG DL_MG: Calling solver with defect correction order = 8
MG DL_MG: Solver finished
MG Hartree energy from (\int phi*rho dr):              1472.132765
MG Hartree energy from (\int eps (grad phi)^2 dr):     1471.508924
MG Discrepancy due to finite box and discretization:     -0.623841 (  -0.04238%)
MG Correction to account for finite box:                  0.463285
MG Remaining discrepancy, due to discretization:         -0.160557 (  -0.01091%)
 WARNING: xc_energy_potential using alternative initial XC functional PBE.
Up spin density kernel initialisation ... 
======= Optimisation of K by Palser-Manolopoulos canonical purification ======== 
         Iteration  |  Band structure energy |    c_n   
               1       -2593.24301097971693    0.5269369
               2       -2769.71827873944312    0.5169805
               3       -2950.80629442706095    0.5151579
               4       -3102.20367772209374    0.5285162
               5       -3195.43714536112839    0.5641671
               6       -3234.50809111411945    0.6092632
               7       -3247.78374204574084    0.6229096
               8       -3253.49656740015826    0.6236883
               9       -3256.25773441050114    0.6383220
              10       -3257.42429583903231    0.6621759
              11       -3257.89302384345638    0.6790958
              12       -3258.10046321802110    0.6775026
              13       -3258.20688837766284    0.6453213
              14       -3258.26967853611950    0.5763115
              15       -3258.30792327957988    0.5002056
              16       -3258.32259916136445    0.4767243
              17       -3258.32329882576596    0.5063949
              18       -3258.32377831171698    0.5318811
              19       -3258.32418285888707    0.5618372
              20       -3258.32445850615477    0.5636206
              21       -3258.32463989278585    0.5312859
              22       -3258.32478587270134    0.5065073
              23       -3258.32487347180313    0.5002692
              24       -3258.32489766598155    0.5000004
              25       -3258.32489912136953    0.4999999
              26       -3258.32489912621531    0.4999999
Termination criterion satisfied: band energy change below threshold.
Final occupancy bounds: [    0.00000000000001:    1.00000000000000]
Closest occupancy to 0.5:     0.99999999999999
================================================================================
... done

Writing density kernel to file "complex_37721.vacuum_dkn" ... done

>>> Optimising kernel for current NGWFs:
   Initial electron number for spin 1:    7234.00000000
     Final electron number for spin 1:    7234.00000000

=================== Penalty functional idempotency correction ==================
 RMS occupancy error at iteration   1:  0.000000 (step -0.5000 Ne1=   7234.0000)
            Final RMS occupancy error   :  0.000000 (Ne1=   7234.0000)
               Final occupancy bounds   : [ -0.0000,  1.0000]
================================================================================

................................................................................
<<<<<<<<<<<<<< LNV (Original version) density kernel optimisation >>>>>>>>>>>>>>
~~~~~~~~~~~~~~~~~~~~~~~~~~~~~~~~~~~~~~~~~~~~~~~~~~~~~~~~~~~~~~~~~~~~~~~~~~~~~~~~
   iter  |      energy (Eh)       | rms gradient |  commutator  |   dE (Eh)
MG BCs: +ve charge blocks (gridpoints):     30455 (   17035674).
MG BCs: -ve charge blocks (gridpoints):      8250 (    1095449).
MG BCs:     Elided blocks (gridpoints):    166650 (  172645582).
MG BCs: Computational effort saved:  99.9797%.
MG BCs: Charge after coarse-graining:           -9.0009297.
MG DL_MG: Calling solver with defect correction order = 8
MG DL_MG: Solver finished
MG Hartree energy from (\int phi*rho dr):              1427.456236
MG Hartree energy from (\int eps (grad phi)^2 dr):     1426.780816
MG Discrepancy due to finite box and discretization:     -0.675420 (  -0.04732%)
MG Correction to account for finite box:                  0.470340
MG Remaining discrepancy, due to discretization:         -0.205080 (  -0.01437%)
      ideal mu1:      -0.749590933677
             Q0:  -11533.724376274506
             G0:    -124.146135663027
   RMS gradient:       0.001702641882
MG BCs: +ve charge blocks (gridpoints):     30426 (   17111084).
MG BCs: -ve charge blocks (gridpoints):      8134 (    1073008).
MG BCs:     Elided blocks (gridpoints):    166682 (  172592613).
MG BCs: Computational effort saved:  99.9798%.
MG BCs: Charge after coarse-graining:           -9.0009539.
MG DL_MG: Calling solver with defect correction order = 8
MG DL_MG: Solver finished
MG Hartree energy from (\int phi*rho dr):              1449.656207
MG Hartree energy from (\int eps (grad phi)^2 dr):     1448.998811
MG Discrepancy due to finite box and discretization:     -0.657395 (  -0.04535%)
MG Correction to account for finite box:                  0.468390
MG Remaining discrepancy, due to discretization:         -0.189006 (  -0.01304%)
     Trial step:       0.500000000000
             Q1:  -11545.673949635704
 Quadratic coef:      50.123494470316
 Linear coef   :     -62.073067831514
           Qmin:  -11552.942239028955
Quadratic minimum step length (  0.309600659768) accepted
    Initial Ne1:    7234.00000000
      Final Ne1:    7234.00000000

=================== Penalty functional idempotency correction ==================
 RMS occupancy error at iteration   1:  0.003128 (step -0.4894 Ne1=   7234.0000)
 RMS occupancy error at iteration   2:  0.000022 (step -0.5000 Ne1=   7234.0000)
            Final RMS occupancy error   :  0.000000 (Ne1=   7234.0000)
               Final occupancy bounds   : [  0.0000,  1.0000]
================================================================================

    1        -1.153372437627E+04     1.7026E-03     1.5402E-03
MG BCs: +ve charge blocks (gridpoints):     30435 (   17083753).
MG BCs: -ve charge blocks (gridpoints):      8172 (    1081643).
MG BCs:     Elided blocks (gridpoints):    166672 (  172611309).
MG BCs: Computational effort saved:  99.9798%.
MG BCs: Charge after coarse-graining:           -9.0009450.
MG DL_MG: Calling solver with defect correction order = 8
MG DL_MG: Solver finished
MG Hartree energy from (\int phi*rho dr):              1434.707567
MG Hartree energy from (\int eps (grad phi)^2 dr):     1434.044201
MG Discrepancy due to finite box and discretization:     -0.663367 (  -0.04624%)
MG Correction to account for finite box:                  0.469008
MG Remaining discrepancy, due to discretization:         -0.194358 (  -0.01355%)
      ideal mu1:      -0.787531552662
             Q0:  -11553.310210571974
             G0:     -10.909343802628
   RMS gradient:       0.000501157625
MG BCs: +ve charge blocks (gridpoints):     30439 (   17100197).
MG BCs: -ve charge blocks (gridpoints):      8151 (    1075082).
MG BCs:     Elided blocks (gridpoints):    166665 (  172601426).
MG BCs: Computational effort saved:  99.9798%.
MG BCs: Charge after coarse-graining:           -9.0009499.
MG DL_MG: Calling solver with defect correction order = 8
MG DL_MG: Solver finished
MG Hartree energy from (\int phi*rho dr):              1440.295629
MG Hartree energy from (\int eps (grad phi)^2 dr):     1439.636193
MG Discrepancy due to finite box and discretization:     -0.659437 (  -0.04578%)
MG Correction to account for finite box:                  0.468239
MG Remaining discrepancy, due to discretization:         -0.191197 (  -0.01327%)
     Trial step:       0.393446730681
             Q1:  -11555.814081084216
 Quadratic coef:       1.788375140781
 Linear coef   :      -4.292245653024
           Qmin:  -11555.885645155829
Quadratic minimum step length (  0.472152061655) accepted
    Initial Ne1:    7233.99993419
      Final Ne1:    7234.00000000

=================== Penalty functional idempotency correction ==================
 RMS occupancy error at iteration   1:  0.001471 (step -0.4947 Ne1=   7234.0000)
 RMS occupancy error at iteration   2:  0.000006 (step -0.5000 Ne1=   7234.0000)
            Final RMS occupancy error   :  0.000000 (Ne1=   7234.0000)
               Final occupancy bounds   : [  0.0000,  1.0000]
================================================================================

    2        -1.155331021057E+04     5.0116E-04     4.5336E-04    -1.9586E+01
MG BCs: +ve charge blocks (gridpoints):     30435 (   17103351).
MG BCs: -ve charge blocks (gridpoints):      8145 (    1073770).
MG BCs:     Elided blocks (gridpoints):    166669 (  172599584).
MG BCs: Computational effort saved:  99.9798%.
MG BCs: Charge after coarse-graining:           -9.0009511.
MG DL_MG: Calling solver with defect correction order = 8
MG DL_MG: Solver finished
MG Hartree energy from (\int phi*rho dr):              1441.437631
MG Hartree energy from (\int eps (grad phi)^2 dr):     1440.778934
MG Discrepancy due to finite box and discretization:     -0.658698 (  -0.04570%)
MG Correction to account for finite box:                  0.468096
MG Remaining discrepancy, due to discretization:         -0.190601 (  -0.01322%)
      ideal mu1:      -0.807661266315
             Q0:  -11555.917997266282
             G0:      -1.809350052047
   RMS gradient:       0.000204174669
MG BCs: +ve charge blocks (gridpoints):     30434 (   17104860).
MG BCs: -ve charge blocks (gridpoints):      8148 (    1073571).
MG BCs:     Elided blocks (gridpoints):    166670 (  172598274).
MG BCs: Computational effort saved:  99.9798%.
MG BCs: Charge after coarse-graining:           -9.0009511.
MG DL_MG: Calling solver with defect correction order = 8
MG DL_MG: Solver finished
MG Hartree energy from (\int phi*rho dr):              1440.834384
MG Hartree energy from (\int eps (grad phi)^2 dr):     1440.176157
MG Discrepancy due to finite box and discretization:     -0.658227 (  -0.04568%)
MG Correction to account for finite box:                  0.467821
MG Remaining discrepancy, due to discretization:         -0.190406 (  -0.01321%)
     Trial step:       0.431006595127
             Q1:  -11556.382847797708
 Quadratic coef:       0.314991273899
 Linear coef   :      -0.779841805325
           Qmin:  -11556.400671939937
Quadratic minimum step length (  0.533533766015) accepted
    Initial Ne1:    7233.99997949
      Final Ne1:    7234.00000000

=================== Penalty functional idempotency correction ==================
 RMS occupancy error at iteration   1:  0.000563 (step -0.4979 Ne1=   7234.0000)
 RMS occupancy error at iteration   2:  0.000001 (step -0.5000 Ne1=   7234.0000)
            Final RMS occupancy error   :  0.000000 (Ne1=   7234.0000)
               Final occupancy bounds   : [  0.0000,  1.0000]
================================================================================

    3        -1.155591799727E+04     2.0417E-04     1.8470E-04    -2.6078E+00
MG BCs: +ve charge blocks (gridpoints):     30426 (   17105138).
MG BCs: -ve charge blocks (gridpoints):      8147 (    1073607).
MG BCs:     Elided blocks (gridpoints):    166677 (  172597960).
MG BCs: Computational effort saved:  99.9798%.
MG BCs: Charge after coarse-graining:           -9.0009511.
MG DL_MG: Calling solver with defect correction order = 8
MG DL_MG: Solver finished
MG Hartree energy from (\int phi*rho dr):              1440.695581
MG Hartree energy from (\int eps (grad phi)^2 dr):     1440.037454
MG Discrepancy due to finite box and discretization:     -0.658128 (  -0.04568%)
MG Correction to account for finite box:                  0.467757
MG Remaining discrepancy, due to discretization:         -0.190370 (  -0.01321%)
      ideal mu1:      -0.810530242001
             Q0:  -11556.405126841157
             G0:      -0.386685597739
   RMS gradient:       0.000094553027
MG BCs: +ve charge blocks (gridpoints):     30426 (   17105467).
MG BCs: -ve charge blocks (gridpoints):      8144 (    1073554).
MG BCs:     Elided blocks (gridpoints):    166678 (  172597684).
MG BCs: Computational effort saved:  99.9798%.
MG BCs: Charge after coarse-graining:           -9.0009511.
MG DL_MG: Calling solver with defect correction order = 8
MG DL_MG: Solver finished
MG Hartree energy from (\int phi*rho dr):              1441.744107
MG Hartree energy from (\int eps (grad phi)^2 dr):     1441.085853
MG Discrepancy due to finite box and discretization:     -0.658254 (  -0.04566%)
MG Correction to account for finite box:                  0.467710
MG Remaining discrepancy, due to discretization:         -0.190543 (  -0.01322%)
     Trial step:       0.479537873244
             Q1:  -11556.500683064689
 Quadratic coef:       0.089874165622
 Linear coef   :      -0.185430389154
           Qmin:  -11556.500772872983
Quadratic minimum step length (  0.494696634090) accepted
    Initial Ne1:    7233.99999580
      Final Ne1:    7234.00000000

=================== Penalty functional idempotency correction ==================
 RMS occupancy error at iteration   1:  0.000178 (step -0.4993 Ne1=   7234.0000)
            Final RMS occupancy error   :  0.000000 (Ne1=   7234.0000)
               Final occupancy bounds   : [ -0.0000,  1.0000]
================================================================================

    4        -1.155640512684E+04     9.4553E-05     8.5534E-05    -4.8713E-01
MG BCs: +ve charge blocks (gridpoints):     30425 (   17105473).
MG BCs: -ve charge blocks (gridpoints):      8144 (    1073535).
MG BCs:     Elided blocks (gridpoints):    166679 (  172597697).
MG BCs: Computational effort saved:  99.9798%.
MG BCs: Charge after coarse-graining:           -9.0009511.
MG DL_MG: Calling solver with defect correction order = 8
MG DL_MG: Solver finished
MG Hartree energy from (\int phi*rho dr):              1441.777507
MG Hartree energy from (\int eps (grad phi)^2 dr):     1441.119249
MG Discrepancy due to finite box and discretization:     -0.658258 (  -0.04566%)
MG Correction to account for finite box:                  0.467709
MG Remaining discrepancy, due to discretization:         -0.190549 (  -0.01322%)
      ideal mu1:      -0.810550751908
             Q0:  -11556.501171938609
             G0:      -0.100527232027
   RMS gradient:       0.000048351559
MG BCs: +ve charge blocks (gridpoints):     30424 (   17104992).
MG BCs: -ve charge blocks (gridpoints):      8145 (    1073714).
MG BCs:     Elided blocks (gridpoints):    166679 (  172597999).
MG BCs: Computational effort saved:  99.9798%.
MG BCs: Charge after coarse-graining:           -9.0009509.
MG DL_MG: Calling solver with defect correction order = 8
MG DL_MG: Solver finished
MG Hartree energy from (\int phi*rho dr):              1441.466077
MG Hartree energy from (\int eps (grad phi)^2 dr):     1440.807671
MG Discrepancy due to finite box and discretization:     -0.658406 (  -0.04568%)
MG Correction to account for finite box:                  0.467717
MG Remaining discrepancy, due to discretization:         -0.190689 (  -0.01323%)
     Trial step:       0.487058283794
             Q1:  -11556.524597106036
 Quadratic coef:       0.025537453679
 Linear coef   :      -0.048962621106
           Qmin:  -11556.524640784561
Quadratic minimum step length (  0.466915192591) accepted
    Initial Ne1:    7234.00165710
      Final Ne1:    7234.00000000

=================== Penalty functional idempotency correction ==================
 RMS occupancy error at iteration   1:  0.000059 (step -0.4997 Ne1=   7234.0000)
            Final RMS occupancy error   :  0.000000 (Ne1=   7234.0000)
               Final occupancy bounds   : [ -0.0000,  1.0000]
================================================================================

    5        -1.155650117194E+04     4.8352E-05     4.3740E-05    -9.6045E-02
MG BCs: +ve charge blocks (gridpoints):     30424 (   17105005).
MG BCs: -ve charge blocks (gridpoints):      8145 (    1073710).
MG BCs:     Elided blocks (gridpoints):    166679 (  172597990).
MG BCs: Computational effort saved:  99.9798%.
MG BCs: Charge after coarse-graining:           -9.0009509.
MG DL_MG: Calling solver with defect correction order = 8
MG DL_MG: Solver finished
MG Hartree energy from (\int phi*rho dr):              1441.478935
MG Hartree energy from (\int eps (grad phi)^2 dr):     1440.820535
MG Discrepancy due to finite box and discretization:     -0.658400 (  -0.04568%)
MG Correction to account for finite box:                  0.467717
MG Remaining discrepancy, due to discretization:         -0.190683 (  -0.01323%)
      ideal mu1:      -0.809947799318
             Q0:  -11556.524682490155
             G0:      -0.024147061464
   RMS gradient:       0.000023720592
MG BCs: +ve charge blocks (gridpoints):     30426 (   17104816).
MG BCs: -ve charge blocks (gridpoints):      8145 (    1073848).
MG BCs:     Elided blocks (gridpoints):    166678 (  172598041).
MG BCs: Computational effort saved:  99.9798%.
MG BCs: Charge after coarse-graining:           -9.0009508.
MG DL_MG: Calling solver with defect correction order = 8
MG DL_MG: Solver finished
MG Hartree energy from (\int phi*rho dr):              1441.005131
MG Hartree energy from (\int eps (grad phi)^2 dr):     1440.346712
MG Discrepancy due to finite box and discretization:     -0.658418 (  -0.04569%)
MG Correction to account for finite box:                  0.467726
MG Remaining discrepancy, due to discretization:         -0.190693 (  -0.01323%)
     Trial step:       0.476880396306
             Q1:  -11556.531707945513
 Quadratic coef:       0.004489804884
 Linear coef   :      -0.011515260241
           Qmin:  -11556.532065952346
Quadratic minimum step length (  0.611541259520) accepted
    Initial Ne1:    7234.00078647
      Final Ne1:    7234.00000000

=================== Penalty functional idempotency correction ==================
 RMS occupancy error at iteration   1:  0.000025 (step -0.4999 Ne1=   7234.0000)
            Final RMS occupancy error   :  0.000000 (Ne1=   7234.0000)
               Final occupancy bounds   : [ -0.0000,  1.0000]
================================================================================

    6        -1.155652468249E+04     2.3721E-05     2.1458E-05    -2.3511E-02
MG BCs: +ve charge blocks (gridpoints):     30426 (   17104746).
MG BCs: -ve charge blocks (gridpoints):      8145 (    1073902).
MG BCs:     Elided blocks (gridpoints):    166678 (  172598057).
MG BCs: Computational effort saved:  99.9798%.
MG BCs: Charge after coarse-graining:           -9.0009508.
MG DL_MG: Calling solver with defect correction order = 8
MG DL_MG: Solver finished
MG Hartree energy from (\int phi*rho dr):              1440.871192
MG Hartree energy from (\int eps (grad phi)^2 dr):     1440.212768
MG Discrepancy due to finite box and discretization:     -0.658424 (  -0.04570%)
MG Correction to account for finite box:                  0.467728
MG Remaining discrepancy, due to discretization:         -0.190696 (  -0.01323%)
      ideal mu1:      -0.809887249141
             Q0:  -11556.532071311492
             G0:      -0.008781212144
   RMS gradient:       0.000014319701
MG BCs: +ve charge blocks (gridpoints):     30426 (   17105155).
MG BCs: -ve charge blocks (gridpoints):      8145 (    1073630).
MG BCs:     Elided blocks (gridpoints):    166678 (  172597920).
MG BCs: Computational effort saved:  99.9798%.
MG BCs: Charge after coarse-graining:           -9.0009509.
MG DL_MG: Calling solver with defect correction order = 8
MG DL_MG: Solver finished
MG Hartree energy from (\int phi*rho dr):              1441.384955
MG Hartree energy from (\int eps (grad phi)^2 dr):     1440.726536
MG Discrepancy due to finite box and discretization:     -0.658419 (  -0.04568%)
MG Correction to account for finite box:                  0.467715
MG Remaining discrepancy, due to discretization:         -0.190703 (  -0.01323%)
     Trial step:       0.540029664183
             Q1:  -11556.534349606372
 Quadratic coef:       0.002463820165
 Linear coef   :      -0.004742115045
           Qmin:  -11556.534353098879
Quadratic minimum step length (  0.519697588318) accepted
    Initial Ne1:    7234.00005912
      Final Ne1:    7234.00000000

=================== Penalty functional idempotency correction ==================
 RMS occupancy error at iteration   1:  0.000001 (step -0.5000 Ne1=   7234.0000)
            Final RMS occupancy error   :  0.000000 (Ne1=   7234.0000)
               Final occupancy bounds   : [  0.0000,  1.0000]
================================================================================

    7        -1.155653207131E+04     1.4320E-05     1.2954E-05    -7.3888E-03
MG BCs: +ve charge blocks (gridpoints):     30426 (   17105130).
MG BCs: -ve charge blocks (gridpoints):      8145 (    1073652).
MG BCs:     Elided blocks (gridpoints):    166678 (  172597923).
MG BCs: Computational effort saved:  99.9798%.
MG BCs: Charge after coarse-graining:           -9.0009509.
MG DL_MG: Calling solver with defect correction order = 8
MG DL_MG: Solver finished
MG Hartree energy from (\int phi*rho dr):              1441.365597
MG Hartree energy from (\int eps (grad phi)^2 dr):     1440.707178
MG Discrepancy due to finite box and discretization:     -0.658419 (  -0.04568%)
MG Correction to account for finite box:                  0.467716
MG Remaining discrepancy, due to discretization:         -0.190703 (  -0.01323%)
      ideal mu1:      -0.810205465009
             Q0:  -11556.534353111754
             G0:      -0.004549589608
   RMS gradient:       0.000010307366
MG BCs: +ve charge blocks (gridpoints):     30426 (   17105165).
MG BCs: -ve charge blocks (gridpoints):      8144 (    1073639).
MG BCs:     Elided blocks (gridpoints):    166678 (  172597901).
MG BCs: Computational effort saved:  99.9798%.
MG BCs: Charge after coarse-graining:           -9.0009509.
MG DL_MG: Calling solver with defect correction order = 8
MG DL_MG: Solver finished
MG Hartree energy from (\int phi*rho dr):              1441.383007
MG Hartree energy from (\int eps (grad phi)^2 dr):     1440.724600
MG Discrepancy due to finite box and discretization:     -0.658407 (  -0.04568%)
MG Correction to account for finite box:                  0.467711
MG Remaining discrepancy, due to discretization:         -0.190696 (  -0.01323%)
     Trial step:       0.529766093758
             Q1:  -11556.536098594544
 Quadratic coef:       0.000664735524
 Linear coef   :      -0.002410218315
           Qmin:  -11556.536537872504
Quadratic minimum step length (  0.960421021331) accepted
    Initial Ne1:    7234.00005630
      Final Ne1:    7234.00000000

=================== Penalty functional idempotency correction ==================
 RMS occupancy error at iteration   1:  0.000009 (step -0.4997 Ne1=   7234.0000)
            Final RMS occupancy error   :  0.000000 (Ne1=   7234.0000)
               Final occupancy bounds   : [ -0.0000,  1.0000]
================================================================================

    8        -1.155653435311E+04     1.0307E-05     9.3242E-06    -2.2818E-03
MG BCs: +ve charge blocks (gridpoints):     30426 (   17105171).
MG BCs: -ve charge blocks (gridpoints):      8144 (    1073631).
MG BCs:     Elided blocks (gridpoints):    166678 (  172597903).
MG BCs: Computational effort saved:  99.9798%.
MG BCs: Charge after coarse-graining:           -9.0009510.
MG DL_MG: Calling solver with defect correction order = 8
MG DL_MG: Solver finished
MG Hartree energy from (\int phi*rho dr):              1441.396596
MG Hartree energy from (\int eps (grad phi)^2 dr):     1440.738199
MG Discrepancy due to finite box and discretization:     -0.658397 (  -0.04568%)
MG Correction to account for finite box:                  0.467707
MG Remaining discrepancy, due to discretization:         -0.190690 (  -0.01323%)
      ideal mu1:      -0.810264284282
             Q0:  -11556.536535904626
             G0:      -0.005322541177
   RMS gradient:       0.000011158847
MG BCs: +ve charge blocks (gridpoints):     30426 (   17105038).
MG BCs: -ve charge blocks (gridpoints):      8143 (    1073726).
MG BCs:     Elided blocks (gridpoints):    166678 (  172597941).
MG BCs: Computational effort saved:  99.9798%.
MG BCs: Charge after coarse-graining:           -9.0009509.
MG DL_MG: Calling solver with defect correction order = 8
MG DL_MG: Solver finished
MG Hartree energy from (\int phi*rho dr):              1441.145600
MG Hartree energy from (\int eps (grad phi)^2 dr):     1440.487225
MG Discrepancy due to finite box and discretization:     -0.658374 (  -0.04568%)
MG Correction to account for finite box:                  0.467695
MG Remaining discrepancy, due to discretization:         -0.190679 (  -0.01323%)
     Trial step:       0.713301123533
             Q1:  -11556.538719109027
 Quadratic coef:       0.001613370201
 Linear coef   :      -0.003796574601
           Qmin:  -11556.538769424666
Quadratic minimum step length (  0.839268299039) accepted
    Initial Ne1:    7234.00009455
      Final Ne1:    7234.00000000

=================== Penalty functional idempotency correction ==================
 RMS occupancy error at iteration   1:  0.000033 (step -0.4990 Ne1=   7234.0000)
            Final RMS occupancy error   :  0.000000 (Ne1=   7234.0000)
               Final occupancy bounds   : [ -0.0000,  1.0000]
================================================================================

    9        -1.155653653590E+04     1.1159E-05     1.0094E-05    -2.1828E-03
MG BCs: +ve charge blocks (gridpoints):     30426 (   17105030).
MG BCs: -ve charge blocks (gridpoints):      8144 (    1073737).
MG BCs:     Elided blocks (gridpoints):    166678 (  172597938).
MG BCs: Computational effort saved:  99.9798%.
MG BCs: Charge after coarse-graining:           -9.0009509.
MG DL_MG: Calling solver with defect correction order = 8
MG DL_MG: Solver finished
MG Hartree energy from (\int phi*rho dr):              1441.100846
MG Hartree energy from (\int eps (grad phi)^2 dr):     1440.442476
MG Discrepancy due to finite box and discretization:     -0.658370 (  -0.04569%)
MG Correction to account for finite box:                  0.467693
MG Remaining discrepancy, due to discretization:         -0.190677 (  -0.01323%)
      ideal mu1:      -0.810092571786
   10        -1.155653876820E+04     1.0633E-05     9.6186E-06    -2.2323E-03
Finished density kernel iterations (  10)

Writing density kernel to file "complex_37721.vacuum_dkn" ... done


>>> Density kernel optimised for the current NGWF basis:
     ~~~~~~~~~~~~~~~~~~~~~~~~~~~~~~~~~~~~~~~~~~~~~~~~~~~~~~~~~~~
     Total energy                =  -1.15565387681994E+04  Eh
     Estimated bandgap           =  -2.2265E-01  Eh
     RMS occupancy error         =   3.4370E-08
     [H,K] commutator            =   9.6186E-06
     Occupancy bounds            = [ -0.000:  1.000]
     ~~~~~~~~~~~~~~~~~~~~~~~~~~~~~~~~~~~~~~~~~~~~~~~~~~~~~~~~~~~




################################################################################
########################### NGWF CG iteration  001 #############################
################################################################################
****** Reciprocal space K.E. preconditioning with k_zero =  3.5000 a0^-1 *******

>>> Checking for convergence of NGWFs:   NOT CONVERGED
  ========================================================================
         NGWF RMS gradient =  1.6946E-03 >  2.0000E-06  | above tolerance
  ========================================================================

>>> Improving NGWFs using line search:
============ Calculation of NGWF S^-1 using Hotelling algorithm ================ 
         Iteration  |  Frobenius norm and Maximum abs value    (of I-S*S_n^-1)   
               1       0.24773770E+00     0.72268347E-02
               2       0.14271070E-02     0.66483302E-04
               3       0.80800667E-07     0.60674461E-08
               4       0.13465393E-12     0.73274720E-14
================================================================================
MG BCs: +ve charge blocks (gridpoints):     30054 (   17048327).
MG BCs: -ve charge blocks (gridpoints):      8150 (    1070511).
MG BCs:     Elided blocks (gridpoints):    167060 (  172657867).
MG BCs: Computational effort saved:  99.9800%.
MG BCs: Charge after coarse-graining:           -9.0009604.
MG DL_MG: Calling solver with defect correction order = 8
MG DL_MG: Solver finished
MG Hartree energy from (\int phi*rho dr):              1412.238825
MG Hartree energy from (\int eps (grad phi)^2 dr):     1411.582076
MG Discrepancy due to finite box and discretization:     -0.656749 (  -0.04650%)
MG Correction to account for finite box:                  0.467629
MG Remaining discrepancy, due to discretization:         -0.189120 (  -0.01339%)
============ Calculation of NGWF S^-1 using Hotelling algorithm ================ 
         Iteration  |  Frobenius norm and Maximum abs value    (of I-S*S_n^-1)   
               1       0.21511172E+01     0.53344855E-01
               2       0.95200533E-01     0.35196134E-02
               3       0.26176153E-03     0.15818540E-04
               4       0.35998234E-08     0.35822723E-09
               5       0.11796395E-12     0.56621374E-14
================================================================================
------------------------------- NGWF line search -------------------------------
RMS gradient                =       0.00169455385496
Trial step length           =               0.122474
Gradient along search dir.  =       -307.47127839880
Functional at step 0        =  -11556.53876819938887
Functional at step 1        =  -11591.15277832816355
Functional predicted        =  -11673.02768857796582
Selected quadratic step     =               0.757722
--------------------------- NGWF line search finished --------------------------
                                               
Writing NGWFs to file "complex_37721.vacuum_tightbox_ngwfs"....  done

>>> Optimising kernel for current NGWFs:
   Initial electron number for spin 1:    7280.28440145
     Final electron number for spin 1:    7234.00000000

=================== Penalty functional idempotency correction ==================
 RMS occupancy error at iteration   1:  0.005317 (step -0.4820 Ne1=   7234.0000)
 RMS occupancy error at iteration   2:  0.000101 (step -0.5003 Ne1=   7234.0000)
            Final RMS occupancy error   :  0.000000 (Ne1=   7234.0000)
               Final occupancy bounds   : [  0.0000,  1.0000]
================================================================================

................................................................................
<<<<<<<<<<<<<< LNV (Original version) density kernel optimisation >>>>>>>>>>>>>>
~~~~~~~~~~~~~~~~~~~~~~~~~~~~~~~~~~~~~~~~~~~~~~~~~~~~~~~~~~~~~~~~~~~~~~~~~~~~~~~~
   iter  |      energy (Eh)       | rms gradient |  commutator  |   dE (Eh)
MG BCs: +ve charge blocks (gridpoints):     24711 (   16731283).
MG BCs: -ve charge blocks (gridpoints):      8262 (    1041589).
MG BCs:     Elided blocks (gridpoints):    172409 (  173003833).
MG BCs: Computational effort saved:  99.9827%.
MG BCs: Charge after coarse-graining:           -9.0007432.
MG DL_MG: Calling solver with defect correction order = 8
MG DL_MG: Solver finished
MG Hartree energy from (\int phi*rho dr):              1284.085277
MG Hartree energy from (\int eps (grad phi)^2 dr):     1283.431648
MG Discrepancy due to finite box and discretization:     -0.653630 (  -0.05090%)
MG Correction to account for finite box:                  0.467333
MG Remaining discrepancy, due to discretization:         -0.186297 (  -0.01451%)
      ideal mu1:      -0.752695445882
             Q0:  -11672.426321138395
             G0:      -9.434498233762
   RMS gradient:       0.000469370848
MG BCs: +ve charge blocks (gridpoints):     24768 (   16744150).
MG BCs: -ve charge blocks (gridpoints):      8256 (    1038141).
MG BCs:     Elided blocks (gridpoints):    172352 (  172994414).
MG BCs: Computational effort saved:  99.9827%.
MG BCs: Charge after coarse-graining:           -9.0007388.
MG DL_MG: Calling solver with defect correction order = 8
MG DL_MG: Solver finished
MG Hartree energy from (\int phi*rho dr):              1297.882829
MG Hartree energy from (\int eps (grad phi)^2 dr):     1297.223596
MG Discrepancy due to finite box and discretization:     -0.659233 (  -0.05079%)
MG Correction to account for finite box:                  0.467287
MG Remaining discrepancy, due to discretization:         -0.191946 (  -0.01479%)
     Trial step:       0.773725416831
             Q1:  -11671.250069243950
 Quadratic coef:       8.475962972952
 Linear coef   :      -7.299711078508
           Qmin:  -11673.997994528183
Quadratic minimum step length (  0.333175829990) accepted
    Initial Ne1:    7233.99892442
      Final Ne1:    7234.00000000

=================== Penalty functional idempotency correction ==================
 RMS occupancy error at iteration   1:  0.000350 (step -0.4986 Ne1=   7234.0000)
 RMS occupancy error at iteration   2:  0.000000 (step -0.5000 Ne1=   7234.0000)
            Final RMS occupancy error   :  0.000000 (Ne1=   7234.0000)
               Final occupancy bounds   : [  0.0000,  1.0000]
================================================================================

    1        -1.167242632114E+04     4.6937E-04     4.2460E-04
MG BCs: +ve charge blocks (gridpoints):     24738 (   16737001).
MG BCs: -ve charge blocks (gridpoints):      8269 (    1040093).
MG BCs:     Elided blocks (gridpoints):    172382 (  172999611).
MG BCs: Computational effort saved:  99.9827%.
MG BCs: Charge after coarse-graining:           -9.0007412.
MG DL_MG: Calling solver with defect correction order = 8
MG DL_MG: Solver finished
MG Hartree energy from (\int phi*rho dr):              1288.952557
MG Hartree energy from (\int eps (grad phi)^2 dr):     1288.296618
MG Discrepancy due to finite box and discretization:     -0.655939 (  -0.05089%)
MG Correction to account for finite box:                  0.467298
MG Remaining discrepancy, due to discretization:         -0.188641 (  -0.01464%)
      ideal mu1:      -0.758784870318
             Q0:  -11673.976607969846
             G0:      -0.859780844216
   RMS gradient:       0.000142257239
MG BCs: +ve charge blocks (gridpoints):     24741 (   16736441).
MG BCs: -ve charge blocks (gridpoints):      8270 (    1040938).
MG BCs:     Elided blocks (gridpoints):    172379 (  172999326).
MG BCs: Computational effort saved:  99.9827%.
MG BCs: Charge after coarse-graining:           -9.0007411.
MG DL_MG: Calling solver with defect correction order = 8
MG DL_MG: Solver finished
MG Hartree energy from (\int phi*rho dr):              1289.434247
MG Hartree energy from (\int eps (grad phi)^2 dr):     1288.778005
MG Discrepancy due to finite box and discretization:     -0.656242 (  -0.05089%)
MG Correction to account for finite box:                  0.467316
MG Remaining discrepancy, due to discretization:         -0.188926 (  -0.01465%)
     Trial step:       0.507726902909
             Q1:  -11674.171837061527
 Quadratic coef:       0.241304773532
 Linear coef   :      -0.436533865214
           Qmin:  -11674.174036529474
Quadratic minimum step length (  0.459253217738) accepted
    Initial Ne1:    7233.99986380
      Final Ne1:    7234.00000000

=================== Penalty functional idempotency correction ==================
 RMS occupancy error at iteration   1:  0.000135 (step -0.4995 Ne1=   7234.0000)
            Final RMS occupancy error   :  0.000000 (Ne1=   7234.0000)
               Final occupancy bounds   : [ -0.0000,  1.0000]
================================================================================

    2        -1.167397660797E+04     1.4226E-04     1.2869E-04    -1.5503E+00
MG BCs: +ve charge blocks (gridpoints):     24741 (   16736492).
MG BCs: -ve charge blocks (gridpoints):      8270 (    1040836).
MG BCs:     Elided blocks (gridpoints):    172379 (  172999377).
MG BCs: Computational effort saved:  99.9827%.
MG BCs: Charge after coarse-graining:           -9.0007412.
MG DL_MG: Calling solver with defect correction order = 8
MG DL_MG: Solver finished
MG Hartree energy from (\int phi*rho dr):              1289.388797
MG Hartree energy from (\int eps (grad phi)^2 dr):     1288.732585
MG Discrepancy due to finite box and discretization:     -0.656212 (  -0.05089%)
MG Correction to account for finite box:                  0.467314
MG Remaining discrepancy, due to discretization:         -0.188898 (  -0.01465%)
      ideal mu1:      -0.759427628217
             Q0:  -11674.174416077090
             G0:      -0.169281090822
   RMS gradient:       0.000062810163
MG BCs: +ve charge blocks (gridpoints):     24739 (   16735817).
MG BCs: -ve charge blocks (gridpoints):      8270 (    1041182).
MG BCs:     Elided blocks (gridpoints):    172381 (  172999706).
MG BCs: Computational effort saved:  99.9827%.
MG BCs: Charge after coarse-graining:           -9.0007412.
MG DL_MG: Calling solver with defect correction order = 8
MG DL_MG: Solver finished
MG Hartree energy from (\int phi*rho dr):              1288.812671
MG Hartree energy from (\int eps (grad phi)^2 dr):     1288.156540
MG Discrepancy due to finite box and discretization:     -0.656131 (  -0.05091%)
MG Correction to account for finite box:                  0.467326
MG Remaining discrepancy, due to discretization:         -0.188806 (  -0.01465%)
     Trial step:       0.482882194632
             Q1:  -11674.224037896027
 Quadratic coef:       0.032121005710
 Linear coef   :      -0.081742824646
           Qmin:  -11674.226421682406
Quadratic minimum step length (  0.614428995731) accepted
    Initial Ne1:    7234.00052381
      Final Ne1:    7234.00000000

=================== Penalty functional idempotency correction ==================
 RMS occupancy error at iteration   1:  0.000068 (step -0.4998 Ne1=   7234.0000)
            Final RMS occupancy error   :  0.000000 (Ne1=   7234.0000)
               Final occupancy bounds   : [ -0.0000,  1.0000]
================================================================================

    3        -1.167417441608E+04     6.2810E-05     5.6819E-05    -1.9781E-01
MG BCs: +ve charge blocks (gridpoints):     24739 (   16735637).
MG BCs: -ve charge blocks (gridpoints):      8270 (    1041275).
MG BCs:     Elided blocks (gridpoints):    172381 (  172999793).
MG BCs: Computational effort saved:  99.9827%.
MG BCs: Charge after coarse-graining:           -9.0007412.
MG DL_MG: Calling solver with defect correction order = 8
MG DL_MG: Solver finished
MG Hartree energy from (\int phi*rho dr):              1288.655384
MG Hartree energy from (\int eps (grad phi)^2 dr):     1287.999274
MG Discrepancy due to finite box and discretization:     -0.656110 (  -0.05091%)
MG Correction to account for finite box:                  0.467329
MG Remaining discrepancy, due to discretization:         -0.188781 (  -0.01465%)
      ideal mu1:      -0.758538137854
             Q0:  -11674.226519981283
             G0:      -0.032624595125
   RMS gradient:       0.000027559097
MG BCs: +ve charge blocks (gridpoints):     24740 (   16735446).
MG BCs: -ve charge blocks (gridpoints):      8269 (    1041304).
MG BCs:     Elided blocks (gridpoints):    172380 (  172999955).
MG BCs: Computational effort saved:  99.9827%.
MG BCs: Charge after coarse-graining:           -9.0007413.
MG DL_MG: Calling solver with defect correction order = 8
MG DL_MG: Solver finished
MG Hartree energy from (\int phi*rho dr):              1288.683021
MG Hartree energy from (\int eps (grad phi)^2 dr):     1288.027002
MG Discrepancy due to finite box and discretization:     -0.656019 (  -0.05091%)
MG Correction to account for finite box:                  0.467327
MG Remaining discrepancy, due to discretization:         -0.188692 (  -0.01464%)
     Trial step:       0.544698835967
             Q1:  -11674.235319124069
 Quadratic coef:       0.008971436202
 Linear coef   :      -0.017770578988
           Qmin:  -11674.235319951278
Quadratic minimum step length (  0.539468456967) accepted
    Initial Ne1:    7234.00023756
      Final Ne1:    7234.00000000

=================== Penalty functional idempotency correction ==================
 RMS occupancy error at iteration   1:  0.000018 (step -0.4999 Ne1=   7234.0000)
            Final RMS occupancy error   :  0.000000 (Ne1=   7234.0000)
               Final occupancy bounds   : [ -0.0000,  1.0000]
================================================================================

    4        -1.167422651998E+04     2.7559E-05     2.4930E-05    -5.2104E-02
MG BCs: +ve charge blocks (gridpoints):     24740 (   16735445).
MG BCs: -ve charge blocks (gridpoints):      8269 (    1041305).
MG BCs:     Elided blocks (gridpoints):    172380 (  172999955).
MG BCs: Computational effort saved:  99.9827%.
MG BCs: Charge after coarse-graining:           -9.0007413.
MG DL_MG: Calling solver with defect correction order = 8
MG DL_MG: Solver finished
MG Hartree energy from (\int phi*rho dr):              1288.682750
MG Hartree energy from (\int eps (grad phi)^2 dr):     1288.026730
MG Discrepancy due to finite box and discretization:     -0.656020 (  -0.05091%)
MG Correction to account for finite box:                  0.467327
MG Remaining discrepancy, due to discretization:         -0.188692 (  -0.01464%)
      ideal mu1:      -0.758586209615
             Q0:  -11674.235324675217
             G0:      -0.009837536340
   RMS gradient:       0.000015153601
MG BCs: +ve charge blocks (gridpoints):     24741 (   16735892).
MG BCs: -ve charge blocks (gridpoints):      8269 (    1041148).
MG BCs:     Elided blocks (gridpoints):    172379 (  172999665).
MG BCs: Computational effort saved:  99.9827%.
MG BCs: Charge after coarse-graining:           -9.0007412.
MG DL_MG: Calling solver with defect correction order = 8
MG DL_MG: Solver finished
MG Hartree energy from (\int phi*rho dr):              1289.017643
MG Hartree energy from (\int eps (grad phi)^2 dr):     1288.361643
MG Discrepancy due to finite box and discretization:     -0.655999 (  -0.05089%)
MG Correction to account for finite box:                  0.467324
MG Remaining discrepancy, due to discretization:         -0.188676 (  -0.01464%)
     Trial step:       0.542077338164
             Q1:  -11674.237836867105
 Quadratic coef:       0.002820513626
 Linear coef   :      -0.005332705513
           Qmin:  -11674.237845293079
Quadratic minimum step length (  0.512449006304) accepted
    Initial Ne1:    7234.00008054
      Final Ne1:    7234.00000000

=================== Penalty functional idempotency correction ==================
 RMS occupancy error at iteration   1:  0.000007 (step -0.5000 Ne1=   7234.0000)
            Final RMS occupancy error   :  0.000000 (Ne1=   7234.0000)
               Final occupancy bounds   : [ -0.0000,  1.0000]
================================================================================

    5        -1.167423532468E+04     1.5154E-05     1.3708E-05    -8.8047E-03
MG BCs: +ve charge blocks (gridpoints):     24740 (   16735864).
MG BCs: -ve charge blocks (gridpoints):      8269 (    1041156).
MG BCs:     Elided blocks (gridpoints):    172380 (  172999685).
MG BCs: Computational effort saved:  99.9827%.
MG BCs: Charge after coarse-graining:           -9.0007412.
MG DL_MG: Calling solver with defect correction order = 8
MG DL_MG: Solver finished
MG Hartree energy from (\int phi*rho dr):              1288.999312
MG Hartree energy from (\int eps (grad phi)^2 dr):     1288.343311
MG Discrepancy due to finite box and discretization:     -0.656001 (  -0.05089%)
MG Correction to account for finite box:                  0.467324
MG Remaining discrepancy, due to discretization:         -0.188677 (  -0.01464%)
      ideal mu1:      -0.758848788830
             Q0:  -11674.237845890806
             G0:      -0.002372969164
   RMS gradient:       0.000007442449
MG BCs: +ve charge blocks (gridpoints):     24740 (   16735811).
MG BCs: -ve charge blocks (gridpoints):      8268 (    1041210).
MG BCs:     Elided blocks (gridpoints):    172380 (  172999684).
MG BCs: Computational effort saved:  99.9827%.
MG BCs: Charge after coarse-graining:           -9.0007412.
MG DL_MG: Calling solver with defect correction order = 8
MG DL_MG: Solver finished
MG Hartree energy from (\int phi*rho dr):              1288.954740
MG Hartree energy from (\int eps (grad phi)^2 dr):     1288.298746
MG Discrepancy due to finite box and discretization:     -0.655993 (  -0.05089%)
MG Correction to account for finite box:                  0.467321
MG Remaining discrepancy, due to discretization:         -0.188672 (  -0.01464%)
     Trial step:       0.527055019217
             Q1:  -11674.238564833417
 Quadratic coef:       0.000531742699
 Linear coef   :      -0.001250685308
           Qmin:  -11674.238581309339
Quadratic minimum step length (  0.619829826499) accepted
    Initial Ne1:    7234.00002664
      Final Ne1:    7234.00000000

=================== Penalty functional idempotency correction ==================
 RMS occupancy error at iteration   1:  0.000003 (step -0.5000 Ne1=   7234.0000)
            Final RMS occupancy error   :  0.000000 (Ne1=   7234.0000)
               Final occupancy bounds   : [  0.0000,  1.0000]
================================================================================

    6        -1.167423784589E+04     7.4424E-06     6.7326E-06    -2.5212E-03
MG BCs: +ve charge blocks (gridpoints):     24739 (   16735803).
MG BCs: -ve charge blocks (gridpoints):      8268 (    1041215).
MG BCs:     Elided blocks (gridpoints):    172381 (  172999687).
MG BCs: Computational effort saved:  99.9827%.
MG BCs: Charge after coarse-graining:           -9.0007412.
MG DL_MG: Calling solver with defect correction order = 8
MG DL_MG: Solver finished
MG Hartree energy from (\int phi*rho dr):              1288.946898
MG Hartree energy from (\int eps (grad phi)^2 dr):     1288.290906
MG Discrepancy due to finite box and discretization:     -0.655992 (  -0.05089%)
MG Correction to account for finite box:                  0.467320
MG Remaining discrepancy, due to discretization:         -0.188672 (  -0.01464%)
      ideal mu1:      -0.758793334245
             Q0:  -11674.238581378944
             G0:      -0.000872955400
   RMS gradient:       0.000004514948
MG BCs: +ve charge blocks (gridpoints):     24738 (   16735694).
MG BCs: -ve charge blocks (gridpoints):      8268 (    1041236).
MG BCs:     Elided blocks (gridpoints):    172382 (  172999775).
MG BCs: Computational effort saved:  99.9827%.
MG BCs: Charge after coarse-graining:           -9.0007412.
MG DL_MG: Calling solver with defect correction order = 8
MG DL_MG: Solver finished
MG Hartree energy from (\int phi*rho dr):              1288.892862
MG Hartree energy from (\int eps (grad phi)^2 dr):     1288.236866
MG Discrepancy due to finite box and discretization:     -0.655996 (  -0.05090%)
MG Correction to account for finite box:                  0.467323
MG Remaining discrepancy, due to discretization:         -0.188673 (  -0.01464%)
     Trial step:       0.571563138347
             Q1:  -11674.238797149039
 Quadratic coef:       0.000283179033
 Linear coef   :      -0.000498949128
           Qmin:  -11674.238801160605
Quadratic minimum step length (  0.503534682926) accepted
    Initial Ne1:    7233.99999916
      Final Ne1:    7234.00000000

=================== Penalty functional idempotency correction ==================
 RMS occupancy error at iteration   1:  0.000000 (step -0.5000 Ne1=   7234.0000)
            Final RMS occupancy error   :  0.000000 (Ne1=   7234.0000)
               Final occupancy bounds   : [  0.0000,  1.0000]
================================================================================

    7        -1.167423858138E+04     4.5149E-06     4.0843E-06    -7.3549E-04
MG BCs: +ve charge blocks (gridpoints):     24738 (   16735708).
MG BCs: -ve charge blocks (gridpoints):      8268 (    1041231).
MG BCs:     Elided blocks (gridpoints):    172382 (  172999766).
MG BCs: Computational effort saved:  99.9827%.
MG BCs: Charge after coarse-graining:           -9.0007412.
MG DL_MG: Calling solver with defect correction order = 8
MG DL_MG: Solver finished
MG Hartree energy from (\int phi*rho dr):              1288.899287
MG Hartree energy from (\int eps (grad phi)^2 dr):     1288.243291
MG Discrepancy due to finite box and discretization:     -0.655996 (  -0.05090%)
MG Correction to account for finite box:                  0.467323
MG Remaining discrepancy, due to discretization:         -0.188673 (  -0.01464%)
      ideal mu1:      -0.758743529153
             Q0:  -11674.238801159430
             G0:      -0.000507571413
   RMS gradient:       0.000003442698
MG BCs: +ve charge blocks (gridpoints):     24737 (   16735697).
MG BCs: -ve charge blocks (gridpoints):      8268 (    1041237).
MG BCs:     Elided blocks (gridpoints):    172383 (  172999771).
MG BCs: Computational effort saved:  99.9827%.
MG BCs: Charge after coarse-graining:           -9.0007412.
MG DL_MG: Calling solver with defect correction order = 8
MG DL_MG: Solver finished
MG Hartree energy from (\int phi*rho dr):              1288.879420
MG Hartree energy from (\int eps (grad phi)^2 dr):     1288.223425
MG Discrepancy due to finite box and discretization:     -0.655995 (  -0.05090%)
MG Correction to account for finite box:                  0.467323
MG Remaining discrepancy, due to discretization:         -0.188672 (  -0.01464%)
     Trial step:       0.536471680184
             Q1:  -11674.239007744589
 Quadratic coef:       0.000065712529
 Linear coef   :      -0.000272297689
           Qmin:  -11674.239083244263
Quadratic minimum step length (  1.111507959061) accepted
    Initial Ne1:    7233.99999891
      Final Ne1:    7234.00000000

=================== Penalty functional idempotency correction ==================
 RMS occupancy error at iteration   1:  0.000003 (step -0.5000 Ne1=   7234.0000)
            Final RMS occupancy error   :  0.000000 (Ne1=   7234.0000)
               Final occupancy bounds   : [  0.0000,  1.0000]
================================================================================

    8        -1.167423880116E+04     3.4427E-06     3.1143E-06    -2.1978E-04
MG BCs: +ve charge blocks (gridpoints):     24737 (   16735695).
MG BCs: -ve charge blocks (gridpoints):      8268 (    1041245).
MG BCs:     Elided blocks (gridpoints):    172383 (  172999765).
MG BCs: Computational effort saved:  99.9827%.
[...]
      Final Ne1:    7234.00000000

=================== Penalty functional idempotency correction ==================
 RMS occupancy error at iteration   1:  0.000000 (step -0.5000 Ne1=   7234.0000)
            Final RMS occupancy error   :  0.000000 (Ne1=   7234.0000)
               Final occupancy bounds   : [ -0.0000,  1.0000]
================================================================================

    7        -1.171068221341E+04     4.9265E-09     4.4566E-09     1.1642E-10

Reusing previously generated solute cavity.
MG BCs: +ve charge blocks (gridpoints):     29147 (   18858078).
MG BCs: -ve charge blocks (gridpoints):      8299 (    1019324).
MG BCs:     Elided blocks (gridpoints):    167973 (  170899303).
MG BCs: Computational effort saved:  99.9804%.
MG BCs: Charge after coarse-graining:           -9.0009658.
MG DL_MG: Calling solver with defect correction order = 8
MG DL_MG: Solver finished
MG Hartree energy from (\int phi*rho dr):              1239.192050
MG Hartree energy from (\int eps (grad phi)^2 dr):     1238.997706
MG Discrepancy due to finite box and discretization:     -0.194345 (  -0.01568%)
MG Correction to account for finite box:                  0.006471
MG Remaining discrepancy, due to discretization:         -0.187874 (  -0.01516%)
      ideal mu1:      -0.514320372762
             Q0:  -11710.682213406544
             G0:      -0.000000001294
   RMS gradient:       0.000000004086

Reusing previously generated solute cavity.
MG BCs: +ve charge blocks (gridpoints):     29147 (   18858078).
MG BCs: -ve charge blocks (gridpoints):      8299 (    1019324).
MG BCs:     Elided blocks (gridpoints):    167973 (  170899303).
MG BCs: Computational effort saved:  99.9804%.
MG BCs: Charge after coarse-graining:           -9.0009658.
MG DL_MG: Calling solver with defect correction order = 8
MG DL_MG: Solver finished
MG Hartree energy from (\int phi*rho dr):              1239.192046
MG Hartree energy from (\int eps (grad phi)^2 dr):     1238.997701
MG Discrepancy due to finite box and discretization:     -0.194345 (  -0.01568%)
MG Correction to account for finite box:                  0.006471
MG Remaining discrepancy, due to discretization:         -0.187874 (  -0.01516%)
     Trial step:       0.205201618933
             Q1:  -11710.682213406544
 Quadratic coef:       0.000000000266
 Linear coef   :      -0.000000000266
           Qmin:  -11710.682213406611
Quadratic minimum step length (  0.102601204415) accepted
    Initial Ne1:    7234.00000000
      Final Ne1:    7234.00000000

=================== Penalty functional idempotency correction ==================
 RMS occupancy error at iteration   1:  0.000000 (step -0.5000 Ne1=   7234.0000)
            Final RMS occupancy error   :  0.000000 (Ne1=   7234.0000)
               Final occupancy bounds   : [ -0.0000,  1.0000]
================================================================================

    8        -1.171068221341E+04     4.0862E-09     3.6964E-09    -1.1642E-10

Reusing previously generated solute cavity.
MG BCs: +ve charge blocks (gridpoints):     29147 (   18858078).
MG BCs: -ve charge blocks (gridpoints):      8299 (    1019324).
MG BCs:     Elided blocks (gridpoints):    167973 (  170899303).
MG BCs: Computational effort saved:  99.9804%.
MG BCs: Charge after coarse-graining:           -9.0009658.
MG DL_MG: Calling solver with defect correction order = 8
MG DL_MG: Solver finished
MG Hartree energy from (\int phi*rho dr):              1239.192048
MG Hartree energy from (\int eps (grad phi)^2 dr):     1238.997703
MG Discrepancy due to finite box and discretization:     -0.194345 (  -0.01568%)
MG Correction to account for finite box:                  0.006471
MG Remaining discrepancy, due to discretization:         -0.187874 (  -0.01516%)
      ideal mu1:      -0.514320370913
             Q0:  -11710.682213406544
             G0:      -0.000000001510
   RMS gradient:       0.000000003682

Reusing previously generated solute cavity.
MG BCs: +ve charge blocks (gridpoints):     29147 (   18858078).
MG BCs: -ve charge blocks (gridpoints):      8299 (    1019324).
MG BCs:     Elided blocks (gridpoints):    167973 (  170899303).
MG BCs: Computational effort saved:  99.9804%.
MG BCs: Charge after coarse-graining:           -9.0009658.
MG DL_MG: Calling solver with defect correction order = 8
MG DL_MG: Solver finished
MG Hartree energy from (\int phi*rho dr):              1239.192044
MG Hartree energy from (\int eps (grad phi)^2 dr):     1238.997699
MG Discrepancy due to finite box and discretization:     -0.194345 (  -0.01568%)
MG Correction to account for finite box:                  0.006471
MG Remaining discrepancy, due to discretization:         -0.187874 (  -0.01516%)
     Trial step:       0.145099735528
             Q1:  -11710.682213406544
 Quadratic coef:       0.000000000218
 Linear coef   :      -0.000000000219
           Qmin:  -11710.682213406599
Quadratic minimum step length (  0.072828757679) accepted
    Initial Ne1:    7234.00000000
      Final Ne1:    7234.00000000

=================== Penalty functional idempotency correction ==================
 RMS occupancy error at iteration   1:  0.000000 (step -0.5000 Ne1=   7234.0000)
            Final RMS occupancy error   :  0.000000 (Ne1=   7234.0000)
               Final occupancy bounds   : [  0.0000,  1.0000]
================================================================================

    9        -1.171068221341E+04     3.6816E-09     3.3304E-09     0.0000E+00

Reusing previously generated solute cavity.
MG BCs: +ve charge blocks (gridpoints):     29147 (   18858078).
MG BCs: -ve charge blocks (gridpoints):      8299 (    1019324).
MG BCs:     Elided blocks (gridpoints):    167973 (  170899303).
MG BCs: Computational effort saved:  99.9804%.
MG BCs: Charge after coarse-graining:           -9.0009658.
MG DL_MG: Calling solver with defect correction order = 8
MG DL_MG: Solver finished
MG Hartree energy from (\int phi*rho dr):              1239.192046
MG Hartree energy from (\int eps (grad phi)^2 dr):     1238.997701
MG Discrepancy due to finite box and discretization:     -0.194345 (  -0.01568%)
MG Correction to account for finite box:                  0.006471
MG Remaining discrepancy, due to discretization:         -0.187874 (  -0.01516%)
      ideal mu1:      -0.514320369078
   10        -1.171068221341E+04     3.3474E-09     3.0281E-09    -1.1642E-10
Finished density kernel iterations (  10)

Writing density kernel to file "complex_37721.dkn" ... done


>>> Density kernel optimised for the current NGWF basis:
     ~~~~~~~~~~~~~~~~~~~~~~~~~~~~~~~~~~~~~~~~~~~~~~~~~~~~~~~~~~~
     Total energy                =  -1.17106822134067E+04  Eh
     Estimated bandgap           =   1.2274E-01  Eh
     RMS occupancy error         =   3.0296E-16
     [H,K] commutator            =   3.0281E-09
     Occupancy bounds            = [ -0.000:  1.000]
     ~~~~~~~~~~~~~~~~~~~~~~~~~~~~~~~~~~~~~~~~~~~~~~~~~~~~~~~~~~~




################################################################################
########################### NGWF CG iteration  004 #############################
################################################################################
****** Reciprocal space K.E. preconditioning with k_zero =  3.5000 a0^-1 *******

>>> Checking for convergence of NGWFs: 
           ........................................................
           |         *** NGWF optimisation converged ***          |
           | RMS NGWF gradient =    0.00000109417606              |
           | Criteria satisfied:                                  |
           | -> RMS NGWF gradient lower than set threshold.       |
           ========================================================

Reusing previously generated solute cavity.
MG BCs: +ve charge blocks (gridpoints):     29147 (   18858078).
MG BCs: -ve charge blocks (gridpoints):      8299 (    1019324).
MG BCs:     Elided blocks (gridpoints):    167973 (  170899303).
MG BCs: Computational effort saved:  99.9804%.
MG BCs: Charge after coarse-graining:           -9.0009658.
MG DL_MG: Calling solver with defect correction order = 8
MG DL_MG: Solver finished
MG Hartree energy from (\int phi*rho dr):              1239.192046
MG Hartree energy from (\int eps (grad phi)^2 dr):     1238.997701
MG Discrepancy due to finite box and discretization:     -0.194345 (  -0.01568%)
MG Correction to account for finite box:                  0.006471
MG Remaining discrepancy, due to discretization:         -0.187874 (  -0.01516%)

================================================================================
           ---------------- ENERGY COMPONENTS (Eh) ----------------
           | Kinetic                    :     8445.66776332881636 |
           | Pseudo. (local,OBC,corr'd) :    -5008.76991229954456 |
           | Pseudopotential (non-local):     1454.94642464852700 |
           | Hartree (molecular)        :     1239.19204592172241 |
           | Exchange-correlation       :    -3351.52566829609850 |
           | Ion-ion (open BC)          :   836757.12240910541732 |
           | Smeared ion non-self corr. :  -836709.00861735478975 |
           | Smeared ion self corr.     :   -14538.95273137971344 |
           | Solvent cavitation energy  :        2.29857838300751 |
           | Solute-solvent dis-rep en. :       -1.65250546400367 |
           | Total                      :   -11710.68221340678792 |
           --------------------------------------------------------
           ------ LOCAL ENERGY COMPONENTS FROM MATRIX TRACES ------
           | Pseudopotential (local)    :    -5008.76991229956184 |
           | Hartree                    :    -1998.08423486150468 |
           --------------------------------------------------------
           Integrated density           :     7233.99999999817192
           Integrated density tr(KS)    :     7234.00000000000000
================================================================================


                        <<<<< CALCULATION SUMMARY >>>>>                         
|ITER|    RMS GRADIENT   |     TOTAL ENERGY    |   step   |     Epredicted              
   0     0.00004038938943 -11710.62798525602557   0.538905 -11710.67505158517451        
   1     0.00001093394206 -11710.68122894060798   0.095243 -11710.68183855098323        
   2     0.00000259054727 -11710.68221169558819   0.004190 -11710.68221320114208        
   3     0.00000109417606 -11710.68221340666059  <-- CG                                 

=================== Finished the calculation in solvent ========================
= Adjusting the following parameters: 
= read_denskern: F
= read_tightbox_ngwfs: F
= maxit_pen: 0 (restored to user-specified value)
= restart read filename prefix: ""
= restart write filename prefix: ""
================================================================================

================================================================================
IS: Calculation in solvent completed (NGWFs converged).      

Individual components of total energy in solvent:     hartree           kcal/mol
- Usual non-electrostatic DFT terms:    -12950.52033224738625    -8126574.026225
- Electrostatic fixed charge energy:      1239.19204592172241      777604.732129
- Apolar cavitation energy:                  2.29857838300751        1442.379681
- Apolar dispersion-repulsion energy:       -1.65250546400367       -1036.962812
 -------------------------------------------------------------------------------
- Total energy in solvent:              -11710.68221340666059    -7348563.877227

Components of total energy in solvent:                hartree           kcal/mol
- Usual non-electrostatic DFT terms:    -12950.52033224738625    -8126574.026225
- Electrostatic energy:                   1239.19204592172241      777604.732129
- Apolar energy terms:                       0.64607291900384         405.416869
 -------------------------------------------------------------------------------
- Total energy in solvent:              -11710.68221340666059    -7348563.877227

Calculation of free energy of solvation:              hartree           kcal/mol
- Total energy in solvent:         (+)  -11710.68221340666059    -7348563.877227
- Total energy in vacuum:          (-)  -11706.60751525196247    -7346006.965587
 -------------------------------------------------------------------------------
- Total free energy of solvation:           -4.07469815469813       -2556.911641

Components of polar term in f.e. of solvation:        hartree           kcal/mol
- Electrostatic:                            -4.92892679306487       -3092.948193
- Change in nonelectrostatic DFT terms:      0.20815571936328         130.619683
 -------------------------------------------------------------------------------
- Polar term in f.e. of solvation:          -4.72077107370160       -2962.328509

Components of free energy of solvation:               hartree           kcal/mol
- Polar term in f.e. of solvation: (+)      -4.72077107370160       -2962.328509
- Apolar (cavitation, dis., rep.): (+)       0.64607291900384         405.416869
 -------------------------------------------------------------------------------
- Total free energy of solvation:           -4.07469815469776       -2556.911641
================================================================================


------------------------------ TIMING INFORMATION ------------------------------
AVERAGE TIME:   66067.066s on     40 node(s)                                    
TOTAL TIME:     66067.068s on     40 node(s)                                    
================= AVERAGE TIMINGS FROM ALL NODES (CUMULATIVE) ==================
|| TAG                                    #calls    cpu time   %total  Gflops ||
|| work_imbalance                       :     1        0.00s   0.000%  ------ ||
|| parallel_prepare_fd_halos_request    :  1953        0.02s   0.000%  ------ ||
|| parallel_prepare_fd_halos_alloc      :  1953        0.05s   0.000%  ------ ||
|| sparse_set_to_garbage                :   218        0.05s   0.000%  ------ ||
|| parallel_prepare_fd_halos_satisfy    :  1953        0.06s   0.000%  ------ ||
|| ngwfs_initialise_from_radial         :     1        0.15s   0.000%  ------ ||
|| basis_extract_function_from_box      :  5398        0.22s   0.000%  ------ ||
|| pseudopotentials_nonlocal_mat        :    32        1.15s   0.002%  ------ ||
|| restart_ngwfs_tightbox_input         :     1        1.23s   0.002%  ------ ||
|| parallel_prepare_fd_halos_comms_imbal:  1953        3.06s   0.005%  ------ ||
|| openbc_locps_radial                  :     1        4.88s   0.007%  ------ ||
|| density_init_guess_real              :     1        7.55s   0.011%  ------ ||
|| restart_kernel_read                  :     1        8.24s   0.012%  ------ ||
|| parallel_prepare_fd_halos_clear      :  1953       13.79s   0.021%  ------ ||
|| sparse_init                          :     2       23.09s   0.035%  ------ ||
|| parallel_prepare_fd_halos_comms_wait :  1953       24.38s   0.037%  ------ ||
|| projectors_func_ovlp_box             :    32       26.66s   0.040%  ------ ||
|| projectors_init_fftbox_recip         :   208       26.77s   0.041%  ------ ||
|| function_ops_brappd_ketppd           :    32       33.52s   0.051%  ------ ||
|| parallel_prepare_fd_halos            :  1953       41.37s   0.063%  ------ ||
|| palser_mano_kernel_optimise          :     1       47.28s   0.072%  ------ ||
|| pseudo_make_structure_factor         :     2       56.91s   0.086%  ------ ||
|| ngwf_gradient_coeffs                 :    16       66.03s   0.100%  ------ ||
|| restart_kernel_write                 :    17       98.50s   0.149%  ------ ||
|| sparse_embed_hotelling_invert_embed  :    32       99.84s   0.151%  ------ ||
|| finite_difference_derivative         :  1953      102.53s   0.155%  ------ ||
|| basis_copy_function_to_box           : 167.4k     110.04s   0.167%  ------ ||
|| openbc_locps_on_grid                 :     2      183.83s   0.278%  ------ ||
|| integrals_kinetic                    :    32      205.15s   0.311%  ------ ||
|| projectors_gradient_batch            :   176      206.80s   0.313%  ------ ||
|| sparse_trace                         :  5021      272.38s   0.412%  ------ ||
|| restart_ngwfs_tightbox_output        :    14      307.26s   0.465%  ------ ||
|| fourier_apply_box_pair               : 47155      311.73s   0.472% 583.819 ||
|| kernel_purify                        :   496      360.37s   0.545%  ------ ||
|| basis_dot_function_with_box          : 19.31M     452.13s   0.684%  ------ ||
|| lnv_gradient_norm                    :   160      597.29s   0.904%  ------ ||
|| kernel_fix                           :   160      598.50s   0.906%  ------ ||
|| hamiltonian_energy_components        :     4      729.25s   1.104%  ------ ||
|| ke_density_batch_grad_apply          :  3564     1026.17s   1.553%  ------ ||
|| basis_add_function_to_box            : 51.51M    1056.79s   1.600%  ------ ||
|| integrals_locpot_mat_els_batch       :  1859     1064.06s   1.611%  ------ ||
|| ke_density_batch_row_sums            :  3564     1379.01s   2.087%  ------ ||
|| density_batch_row_sums               :  3564     1380.48s   2.090%  ------ ||
|| fourier_apply_cell_backward          :  8755     1449.82s   2.194%  82.198 ||
|| fourier_apply_cell_forward           :  8753     1564.73s   2.368%  76.144 ||
|| density_fftbox_deposit_to_cell       : 53136     1615.80s   2.446%  ------ ||
|| ke_density_fftbox_deposit_to_cell    : 53136     1758.91s   2.662%  ------ ||
|| cell_grid_deposit_box_real           : 108.3k    1964.41s   2.973%  ------ ||
|| cell_grid_extract_box_real           : 132.5k    2162.98s   3.274%  ------ ||
|| sparse_product                       :  6504     2204.79s   3.337%  ------ ||
|| ngwf_gradient_build_batch            :   176     2360.04s   3.572%  ------ ||
|| multigrid_prepare_bound_cond         :   325     2467.64s   3.735%  ------ ||
|| ngwf_gradient_batch                  :   176     2673.78s   4.047%  ------ ||
|| ngwf_gradient_lnv                    :    16     2859.74s   4.329%  ------ ||
|| potential_apply_to_ngwf_batch        :  1859     3315.48s   5.018%  ------ ||
|| density_fftbox_interpolate_multiply  : 53136     3646.85s   5.520%  ------ ||
|| xc_energy_potential                  :   325     4103.59s   6.211%  ------ ||
|| integrals_locpot_dbl_grid            :   169     4398.46s   6.658%  ------ ||
|| density_batch_interp_deposit         :  3564     5923.77s   8.966%  ------ ||
|| dl_mg_solver_calls                   :   325     6476.21s   9.802%  ------ ||
|| nlxc_vdw_energy                      :   648     6837.76s  10.350%  ------ ||
|| density_on_dbl_grid                  :   324     7755.25s  11.738%  ------ ||
|| potential_apply_to_fftbox_batch      :  5280     8816.47s  13.345%  ------ ||
|| multigrid_calculate_hartree          :   325     9096.69s  13.769%  ------ ||
|| integrals_div_locpot_grad_functions  :   160    13465.05s  20.381%  ------ ||
|| ke_density_fftbox_interpolate_multipl: 53136    14517.78s  21.974%  ------ ||
|| ke_density_batch_interp_deposit      :  3564    16942.08s  25.644%  ------ ||
|| fourier_apply_box                    : 1.205M   19062.45s  28.853% 807.927 ||
|| ke_density_on_dbl_grid               :   324    19848.28s  30.043%  ------ ||
|| hamiltonian_lhxc_calculate           :   320    40773.92s  61.716%  ------ ||
|| lnv_denskernel_optimise_cg           :    16    58793.25s  88.990%  ------ ||
|| ngwf_cg_optimise                     :     2    65250.33s  98.764%  ------ ||
|| total_time                           :     1    66067.07s 100.000%  ------ ||
================================================================================
Overhead of generating timer report: 
- 0 ms averaging over threads,
- 7 ms ensuring consistency across MPI ranks,
- 0 ms printing in order.

Job completed: 13-04-2020 11:50 (+0100)

