 +---------------------------------------------------------------+
 |                                                               |
 |        ####### #     # ####### ####### ####### ######         |
 |        #     # ##    # #          #    #       #     #        |
 |        #     # # #   # #          #    #       #     #        |
 |        #     # #  #  # #####      #    #####   ######         |
 |        #     # #   # # #          #    #       #              |
 |        #     # #    ## #          #    #       #              |
 |        ####### #     # #######    #    ####### #              |
 |                                                               |
 |        Linear-Scaling Ab Initio Total Energy Program          |
 |                                                               |
 |          Release for academic collaborators of ODG            |
 |                                             Version 5.3.2.6.  |
 |                                                               |
 +---------------------------------------------------------------+
 |                                                               |
 |  Authors:                                                     |
 |  Jacek Dziedzic, Peter D. Haynes, Nicholas D. M. Hine,        |
 |  Arash. A. Mostofi, Mike C. Payne and Chris-Kriton Skylaris   |
 |                                                               |
 |  Contributors:                                                |
 |  J. Aarons, L. Andrinopoulos, P. W. Avraam, R. A. Bell,       |
 |  A. Bhandari, G. A. Bramley, R. J. Charlton, S. J. Clark,     |
 |  R. J. Clements, G. C. Constantinescu, F. Corsetti,           |
 |  N. Corsini, O. Dieguez, S. M. M. Dubois, K. K. B. Duff,      |
 |  J. M. Escartin, A. Greco, H. Helal, Q. O. Hill, L. P. Lee,   |
 |  J.-H. Li, E. B. Linscott, G. Moynihan, D. D. O`Regan,        |
 |  O. K. Okan, M. J. S. Phipps, C. J. Pickard,                  |
 |  J. C. A. Prentice, M. I. J. Probert, L. E. Ratcliff,         |
 |  M. Robinson, A. Ruiz Serrano, J. S. Spencer, E. W. Tait,     |
 |  G. Teobaldi, D. Turban, V. Vitale, K. A. Wilkinson,          |
 |  C. Weber, J. C. Womack, N. Yeung and T. J. Zuehlsdorff       |
 |                                                               |
 |                                   Copyright (c) 2004-2019     |
 |                                                               |
 |  Please cite:                                                 |
 |  "Introducing ONETEP: Linear-scaling density functional       |
 |   simulations on parallel computers".                         |
 |   C.-K. Skylaris, P. D. Haynes, A. A. Mostofi, M. C. Payne.   |
 |   J. Chem. Phys. 122 084119 (2005).                           |
 |                                                               |
 |          in all publications arising from your use of ONETEP. |
 |                                                               |
 +---------------------------------------------------------------+
 |                                                               |
 |   ONETEP is based on developments described in the following  |
 |   publications:                                               |
 |                                                               |
 |  "Nonorthogonal generalized Wannier function pseudopotential  |
 |   plane-wave method".                                         |
 |   C.-K. Skylaris, A. A. Mostofi, P. D. Haynes, O. Dieguez,    |
 |   M. C. Payne.                                                |
 |   Phys. Rev. B 66 035119 (2002).                              |
 |                                                               |
 |  "Preconditioned iterative minimization for linear-scaling    |
 |   electronic structure calculations".                         |
 |   A. A. Mostofi, P. D. Haynes, C.-K. Skylaris, M. C. Payne.   |
 |   J. Chem. Phys. 119(17), pp.8842-8848 (2003).                |
 |                                                               |
 |  "Total-energy calculations on a real space grid with         |
 |   localized functions and a plane-wave basis".                |
 |   A. A. Mostofi, C.-K. Skylaris, P. D. Haynes, M. C. Payne.   |
 |   Comput. Phys. Commun. 147, pp.788-802 (2002).               |
 |                                                               |
 |  "Accurate kinetic energy evaluation in electronic structure  |
 |   calculations with localized functions on real space grids"  |
 |   C.-K. Skylaris, A. A. Mostofi, P. D. Haynes, C. J. Pickard, |
 |   M. C. Payne.                                                |
 |   Comput. Phys. Commun. 140, pp.315-322 (2001).               |
 |                                                               |
 |  "Accurate ionic forces and geometry optimization in linear-  |
 |   scaling density-functional theory with local orbitals"      |
 |   N. D. M. Hine, M. Robinson, P. D. Haynes, C.-K. Skylaris,   |
 |   M. C. Payne, and A. A. Mostofi.                             |
 |   Phys. Rev. B 83 195102 (2011).                              |
 |                                                               |
 +---------------------------------------------------------------+

Job started: 16-02-2020 21:51 (-0000)
 
Reading parameters from file "complex_12641.dat" ...... done

If your calculation crashes here, before "Checking processes and threads..."
is displayed, then your stack size is insufficient.
If so, use "ulimit -s unlimited" at runtime.
You can disable this check with "check_stack_size F".

Checking processes and threads...
   Determining the default number of threads...
      No default threads set at compilation time: defaulting to 1.
      OpenMP library call suggests 4 threads.
      Hybrid MPI-OpenMP compilation detected.
      Number of MPI processes > 1.
      OMP_NUM_THREADS environment variable present and
      its value matches the one obtained from the OpenMP library call.
      Using this value as default.
      Default threads: 4
      Default applies to threads_max and threads_num_fftboxes.
      Settings in the input file override this default.
   ... done

   Running with 40 MPI processes.
   There are 10 MPI processes running on the same node as the root process.
   Each MPI process is using: 
               1 threads for simulation cell FFTs.
               1 threads for parallel FFT box operations.
               4 threads for loops over batched FFT box operations.
               4 threads in other parallel regions.
... done

Basic input checks...... done

Reading geometry and species blocks from file "complex_12641.dat" ...
  <species_atomic_set> block not found: NGWF initialisation set to SOLVE
IS: Dielectric excluded regions:
    - NONE.
    
  Number of PPD points along a3 set to 1.  This is 
  the default value, it may have been provided also in the input file.
... done
 Writing xyz coordinates to file "complex_12641.xyz" ... done


--------------------------------------------------------------------------------
---------------------------------- INPUT FILE ----------------------------------
--------------------------------------------------------------------------------

cutoff_energy       : 800 eV                                                    
xc_functional B97M-V                                                            
task SINGLEPOINT                                                                
write_xyz true                                                                  
output_detail VERBOSE                                                           
ngwf_threshold_orig : 0.000002                                                  
kernel_cutoff       : 1000                                                      
k_zero              : 3.5                                                       
elec_cg_max 0                                                                   
occ_mix 1.0                                                                     
dispersion 0                                                                    
maxit_ngwf_cg 40                                                                
minit_lnv 10                                                                    
maxit_lnv 10                                                                    
write_denskern T                                                                
write_tightbox_ngwfs T                                                          
charge 9                                                                        
is_implicit_solvent T                                                           
is_auto_solvation T                                                             
is_include_apolar T                                                             
is_smeared_ion_rep T                                                            
is_solvent_surf_tension 4.7624E-5 Ha/bohr**2                                    
is_apolar_scaling_factor 0.281075                                               
is_solvation_beta 1.3                                                           
is_density_threshold 0.00035                                                    
is_bulk_permittivity 78.54                                                      
is_dielectric_model fix_initial                                                 
is_smeared_ion_width 0.8                                                        
mg_defco_fd_order 8                                                             
is_bc_coarseness 10                                                             
is_bc_surface_coarseness 1                                                      
fine_grid_scale 2.0                                                             
%block species                                                                  
N   N   7 4 8.0                                                                 
H   H   1 1 8.0                                                                 
C   C   6 4 8.0                                                                 
S   S  16 9 8.0                                                                 
O   O   8 4 8.0                                                                 
%endblock species                                                               
%block species_pot                                                              
N   N_00.recpot                                                                 
H   H_04.recpot                                                                 
C   C_01.recpot                                                                 
S   S_00.recpot                                                                 
O   O_02.recpot                                                                 
%endblock species_pot                                                           
%block lattice_cart                                                             
139.252   0.000   0.000                                                         
0.000 142.425   0.000                                                           
0.000   0.000   162.84                                                          
%endblock lattice_cart                                                          
%block positions_abs                                                            
     Hash =  -000008666832625466400454
%endblock positions_abs                                                         

--------------------------------------------------------------------------------
-------------------------------- END INPUT FILE --------------------------------
--------------------------------------------------------------------------------


 
 ESDF WARNING(1): "kernelcutoff" (esdf_physical) has no units. Assume "bohr".
 ESDF WARNING(2): "kzero" (esdf_physical) has no units. Assume "1/bohr".
 ESDF WARNING(3
 ): "issmearedionwidth" (esdf_physical) has no units. Assume "bohr".
<<<<<<<<<<<<<<<<<<<<<<<<<<<<<<<<< Full system >>>>>>>>>>>>>>>>>>>>>>>>>>>>>>>>>>
<<<<<<<<<<<<<<<<<<<<<<<<< Pseudopotential information >>>>>>>>>>>>>>>>>>>>>>>>>>
File: N_00.recpot [ 2001 points up to Gmax=  52.9 (1/bohr)]
  Atomic number:  7;  ionic charge:  5.000000
    Shell 1: l = 0; rc = 1.48 bohr
File: H_04.recpot [ 2001 points up to Gmax=  52.9 (1/bohr)]
  Atomic number:  1;  ionic charge:  1.000000
    Local potential
File: C_01.recpot [ 2001 points up to Gmax=  52.9 (1/bohr)]
  Atomic number:  6;  ionic charge:  4.000000
    Shell 1: l = 0; rc = 1.48 bohr
File: S_00.recpot [ 2001 points up to Gmax=  52.9 (1/bohr)]
  Atomic number: 16;  ionic charge:  6.000000
    Shell 1: l = 0; rc = 1.90 bohr
    Shell 2: l = 2; rc = 1.84 bohr
File: O_02.recpot [ 2001 points up to Gmax=  52.9 (1/bohr)]
  Atomic number:  8;  ionic charge:  6.000000
    Shell 1: l = 0; rc = 1.31 bohr
<<<<<<<<<<<<<<<<<<<<<<<<<<<<<<<<<<<<<<<<>>>>>>>>>>>>>>>>>>>>>>>>>>>>>>>>>>>>>>>>

-------------------------- Atom counting information ---------------------------
Symbol    Natoms    Nngwfs    Nprojs
  N        237       948       237
  H       1318      1318         0
  C        816      3264       816
  S          6        54        36
  O        240       960       240
.......   ......    ......    ......
Totals:   2617      6544      1329
--------------------------------------------------------------------------------

=============================== PSINC grid sizes ===============================
                      Simulation cell:  275 x 280 x 320
                              FFT-box:   99 x  99 x  99
                                  PPD:    5 x   5 x   1
Grid space d1=  0.506370909091a0 (KE cutoff=  29.62556Eh = 806.15239eV)
Grid space d2=  0.508660714286a0 (KE cutoff=  29.35943Eh = 798.91072eV)
Grid space d3=  0.508875000000a0 (KE cutoff=  29.33471Eh = 798.23802eV)
================================================================================

********************* Fourier parallelisation information **********************
       Coarse grid (whole simulation cell) dimensions:    275   280   320
          Real-space ('12') slabs/node (min max mean):      8     8     8
         Recip-space ('23') slabs/node (min max mean):      3     4     3
********************************************************************************

********************* Fourier parallelisation information **********************
       Double grid (whole simulation cell) dimensions:    550   560   640
          Real-space ('12') slabs/node (min max mean):     16    16    16
         Recip-space ('23') slabs/node (min max mean):      6     7     6
********************************************************************************
ONETEP fine grid is 550 x 560 x 640 gridpoints, 139.2520 x 142.4250 x 162.8400 bohr.
FD multigrid is     545 x 553 x 633 gridpoints, 137.9861 x 140.6447 x 161.0589 bohr.


Calculating local pseudopotential in open BC on a radial grid ...
Discrepancy between calculated realspace psloc and -Z/x on [5a0,257.280a0]:
max |rel. diff| # avg |rel. diff| #  avg rel. diff #  f # pseudopotential file
 0.000256370913    0.000003612608   0.000000072509   55  'N_00.recpot'
 0.000395389207    0.000016224277  -0.000000076597   55  'H_04.recpot'
 0.000377360759    0.000017565724   0.000000149252   55  'C_01.recpot'
 0.000469715301    0.000020587835   0.000000455518   55  'S_00.recpot'
 0.000665442002    0.000026079317   0.000000158685   55  'O_02.recpot'
... done
 WARNING: meta-GGA functionality under development.
          Using this functional is experimental.
          Minimum tau threshold, xc_min_tau =   1.00000000E-12
 WARNING: Using alternative XC functional PBE for 
          radial densities (xc_radial).

Atom SCF Calculation for N  : Z (AE atom) =   7 : Z (PS atom) =   5
Config String:
Orbitals (num,occ):  2     2.00 3.00
Orbitals   (num,l):  2        0    1
Real-space Grid (nr,dr,rmax): 1203    0.0066555740    8.0000000000
Spherical Bessel Basis (nsws,lmax,cutoff):   47    1  176.3951722778
Confining potential (l,width,scale):  0    3.0000000000  100.0000000000
Confining potential (l,width,scale):  1    3.0000000000  100.0000000000
  1         -4.7312375307   -3.4155304497    7.0523828109   -1.9351020946
  2         -9.7309464766   -2.0532547791    8.2966052865   -2.2494486027
  3         -9.6627394379   -2.1124926340    8.2327997121   -2.2369778124
  4         -9.6814993499   -2.1215521045    8.2229805960   -2.2365178421
  5         -9.6843326483   -2.1250939529    8.2191374534   -2.2362718126
  6         -9.6859628709   -2.1267894855    8.2172963573   -2.2362066344
  7         -9.6867347035   -2.1276425665    8.2163697352   -2.2361903369
  8         -9.6870802100   -2.1280764625    8.2158983890   -2.2361891460
  9         -9.6872290423   -2.1282977424    8.2156580222   -2.2361920435
 10         -9.6872901988   -2.1284107021    8.2155353368   -2.2361953393
 11         -9.6873135296   -2.1284684031    8.2154726809   -2.2361979819
 12         -9.6873212476   -2.1284978948    8.2154406648   -2.2361998431
 13         -9.6873229586   -2.1285129774    8.2154242957   -2.2362010676
 14         -9.6873226456   -2.1285206957    8.2154159216   -2.2362018403
 15         -9.6873218534   -2.1285246479    8.2154116349   -2.2362023142
 16         -9.6873212599   -2.1285262679    8.2154098784   -2.2362025420
 17         -9.6873207834   -2.1285272564    8.2154088068   -2.2362026955
 18         -9.6873204210   -2.1285278597    8.2154081529   -2.2362027982
 19         -9.6873201550   -2.1285282280    8.2154077538   -2.2362028667
 20         -9.6873199645   -2.1285284529    8.2154075102   -2.2362029121
 21         -9.6873198305   -2.1285285903    8.2154073614   -2.2362029421
 22         -9.6873197377   -2.1285286742    8.2154072705   -2.2362029618
Atom SCF converged after  22 iterations to a total energy of     -9.68731974

Atom SCF Calculation for H  : Z (AE atom) =   1 : Z (PS atom) =   1
Config String:
Orbitals (num,occ):  1     1.00
Orbitals   (num,l):  1        0
Real-space Grid (nr,dr,rmax): 1203    0.0066555740    8.0000000000
Spherical Bessel Basis (nsws,lmax,cutoff):   47    0  176.3951722778
Confining potential (l,width,scale):  0    3.0000000000  100.0000000000
  1         -0.3194257691   -0.2393854593    0.2820953124   -0.2424203209
  2         -0.3951823392   -0.2377116493    0.2886404059   -0.2475147891
  3         -0.4317044583   -0.2352244387    0.2921333887   -0.2514046172
  4         -0.4470703708   -0.2341892222    0.2934391879   -0.2531009782
  5         -0.4532132900   -0.2338556667    0.2938388426   -0.2537313520
  6         -0.4556579251   -0.2337612552    0.2939448584   -0.2539550462
  7         -0.4566418315   -0.2337377355    0.2939680120   -0.2540342273
  8         -0.4570437922   -0.2337331116    0.2939708287   -0.2540627372
  9         -0.4572102946   -0.2337328328    0.2939698291   -0.2540732650
 10         -0.4572800424   -0.2337332404    0.2939687193   -0.2540772588
 11         -0.4573095100   -0.2337335791    0.2939680317   -0.2540788122
 12         -0.4573220379   -0.2337337762    0.2939676699   -0.2540794294
 13         -0.4573273880   -0.2337338775    0.2939674931   -0.2540796787
 14         -0.4573296803   -0.2337339266    0.2939674099   -0.2540797808
 15         -0.4573306647   -0.2337339495    0.2939673718   -0.2540798230
 16         -0.4573310882   -0.2337339601    0.2939673545   -0.2540798406
 17         -0.4573312706   -0.2337339649    0.2939673467   -0.2540798479
 18         -0.4573313493   -0.2337339670    0.2939673433   -0.2540798510
Atom SCF converged after  18 iterations to a total energy of     -0.45733135

Atom SCF Calculation for C  : Z (AE atom) =   6 : Z (PS atom) =   4
Config String:
Orbitals (num,occ):  2     2.00 2.00
Orbitals   (num,l):  2        0    1
Real-space Grid (nr,dr,rmax): 1203    0.0066555740    8.0000000000
Spherical Bessel Basis (nsws,lmax,cutoff):   47    1  176.3951722778
Confining potential (l,width,scale):  0    3.0000000000  100.0000000000
Confining potential (l,width,scale):  1    3.0000000000  100.0000000000
  1         -5.2976922011   -1.3069684169    4.5135249990   -1.4493313817
  2         -5.3721716256   -1.3429755895    4.4750154450   -1.4361613026
  3         -5.3809959565   -1.3617365618    4.4541655428   -1.4305930207
  4         -5.3918938866   -1.3667928461    4.4484735100   -1.4294652294
  5         -5.3956096428   -1.3688539142    4.4461376126   -1.4290734646
  6         -5.3968271862   -1.3696852393    4.4451910874   -1.4289366866
  7         -5.3972028401   -1.3700178062    4.4448112275   -1.4288900460
  8         -5.3973067903   -1.3701500158    4.4446598370   -1.4288749220
  9         -5.3973286940   -1.3702023868    4.4445997329   -1.4288704293
 10         -5.3973289850   -1.3702230869    4.4445759233   -1.4288693188
 11         -5.3973254264   -1.3702312560    4.4445665049   -1.4288691775
 12         -5.3973224003   -1.3702344755    4.4445627836   -1.4288692549
 13         -5.3973208708   -1.3702354890    4.4445616088   -1.4288693270
 14         -5.3973198783   -1.3702360102    4.4445610034   -1.4288693814
 15         -5.3973192535   -1.3702362780    4.4445606917   -1.4288694190
 16         -5.3973188684   -1.3702364155    4.4445605313   -1.4288694437
 17         -5.3973186349   -1.3702364860    4.4445604489   -1.4288694595
 18         -5.3973184951   -1.3702365221    4.4445604065   -1.4288694693
 19         -5.3973184122   -1.3702365405    4.4445603848   -1.4288694753
Atom SCF converged after  19 iterations to a total energy of     -5.39731841

Atom SCF Calculation for S  : Z (AE atom) =  16 : Z (PS atom) =   6
Config String:
Orbitals (num,occ):  3     2.00 4.00 0.00
Orbitals   (num,l):  3        0    1    2
Real-space Grid (nr,dr,rmax): 1203    0.0066555740    8.0000000000
Spherical Bessel Basis (nsws,lmax,cutoff):   47    2  176.3951722778
Confining potential (l,width,scale):  0    3.0000000000  100.0000000000
Confining potential (l,width,scale):  1    3.0000000000  100.0000000000
Confining potential (l,width,scale):  2    3.0000000000  100.0000000000
  1        -12.4735062396   -1.0328741412   10.1554312477   -2.4512393157
  2         -9.9458301913   -2.4607392455    8.3041325857   -2.0306994528
  3        -10.1450417646   -2.2931184565    8.4831893826   -2.0812538287
  4        -10.1528335592   -2.2733105793    8.5050388867   -2.0896035179
  5        -10.1571940363   -2.2633716629    8.5160794258   -2.0939370707
  6        -10.1594380571   -2.2584938667    8.5215163935   -2.0961289008
  7        -10.1605856507   -2.2561081821    8.5241804044   -2.0972291378
  8        -10.1611799191   -2.2549395235    8.5254868240   -2.0977806248
  9        -10.1614918752   -2.2543658586    8.5261285885   -2.0980571586
 10        -10.1616572884   -2.2540839121    8.5264441898   -2.0981959233
 11        -10.1617455602   -2.2539453058    8.5265994231   -2.0982656006
 12        -10.1617928447   -2.2538772062    8.5266757320   -2.0983006047
 13        -10.1618182292   -2.2538437891    8.5267131983   -2.0983181961
 14        -10.1618318741   -2.2538274201    8.5267315620   -2.0983270391
 15        -10.1618392144   -2.2538194197    8.5267405433   -2.0983314852
 16        -10.1618431651   -2.2538155200    8.5267449245   -2.0983337210
 17        -10.1618452923   -2.2538136252    8.5267470551   -2.0983348455
 18        -10.1618464380   -2.2538127080    8.5267480875   -2.0983354110
 19        -10.1618470552   -2.2538122659    8.5267485856   -2.0983356955
 20        -10.1618473878   -2.2538120540    8.5267488248   -2.0983358386
 21        -10.1618475670   -2.2538119530    8.5267489389   -2.0983359106
 22        -10.1618476637   -2.2538119053    8.5267489929   -2.0983359468
Atom SCF converged after  22 iterations to a total energy of    -10.16184766

Atom SCF Calculation for O  : Z (AE atom) =   8 : Z (PS atom) =   6
Config String:
Orbitals (num,occ):  2     2.00 4.00
Orbitals   (num,l):  2        0    1
Real-space Grid (nr,dr,rmax): 1203    0.0066555740    8.0000000000
Spherical Bessel Basis (nsws,lmax,cutoff):   47    1  176.3951722778
Confining potential (l,width,scale):  0    3.0000000000  100.0000000000
Confining potential (l,width,scale):  1    3.0000000000  100.0000000000
  1         -1.8735052164   -7.5539365035   10.1554312477   -2.4512393157
  2        -16.0318313751   -3.1285771268   13.6395848164   -3.2358799643
  3        -15.9524020423   -3.0762819706   13.6967272503   -3.2536856837
  4        -15.8521515939   -3.0781493909   13.6951909330   -3.2561700440
  5        -15.8357139793   -3.0748501933   13.6988803334   -3.2580493133
  6        -15.8246052853   -3.0740779781   13.6997881576   -3.2588327446
  7        -15.8189019501   -3.0737449687   13.7001869911   -3.2592378801
  8        -15.8159785510   -3.0736026016   13.7003615168   -3.2594475790
  9        -15.8144776168   -3.0735437994   13.7004360379   -3.2595560735
 10        -15.8137058024   -3.0735207882   13.7004667348   -3.2596122456
 11        -15.8133083127   -3.0735125946   13.7004786868   -3.2596413656
 12        -15.8131032938   -3.0735102195   13.7004828997   -3.2596564858
 13        -15.8129973902   -3.0735099286   13.7004840891   -3.2596643505
 14        -15.8129426040   -3.0735102506   13.7004842061   -3.2596684489
 15        -15.8129142203   -3.0735106556   13.7004840157   -3.2596705887
 16        -15.8128994940   -3.0735109855   13.7004837906   -3.2596717080
 17        -15.8128918425   -3.0735112169   13.7004836103   -3.2596722946
 18        -15.8128878614   -3.0735113674   13.7004834848   -3.2596726026
 19        -15.8128857871   -3.0735114608   13.7004834035   -3.2596727646
 20        -15.8128847048   -3.0735115170   13.7004833533   -3.2596728500
 21        -15.8128841394   -3.0735115501   13.7004833231   -3.2596728951
 22        -15.8128838436   -3.0735115693   13.7004833054   -3.2596729190
 23        -15.8128836887   -3.0735115802   13.7004832951   -3.2596729316
 24        -15.8128836074   -3.0735115864   13.7004832893   -3.2596729383
Atom SCF converged after  24 iterations to a total energy of    -15.81288361

========================== Calculation in vacuum ==============================
= Adjusting the following parameters: 
= is_implicit_solvent: F
= is_include_apolar: F
= write_denskern: T
= write_tightbox_ngwfs: T
= restart read filename prefix: ""
= restart write filename prefix: "vacuum_"
===============================================================================

Determining parallel strategy ...
... using space-filling curve
... NGWF load balancing: max    164;  min    163;  average    164
... Projector load balancing: max     36;  min     32;  average     33
... done
Calculating direct Ion-Ion energy ...
Ion-Ion Energy        :    835263.82343200908508
Basis initialisation ...... NGWF spheres initialised
... Projector spheres initialised
... NGWF tight boxes initialised
... Tight-boxes gathered
... NGWF basis size (local,global):    1797320  71782584
... Nonlocal pseudopotential projector initialisation
... done

========================== Sparse matrix information ===========================
                        Overlap matrix filling:   6.76%
                        Density kernel filling: 100.00%
              NGWF-Proj overlap matrix filling:   1.77%
                    Hamiltonian matrix filling:   7.63%
                  NGWF diagonal matrix filling:   0.05%
                             KS matrix filling: 100.00% 
                           KSKS matrix filling: 100.00% 
================================================================================

Sparse matrix initialisation ... done

Generating smeared ion density ... done
Smeared ion self correction:     -14538.952731
Smeared ion non-self correction: -835215.477654
NGWF initialisation ...... done
============ Calculation of NGWF S^-1 using Hotelling algorithm ================ 
         Iteration  |  Frobenius norm and Maximum abs value    (of I-S*S_n^-1)   
               1       0.78818485E+02     0.98354314E+00
               2       0.77036035E+02     0.96747243E+00
               3       0.74123891E+02     0.93642501E+00
               4       0.69938936E+02     0.87832591E+00
               5       0.64678824E+02     0.77750503E+00
               6       0.58726065E+02     0.70719462E+00
               7       0.52687458E+02     0.67254928E+00
               8       0.47103944E+02     0.64822573E+00
               9       0.41128689E+02     0.61057509E+00
              10       0.33044746E+02     0.54507606E+00
              11       0.22575798E+02     0.43733717E+00
              12       0.11838145E+02     0.28642385E+00
              13       0.40749172E+01     0.13816520E+00
              14       0.69844391E+00     0.36642139E-01
              15       0.39184693E-01     0.32408239E-02
              16       0.30057366E-03     0.34088310E-04
              17       0.30703862E-07     0.46013906E-08
              18       0.10326246E-12     0.51070259E-14
================================================================================
Calculating local pseudopotential in open BC on the fine real space grid ...
... done

MG BCs: +ve charge blocks (gridpoints):     20041 (   15709653).
MG BCs: -ve charge blocks (gridpoints):      7919 (    1062337).
MG BCs:     Elided blocks (gridpoints):    177079 (  174004715).
MG BCs: Computational effort saved:  99.9853%.
MG BCs: Charge after coarse-graining:           -9.0002233.
MG DL_MG: Calling solver with defect correction order = 8
MG DL_MG: Solver finished
MG Hartree energy from (\int phi*rho dr):              1471.558214
MG Hartree energy from (\int eps (grad phi)^2 dr):     1470.933899
MG Discrepancy due to finite box and discretization:     -0.624315 (  -0.04243%)
MG Correction to account for finite box:                  0.463819
MG Remaining discrepancy, due to discretization:         -0.160495 (  -0.01091%)
 WARNING: xc_energy_potential using alternative initial XC functional PBE.
Up spin density kernel initialisation ... 
======= Optimisation of K by Palser-Manolopoulos canonical purification ======== 
         Iteration  |  Band structure energy |    c_n   
               1       -2598.05839881737211    0.5263894
               2       -2775.01371881285559    0.5167534
               3       -2955.78117912464995    0.5153901
               4       -3105.95556527499321    0.5291974
               5       -3197.67134608955621    0.5654015
               6       -3235.77097027518994    0.6102559
               7       -3248.71765241558387    0.6226766
               8       -3254.33788480482326    0.6224964
               9       -3257.06688580109949    0.6379657
              10       -3258.21378545403741    0.6690114
              11       -3258.66096543140475    0.7024036
              12       -3258.84876227156929    0.7279256
              13       -3258.93921983643895    0.7257619
              14       -3258.99348627668314    0.6860729
              15       -3259.03396763119235    0.6252929
              16       -3259.06318861043655    0.5526100
              17       -3259.07987411300974    0.4964257
              18       -3259.08495541955062    0.4912881
              19       -3259.08586794874918    0.4979467
              20       -3259.08626894361078    0.4998111
              21       -3259.08637046439526    0.4999994
              22       -3259.08637715127497    0.5000002
              23       -3259.08637717840656    0.5000002
Termination criterion satisfied: band energy change below threshold.
Final occupancy bounds: [    0.00000000000004:    0.99999999999999]
Closest occupancy to 0.5:     0.99999999999997
================================================================================
... done

Writing density kernel to file "complex_12641.vacuum_dkn" ... done

>>> Optimising kernel for current NGWFs:
   Initial electron number for spin 1:    7234.00000000
     Final electron number for spin 1:    7234.00000000

=================== Penalty functional idempotency correction ==================
 RMS occupancy error at iteration   1:  0.000000 (step -0.5000 Ne1=   7234.0000)
            Final RMS occupancy error   :  0.000000 (Ne1=   7234.0000)
               Final occupancy bounds   : [ -0.0000,  1.0000]
================================================================================

................................................................................
<<<<<<<<<<<<<< LNV (Original version) density kernel optimisation >>>>>>>>>>>>>>
~~~~~~~~~~~~~~~~~~~~~~~~~~~~~~~~~~~~~~~~~~~~~~~~~~~~~~~~~~~~~~~~~~~~~~~~~~~~~~~~
   iter  |      energy (Eh)       | rms gradient |  commutator  |   dE (Eh)
MG BCs: +ve charge blocks (gridpoints):     30723 (   16917251).
MG BCs: -ve charge blocks (gridpoints):      8247 (    1094636).
MG BCs:     Elided blocks (gridpoints):    166386 (  172764818).
MG BCs: Computational effort saved:  99.9796%.
MG BCs: Charge after coarse-graining:           -9.0009447.
MG DL_MG: Calling solver with defect correction order = 8
MG DL_MG: Solver finished
MG Hartree energy from (\int phi*rho dr):              1424.639590
MG Hartree energy from (\int eps (grad phi)^2 dr):     1423.963229
MG Discrepancy due to finite box and discretization:     -0.676361 (  -0.04748%)
MG Correction to account for finite box:                  0.470533
MG Remaining discrepancy, due to discretization:         -0.205828 (  -0.01445%)
      ideal mu1:      -0.740711910288
             Q0:  -11533.856467496371
             G0:    -124.107459023354
   RMS gradient:       0.001702376640
MG BCs: +ve charge blocks (gridpoints):     30738 (   17001280).
MG BCs: -ve charge blocks (gridpoints):      8131 (    1072292).
MG BCs:     Elided blocks (gridpoints):    166372 (  172703133).
MG BCs: Computational effort saved:  99.9796%.
MG BCs: Charge after coarse-graining:           -9.0009666.
MG DL_MG: Calling solver with defect correction order = 8
MG DL_MG: Solver finished
MG Hartree energy from (\int phi*rho dr):              1447.526912
MG Hartree energy from (\int eps (grad phi)^2 dr):     1446.868003
MG Discrepancy due to finite box and discretization:     -0.658909 (  -0.04552%)
MG Correction to account for finite box:                  0.469388
MG Remaining discrepancy, due to discretization:         -0.189521 (  -0.01309%)
     Trial step:       0.500000000000
             Q1:  -11545.741207608837
 Quadratic coef:      50.168989399212
 Linear coef   :     -62.053729511677
           Qmin:  -11553.044941254868
Quadratic minimum step length (  0.309223537562) accepted
    Initial Ne1:    7234.00000000
      Final Ne1:    7234.00000000

=================== Penalty functional idempotency correction ==================
 RMS occupancy error at iteration   1:  0.003108 (step -0.4895 Ne1=   7234.0000)
 RMS occupancy error at iteration   2:  0.000022 (step -0.5000 Ne1=   7234.0000)
            Final RMS occupancy error   :  0.000000 (Ne1=   7234.0000)
               Final occupancy bounds   : [  0.0000,  1.0000]
================================================================================

    1        -1.153385646750E+04     1.7024E-03     1.5400E-03
MG BCs: +ve charge blocks (gridpoints):     30733 (   16970751).
MG BCs: -ve charge blocks (gridpoints):      8173 (    1081175).
MG BCs:     Elided blocks (gridpoints):    166377 (  172724779).
MG BCs: Computational effort saved:  99.9796%.
MG BCs: Charge after coarse-graining:           -9.0009583.
MG DL_MG: Calling solver with defect correction order = 8
MG DL_MG: Solver finished
MG Hartree energy from (\int phi*rho dr):              1432.299213
MG Hartree energy from (\int eps (grad phi)^2 dr):     1431.634511
MG Discrepancy due to finite box and discretization:     -0.664702 (  -0.04641%)
MG Correction to account for finite box:                  0.469733
MG Remaining discrepancy, due to discretization:         -0.194968 (  -0.01361%)
      ideal mu1:      -0.783393407598
             Q0:  -11553.409407759784
             G0:     -10.920628058543
   RMS gradient:       0.000501433169
MG BCs: +ve charge blocks (gridpoints):     30733 (   16988061).
MG BCs: -ve charge blocks (gridpoints):      8144 (    1074430).
MG BCs:     Elided blocks (gridpoints):    166377 (  172714214).
MG BCs: Computational effort saved:  99.9796%.
MG BCs: Charge after coarse-graining:           -9.0009636.
MG DL_MG: Calling solver with defect correction order = 8
MG DL_MG: Solver finished
MG Hartree energy from (\int phi*rho dr):              1438.035658
MG Hartree energy from (\int eps (grad phi)^2 dr):     1437.374708
MG Discrepancy due to finite box and discretization:     -0.660950 (  -0.04596%)
MG Correction to account for finite box:                  0.469165
MG Remaining discrepancy, due to discretization:         -0.191785 (  -0.01334%)
     Trial step:       0.393207030432
             Q1:  -11555.903794099111
 Quadratic coef:       1.799681390021
 Linear coef   :      -4.294067729348
           Qmin:  -11555.970835822338
Quadratic minimum step length (  0.469099038778) accepted
    Initial Ne1:    7233.99993695
      Final Ne1:    7234.00000000

=================== Penalty functional idempotency correction ==================
 RMS occupancy error at iteration   1:  0.001453 (step -0.4948 Ne1=   7234.0000)
 RMS occupancy error at iteration   2:  0.000006 (step -0.5000 Ne1=   7234.0000)
            Final RMS occupancy error   :  0.000000 (Ne1=   7234.0000)
               Final occupancy bounds   : [  0.0000,  1.0000]
================================================================================

    2        -1.155340940776E+04     5.0143E-04     4.5361E-04    -1.9553E+01
MG BCs: +ve charge blocks (gridpoints):     30736 (   16991287).
MG BCs: -ve charge blocks (gridpoints):      8143 (    1073197).
MG BCs:     Elided blocks (gridpoints):    166374 (  172712221).
MG BCs: Computational effort saved:  99.9796%.
MG BCs: Charge after coarse-graining:           -9.0009647.
MG DL_MG: Calling solver with defect correction order = 8
MG DL_MG: Solver finished
MG Hartree energy from (\int phi*rho dr):              1439.167372
MG Hartree energy from (\int eps (grad phi)^2 dr):     1438.507102
MG Discrepancy due to finite box and discretization:     -0.660270 (  -0.04588%)
MG Correction to account for finite box:                  0.469062
MG Remaining discrepancy, due to discretization:         -0.191208 (  -0.01329%)
      ideal mu1:      -0.805511644281
             Q0:  -11556.002769704326
             G0:      -1.802493486992
   RMS gradient:       0.000203796083
MG BCs: +ve charge blocks (gridpoints):     30734 (   16992457).
MG BCs: -ve charge blocks (gridpoints):      8149 (    1073202).
MG BCs:     Elided blocks (gridpoints):    166376 (  172711046).
MG BCs: Computational effort saved:  99.9796%.
MG BCs: Charge after coarse-graining:           -9.0009647.
MG DL_MG: Calling solver with defect correction order = 8
MG DL_MG: Solver finished
MG Hartree energy from (\int phi*rho dr):              1438.561785
MG Hartree energy from (\int eps (grad phi)^2 dr):     1437.902004
MG Discrepancy due to finite box and discretization:     -0.659781 (  -0.04586%)
MG Correction to account for finite box:                  0.468786
MG Remaining discrepancy, due to discretization:         -0.190995 (  -0.01328%)
     Trial step:       0.429479964627
             Q1:  -11556.462953088805
 Quadratic coef:       0.313951454555
 Linear coef   :      -0.774134839034
           Qmin:  -11556.479981021801
Quadratic minimum step length (  0.529501294645) accepted
    Initial Ne1:    7233.99998070
      Final Ne1:    7234.00000000

=================== Penalty functional idempotency correction ==================
 RMS occupancy error at iteration   1:  0.000552 (step -0.4979 Ne1=   7234.0000)
 RMS occupancy error at iteration   2:  0.000001 (step -0.5000 Ne1=   7234.0000)
            Final RMS occupancy error   :  0.000000 (Ne1=   7234.0000)
               Final occupancy bounds   : [  0.0000,  1.0000]
================================================================================

    3        -1.155600276970E+04     2.0380E-04     1.8436E-04    -2.5934E+00
MG BCs: +ve charge blocks (gridpoints):     30737 (   16992847).
MG BCs: -ve charge blocks (gridpoints):      8150 (    1073125).
MG BCs:     Elided blocks (gridpoints):    166372 (  172710733).
MG BCs: Computational effort saved:  99.9796%.
MG BCs: Charge after coarse-graining:           -9.0009648.
MG DL_MG: Calling solver with defect correction order = 8
MG DL_MG: Solver finished
MG Hartree energy from (\int phi*rho dr):              1438.425479
MG Hartree energy from (\int eps (grad phi)^2 dr):     1437.765800
MG Discrepancy due to finite box and discretization:     -0.659678 (  -0.04586%)
MG Correction to account for finite box:                  0.468723
MG Remaining discrepancy, due to discretization:         -0.190955 (  -0.01328%)
      ideal mu1:      -0.808592578855
             Q0:  -11556.484303685022
             G0:      -0.389918732152
   RMS gradient:       0.000094958293
MG BCs: +ve charge blocks (gridpoints):     30736 (   16993246).
MG BCs: -ve charge blocks (gridpoints):      8152 (    1073031).
MG BCs:     Elided blocks (gridpoints):    166373 (  172710428).
MG BCs: Computational effort saved:  99.9796%.
MG BCs: Charge after coarse-graining:           -9.0009647.
MG DL_MG: Calling solver with defect correction order = 8
MG DL_MG: Solver finished
MG Hartree energy from (\int phi*rho dr):              1439.436097
MG Hartree energy from (\int eps (grad phi)^2 dr):     1438.776311
MG Discrepancy due to finite box and discretization:     -0.659785 (  -0.04584%)
MG Correction to account for finite box:                  0.468658
MG Remaining discrepancy, due to discretization:         -0.191128 (  -0.01328%)
     Trial step:       0.476875452602
             Q1:  -11556.579712270410
 Quadratic coef:       0.090534086485
 Linear coef   :      -0.185942671873
           Qmin:  -11556.579777883098
Quadratic minimum step length (  0.489713318212) accepted
    Initial Ne1:    7233.99999602
      Final Ne1:    7234.00000000

=================== Penalty functional idempotency correction ==================
 RMS occupancy error at iteration   1:  0.000175 (step -0.4993 Ne1=   7234.0000)
            Final RMS occupancy error   :  0.000000 (Ne1=   7234.0000)
               Final occupancy bounds   : [ -0.0000,  1.0000]
================================================================================

    4        -1.155648430369E+04     9.4958E-05     8.5901E-05    -4.8153E-01
MG BCs: +ve charge blocks (gridpoints):     30736 (   16993254).
MG BCs: -ve charge blocks (gridpoints):      8152 (    1073037).
MG BCs:     Elided blocks (gridpoints):    166373 (  172710414).
MG BCs: Computational effort saved:  99.9796%.
MG BCs: Charge after coarse-graining:           -9.0009647.
MG DL_MG: Calling solver with defect correction order = 8
MG DL_MG: Solver finished
MG Hartree energy from (\int phi*rho dr):              1439.463543
MG Hartree energy from (\int eps (grad phi)^2 dr):     1438.803754
MG Discrepancy due to finite box and discretization:     -0.659789 (  -0.04584%)
MG Correction to account for finite box:                  0.468656
MG Remaining discrepancy, due to discretization:         -0.191132 (  -0.01328%)
      ideal mu1:      -0.808333872362
             Q0:  -11556.580174062401
             G0:      -0.100689982407
   RMS gradient:       0.000048391183
MG BCs: +ve charge blocks (gridpoints):     30731 (   16992744).
MG BCs: -ve charge blocks (gridpoints):      8149 (    1073209).
MG BCs:     Elided blocks (gridpoints):    166379 (  172710752).
MG BCs: Computational effort saved:  99.9796%.
MG BCs: Charge after coarse-graining:           -9.0009645.
MG DL_MG: Calling solver with defect correction order = 8
MG DL_MG: Solver finished
MG Hartree energy from (\int phi*rho dr):              1439.178592
MG Hartree energy from (\int eps (grad phi)^2 dr):     1438.518661
MG Discrepancy due to finite box and discretization:     -0.659931 (  -0.04585%)
MG Correction to account for finite box:                  0.468662
MG Remaining discrepancy, due to discretization:         -0.191269 (  -0.01329%)
     Trial step:       0.483251756611
             Q1:  -11556.603599420399
 Quadratic coef:       0.025233252873
 Linear coef   :      -0.048658610871
           Qmin:  -11556.603631803104
Quadratic minimum step length (  0.465939910650) accepted
    Initial Ne1:    7234.00159723
      Final Ne1:    7234.00000000

=================== Penalty functional idempotency correction ==================
 RMS occupancy error at iteration   1:  0.000059 (step -0.4998 Ne1=   7234.0000)
            Final RMS occupancy error   :  0.000000 (Ne1=   7234.0000)
               Final occupancy bounds   : [ -0.0000,  1.0000]
================================================================================

    5        -1.155658017406E+04     4.8391E-05     4.3776E-05    -9.5870E-02
MG BCs: +ve charge blocks (gridpoints):     30731 (   16992761).
MG BCs: -ve charge blocks (gridpoints):      8149 (    1073191).
MG BCs:     Elided blocks (gridpoints):    166379 (  172710753).
MG BCs: Computational effort saved:  99.9796%.
MG BCs: Charge after coarse-graining:           -9.0009645.
MG DL_MG: Calling solver with defect correction order = 8
MG DL_MG: Solver finished
MG Hartree energy from (\int phi*rho dr):              1439.188778
MG Hartree energy from (\int eps (grad phi)^2 dr):     1438.528852
MG Discrepancy due to finite box and discretization:     -0.659926 (  -0.04585%)
MG Correction to account for finite box:                  0.468662
MG Remaining discrepancy, due to discretization:         -0.191264 (  -0.01329%)
      ideal mu1:      -0.807788636766
             Q0:  -11556.603673225385
             G0:      -0.023695224175
   RMS gradient:       0.000023497952
MG BCs: +ve charge blocks (gridpoints):     30730 (   16992624).
MG BCs: -ve charge blocks (gridpoints):      8150 (    1073325).
MG BCs:     Elided blocks (gridpoints):    166380 (  172710756).
MG BCs: Computational effort saved:  99.9796%.
MG BCs: Charge after coarse-graining:           -9.0009644.
MG DL_MG: Calling solver with defect correction order = 8
MG DL_MG: Solver finished
MG Hartree energy from (\int phi*rho dr):              1438.724669
MG Hartree energy from (\int eps (grad phi)^2 dr):     1438.064718
MG Discrepancy due to finite box and discretization:     -0.659951 (  -0.04587%)
MG Correction to account for finite box:                  0.468676
MG Remaining discrepancy, due to discretization:         -0.191275 (  -0.01329%)
     Trial step:       0.474516891476
             Q1:  -11556.610539725283
 Quadratic coef:       0.004377284220
 Linear coef   :      -0.011243784118
           Qmin:  -11556.610893608786
Quadratic minimum step length (  0.609437863757) accepted
    Initial Ne1:    7234.00074180
      Final Ne1:    7234.00000000

=================== Penalty functional idempotency correction ==================
 RMS occupancy error at iteration   1:  0.000024 (step -0.4999 Ne1=   7234.0000)
            Final RMS occupancy error   :  0.000000 (Ne1=   7234.0000)
               Final occupancy bounds   : [ -0.0000,  1.0000]
================================================================================

    6        -1.155660367323E+04     2.3498E-05     2.1257E-05    -2.3499E-02
MG BCs: +ve charge blocks (gridpoints):     30731 (   16992624).
MG BCs: -ve charge blocks (gridpoints):      8151 (    1073357).
MG BCs:     Elided blocks (gridpoints):    166379 (  172710724).
MG BCs: Computational effort saved:  99.9796%.
MG BCs: Charge after coarse-graining:           -9.0009643.
MG DL_MG: Calling solver with defect correction order = 8
MG DL_MG: Solver finished
MG Hartree energy from (\int phi*rho dr):              1438.592563
MG Hartree energy from (\int eps (grad phi)^2 dr):     1437.932604
MG Discrepancy due to finite box and discretization:     -0.659958 (  -0.04588%)
MG Correction to account for finite box:                  0.468680
MG Remaining discrepancy, due to discretization:         -0.191279 (  -0.01330%)
      ideal mu1:      -0.807780858305
             Q0:  -11556.610898710089
             G0:      -0.008636915725
   RMS gradient:       0.000014201560
MG BCs: +ve charge blocks (gridpoints):     30733 (   16993027).
MG BCs: -ve charge blocks (gridpoints):      8148 (    1073122).
MG BCs:     Elided blocks (gridpoints):    166377 (  172710556).
MG BCs: Computational effort saved:  99.9796%.
MG BCs: Charge after coarse-graining:           -9.0009644.
MG DL_MG: Calling solver with defect correction order = 8
MG DL_MG: Solver finished
MG Hartree energy from (\int phi*rho dr):              1439.083587
MG Hartree energy from (\int eps (grad phi)^2 dr):     1438.423629
MG Discrepancy due to finite box and discretization:     -0.659958 (  -0.04586%)
MG Correction to account for finite box:                  0.468673
MG Remaining discrepancy, due to discretization:         -0.191286 (  -0.01329%)
     Trial step:       0.537762550442
             Q1:  -11556.613074925379
 Quadratic coef:       0.002468394538
 Linear coef   :      -0.004644609828
           Qmin:  -11556.613083571558
Quadratic minimum step length (  0.505935576540) accepted
    Initial Ne1:    7234.00004673
      Final Ne1:    7234.00000000

=================== Penalty functional idempotency correction ==================
 RMS occupancy error at iteration   1:  0.000001 (step -0.5000 Ne1=   7234.0000)
            Final RMS occupancy error   :  0.000000 (Ne1=   7234.0000)
               Final occupancy bounds   : [  0.0000,  1.0000]
================================================================================

    7        -1.155661089871E+04     1.4202E-05     1.2847E-05    -7.2255E-03
MG BCs: +ve charge blocks (gridpoints):     30733 (   16992997).
MG BCs: -ve charge blocks (gridpoints):      8149 (    1073138).
MG BCs:     Elided blocks (gridpoints):    166377 (  172710570).
MG BCs: Computational effort saved:  99.9796%.
MG BCs: Charge after coarse-graining:           -9.0009644.
MG DL_MG: Calling solver with defect correction order = 8
MG DL_MG: Solver finished
MG Hartree energy from (\int phi*rho dr):              1439.054503
MG Hartree energy from (\int eps (grad phi)^2 dr):     1438.394545
MG Discrepancy due to finite box and discretization:     -0.659958 (  -0.04586%)
MG Correction to account for finite box:                  0.468673
MG Remaining discrepancy, due to discretization:         -0.191285 (  -0.01329%)
      ideal mu1:      -0.808077235888
             Q0:  -11556.613083590637
             G0:      -0.004460696071
   RMS gradient:       0.000010206208
MG BCs: +ve charge blocks (gridpoints):     30733 (   16993063).
MG BCs: -ve charge blocks (gridpoints):      8147 (    1073095).
MG BCs:     Elided blocks (gridpoints):    166377 (  172710547).
MG BCs: Computational effort saved:  99.9796%.
MG BCs: Charge after coarse-graining:           -9.0009644.
MG DL_MG: Calling solver with defect correction order = 8
MG DL_MG: Solver finished
MG Hartree energy from (\int phi*rho dr):              1439.091268
MG Hartree energy from (\int eps (grad phi)^2 dr):     1438.431325
MG Discrepancy due to finite box and discretization:     -0.659943 (  -0.04586%)
MG Correction to account for finite box:                  0.468664
MG Remaining discrepancy, due to discretization:         -0.191279 (  -0.01329%)
     Trial step:       0.521606370743
             Q1:  -11556.614763225894
 Quadratic coef:       0.000647092231
 Linear coef   :      -0.002326727488
           Qmin:  -11556.615175124327
Quadratic minimum step length (  0.937761128278) accepted
    Initial Ne1:    7234.00004446
      Final Ne1:    7234.00000000

=================== Penalty functional idempotency correction ==================
 RMS occupancy error at iteration   1:  0.000009 (step -0.4997 Ne1=   7234.0000)
            Final RMS occupancy error   :  0.000000 (Ne1=   7234.0000)
               Final occupancy bounds   : [ -0.0000,  1.0000]
================================================================================

    8        -1.155661308359E+04     1.0206E-05     9.2327E-06    -2.1849E-03
MG BCs: +ve charge blocks (gridpoints):     30733 (   16993151).
MG BCs: -ve charge blocks (gridpoints):      8148 (    1073056).
MG BCs:     Elided blocks (gridpoints):    166376 (  172710498).
MG BCs: Computational effort saved:  99.9796%.
MG BCs: Charge after coarse-graining:           -9.0009645.
MG DL_MG: Calling solver with defect correction order = 8
MG DL_MG: Solver finished
MG Hartree energy from (\int phi*rho dr):              1439.120102
MG Hartree energy from (\int eps (grad phi)^2 dr):     1438.460172
MG Discrepancy due to finite box and discretization:     -0.659930 (  -0.04586%)
MG Correction to account for finite box:                  0.468655
MG Remaining discrepancy, due to discretization:         -0.191275 (  -0.01329%)
      ideal mu1:      -0.808142698244
             Q0:  -11556.615173511556
             G0:      -0.005206877456
   RMS gradient:       0.000011035402
MG BCs: +ve charge blocks (gridpoints):     30733 (   16992975).
MG BCs: -ve charge blocks (gridpoints):      8148 (    1073136).
MG BCs:     Elided blocks (gridpoints):    166377 (  172710594).
MG BCs: Computational effort saved:  99.9796%.
MG BCs: Charge after coarse-graining:           -9.0009645.
MG DL_MG: Calling solver with defect correction order = 8
MG DL_MG: Solver finished
MG Hartree energy from (\int phi*rho dr):              1438.866190
MG Hartree energy from (\int eps (grad phi)^2 dr):     1438.206281
MG Discrepancy due to finite box and discretization:     -0.659909 (  -0.04586%)
MG Correction to account for finite box:                  0.468646
MG Remaining discrepancy, due to discretization:         -0.191263 (  -0.01329%)
     Trial step:       0.699387002127
             Q1:  -11556.617330297246
 Quadratic coef:       0.001484836725
 Linear coef   :      -0.003641622414
           Qmin:  -11556.617406318301
Quadratic minimum step length (  0.857637523763) accepted
    Initial Ne1:    7234.00007913
      Final Ne1:    7234.00000000

=================== Penalty functional idempotency correction ==================
 RMS occupancy error at iteration   1:  0.000035 (step -0.4989 Ne1=   7234.0000)
            Final RMS occupancy error   :  0.000000 (Ne1=   7234.0000)
               Final occupancy bounds   : [ -0.0000,  1.0000]
================================================================================

    9        -1.155661517351E+04     1.1035E-05     9.9828E-06    -2.0899E-03
MG BCs: +ve charge blocks (gridpoints):     30732 (   16992946).
MG BCs: -ve charge blocks (gridpoints):      8149 (    1073150).
MG BCs:     Elided blocks (gridpoints):    166378 (  172710609).
MG BCs: Computational effort saved:  99.9796%.
MG BCs: Charge after coarse-graining:           -9.0009645.
MG DL_MG: Calling solver with defect correction order = 8
MG DL_MG: Solver finished
MG Hartree energy from (\int phi*rho dr):              1438.808208
MG Hartree energy from (\int eps (grad phi)^2 dr):     1438.148304
MG Discrepancy due to finite box and discretization:     -0.659904 (  -0.04586%)
MG Correction to account for finite box:                  0.468643
MG Remaining discrepancy, due to discretization:         -0.191261 (  -0.01329%)
      ideal mu1:      -0.807976300919
   10        -1.155661740340E+04     1.0801E-05     9.7704E-06    -2.2299E-03
Finished density kernel iterations (  10)

Writing density kernel to file "complex_12641.vacuum_dkn" ... done


>>> Density kernel optimised for the current NGWF basis:
     ~~~~~~~~~~~~~~~~~~~~~~~~~~~~~~~~~~~~~~~~~~~~~~~~~~~~~~~~~~~
     Total energy                =  -1.15566174034036E+04  Eh
     Estimated bandgap           =  -2.1712E-01  Eh
     RMS occupancy error         =   3.0763E-08
     [H,K] commutator            =   9.7704E-06
     Occupancy bounds            = [ -0.000:  1.000]
     ~~~~~~~~~~~~~~~~~~~~~~~~~~~~~~~~~~~~~~~~~~~~~~~~~~~~~~~~~~~




################################################################################
########################### NGWF CG iteration  001 #############################
################################################################################
****** Reciprocal space K.E. preconditioning with k_zero =  3.5000 a0^-1 *******

>>> Checking for convergence of NGWFs:   NOT CONVERGED
  ========================================================================
         NGWF RMS gradient =  1.6972E-03 >  2.0000E-06  | above tolerance
  ========================================================================

>>> Improving NGWFs using line search:
============ Calculation of NGWF S^-1 using Hotelling algorithm ================ 
         Iteration  |  Frobenius norm and Maximum abs value    (of I-S*S_n^-1)   
               1       0.25009622E+00     0.77862176E-02
               2       0.14669735E-02     0.77548803E-04
               3       0.86805444E-07     0.77675300E-08
               4       0.13283131E-12     0.77715612E-14
================================================================================
MG BCs: +ve charge blocks (gridpoints):     30305 (   16935081).
MG BCs: -ve charge blocks (gridpoints):      8142 (    1069675).
MG BCs:     Elided blocks (gridpoints):    166805 (  172771949).
MG BCs: Computational effort saved:  99.9798%.
MG BCs: Charge after coarse-graining:           -9.0009748.
MG DL_MG: Calling solver with defect correction order = 8
MG DL_MG: Solver finished
MG Hartree energy from (\int phi*rho dr):              1409.921790
MG Hartree energy from (\int eps (grad phi)^2 dr):     1409.263608
MG Discrepancy due to finite box and discretization:     -0.658182 (  -0.04668%)
MG Correction to account for finite box:                  0.468577
MG Remaining discrepancy, due to discretization:         -0.189605 (  -0.01345%)
============ Calculation of NGWF S^-1 using Hotelling algorithm ================ 
         Iteration  |  Frobenius norm and Maximum abs value    (of I-S*S_n^-1)   
               1       0.21613279E+01     0.55567609E-01
               2       0.96620559E-01     0.38417991E-02
               3       0.27532603E-03     0.19117522E-04
               4       0.40620688E-08     0.47950621E-09
               5       0.11832655E-12     0.53290705E-14
================================================================================
------------------------------- NGWF line search -------------------------------
RMS gradient                =       0.00169724631388
Trial step length           =               0.122474
Gradient along search dir.  =       -308.44913043752
Functional at step 0        =  -11556.61740340362303
Functional at step 1        =  -11591.33866969775409
Functional predicted        =  -11673.36869107483290
Selected quadratic step     =               0.757021
--------------------------- NGWF line search finished --------------------------
                                               
Writing NGWFs to file "complex_12641.vacuum_tightbox_ngwfs"....  done

>>> Optimising kernel for current NGWFs:
   Initial electron number for spin 1:    7280.58996398
     Final electron number for spin 1:    7234.00000000

=================== Penalty functional idempotency correction ==================
 RMS occupancy error at iteration   1:  0.005379 (step -0.4817 Ne1=   7234.0000)
 RMS occupancy error at iteration   2:  0.000104 (step -0.5003 Ne1=   7234.0000)
            Final RMS occupancy error   :  0.000000 (Ne1=   7234.0000)
               Final occupancy bounds   : [  0.0000,  1.0000]
================================================================================

................................................................................
<<<<<<<<<<<<<< LNV (Original version) density kernel optimisation >>>>>>>>>>>>>>
~~~~~~~~~~~~~~~~~~~~~~~~~~~~~~~~~~~~~~~~~~~~~~~~~~~~~~~~~~~~~~~~~~~~~~~~~~~~~~~~
   iter  |      energy (Eh)       | rms gradient |  commutator  |   dE (Eh)
MG BCs: +ve charge blocks (gridpoints):     24777 (   16639478).
MG BCs: -ve charge blocks (gridpoints):      8244 (    1040359).
MG BCs:     Elided blocks (gridpoints):    172343 (  173096868).
MG BCs: Computational effort saved:  99.9827%.
MG BCs: Charge after coarse-graining:           -9.0007483.
MG DL_MG: Calling solver with defect correction order = 8
MG DL_MG: Solver finished
MG Hartree energy from (\int phi*rho dr):              1281.806830
MG Hartree energy from (\int eps (grad phi)^2 dr):     1281.152252
MG Discrepancy due to finite box and discretization:     -0.654579 (  -0.05107%)
MG Correction to account for finite box:                  0.468276
MG Remaining discrepancy, due to discretization:         -0.186302 (  -0.01453%)
      ideal mu1:      -0.751137345796
             Q0:  -11672.762170055299
             G0:      -9.455772490904
   RMS gradient:       0.000469899753
MG BCs: +ve charge blocks (gridpoints):     24838 (   16652455).
MG BCs: -ve charge blocks (gridpoints):      8230 (    1036852).
MG BCs:     Elided blocks (gridpoints):    172282 (  173087398).
MG BCs: Computational effort saved:  99.9827%.
MG BCs: Charge after coarse-graining:           -9.0007433.
MG DL_MG: Calling solver with defect correction order = 8
MG DL_MG: Solver finished
MG Hartree energy from (\int phi*rho dr):              1295.743237
MG Hartree energy from (\int eps (grad phi)^2 dr):     1295.083338
MG Discrepancy due to finite box and discretization:     -0.659899 (  -0.05093%)
MG Correction to account for finite box:                  0.467954
MG Remaining discrepancy, due to discretization:         -0.191944 (  -0.01481%)
     Trial step:       0.774480817488
             Q1:  -11671.557190117659
 Quadratic coef:       8.528294346375
 Linear coef   :      -7.323314408736
           Qmin:  -11674.334317185516
Quadratic minimum step length (  0.332526429063) accepted
    Initial Ne1:    7233.99884755
      Final Ne1:    7234.00000000

=================== Penalty functional idempotency correction ==================
 RMS occupancy error at iteration   1:  0.000349 (step -0.4986 Ne1=   7234.0000)
 RMS occupancy error at iteration   2:  0.000000 (step -0.5000 Ne1=   7234.0000)
            Final RMS occupancy error   :  0.000000 (Ne1=   7234.0000)
               Final occupancy bounds   : [  0.0000,  1.0000]
================================================================================

    1        -1.167276217006E+04     4.6990E-04     4.2508E-04
MG BCs: +ve charge blocks (gridpoints):     24803 (   16645072).
MG BCs: -ve charge blocks (gridpoints):      8234 (    1038876).
MG BCs:     Elided blocks (gridpoints):    172317 (  173092757).
MG BCs: Computational effort saved:  99.9827%.
MG BCs: Charge after coarse-graining:           -9.0007461.
MG DL_MG: Calling solver with defect correction order = 8
MG DL_MG: Solver finished
MG Hartree energy from (\int phi*rho dr):              1286.712451
MG Hartree energy from (\int eps (grad phi)^2 dr):     1286.055697
MG Discrepancy due to finite box and discretization:     -0.656753 (  -0.05104%)
MG Correction to account for finite box:                  0.468117
MG Remaining discrepancy, due to discretization:         -0.188636 (  -0.01466%)
      ideal mu1:      -0.756440902482
             Q0:  -11674.312950221007
             G0:      -0.861699334066
   RMS gradient:       0.000142417183
MG BCs: +ve charge blocks (gridpoints):     24806 (   16644781).
MG BCs: -ve charge blocks (gridpoints):      8239 (    1039693).
MG BCs:     Elided blocks (gridpoints):    172314 (  173092231).
MG BCs: Computational effort saved:  99.9827%.
MG BCs: Charge after coarse-graining:           -9.0007459.
MG DL_MG: Calling solver with defect correction order = 8
MG DL_MG: Solver finished
MG Hartree energy from (\int phi*rho dr):              1287.234449
MG Hartree energy from (\int eps (grad phi)^2 dr):     1286.577442
MG Discrepancy due to finite box and discretization:     -0.657007 (  -0.05104%)
MG Correction to account for finite box:                  0.468091
MG Remaining discrepancy, due to discretization:         -0.188917 (  -0.01468%)
     Trial step:       0.507479399205
             Q1:  -11674.508424592321
 Quadratic coef:       0.241820289033
 Linear coef   :      -0.437294660347
           Qmin:  -11674.510645191860
Quadratic minimum step length (  0.458849074235) accepted
    Initial Ne1:    7233.99985391
      Final Ne1:    7234.00000000

=================== Penalty functional idempotency correction ==================
 RMS occupancy error at iteration   1:  0.000134 (step -0.4995 Ne1=   7234.0000)
            Final RMS occupancy error   :  0.000000 (Ne1=   7234.0000)
               Final occupancy bounds   : [ -0.0000,  1.0000]
================================================================================

    2        -1.167431295022E+04     1.4242E-04     1.2883E-04    -1.5508E+00
MG BCs: +ve charge blocks (gridpoints):     24805 (   16644800).
MG BCs: -ve charge blocks (gridpoints):      8238 (    1039610).
MG BCs:     Elided blocks (gridpoints):    172315 (  173092295).
MG BCs: Computational effort saved:  99.9827%.
MG BCs: Charge after coarse-graining:           -9.0007459.
MG DL_MG: Calling solver with defect correction order = 8
MG DL_MG: Solver finished
MG Hartree energy from (\int phi*rho dr):              1287.185012
MG Hartree energy from (\int eps (grad phi)^2 dr):     1286.528030
MG Discrepancy due to finite box and discretization:     -0.656982 (  -0.05104%)
MG Correction to account for finite box:                  0.468093
MG Remaining discrepancy, due to discretization:         -0.188889 (  -0.01467%)
      ideal mu1:      -0.757048857420
             Q0:  -11674.511024497449
             G0:      -0.170410695948
   RMS gradient:       0.000063019462
MG BCs: +ve charge blocks (gridpoints):     24803 (   16644233).
MG BCs: -ve charge blocks (gridpoints):      8240 (    1039953).
MG BCs:     Elided blocks (gridpoints):    172317 (  173092519).
MG BCs: Computational effort saved:  99.9827%.
MG BCs: Charge after coarse-graining:           -9.0007459.
MG DL_MG: Calling solver with defect correction order = 8
MG DL_MG: Solver finished
MG Hartree energy from (\int phi*rho dr):              1286.612303
MG Hartree energy from (\int eps (grad phi)^2 dr):     1285.955421
MG Discrepancy due to finite box and discretization:     -0.656882 (  -0.05106%)
MG Correction to account for finite box:                  0.468088
MG Remaining discrepancy, due to discretization:         -0.188795 (  -0.01467%)
     Trial step:       0.482552020531
             Q1:  -11674.560839206912
 Quadratic coef:       0.032417316188
 Linear coef   :      -0.082232025650
           Qmin:  -11674.563173370627
Quadratic minimum step length (  0.612037558872) accepted
    Initial Ne1:    7234.00052280
      Final Ne1:    7234.00000000

=================== Penalty functional idempotency correction ==================
 RMS occupancy error at iteration   1:  0.000068 (step -0.4998 Ne1=   7234.0000)
            Final RMS occupancy error   :  0.000000 (Ne1=   7234.0000)
               Final occupancy bounds   : [ -0.0000,  1.0000]
================================================================================

    3        -1.167451102450E+04     6.3019E-05     5.7008E-05    -1.9807E-01
MG BCs: +ve charge blocks (gridpoints):     24802 (   16644036).
MG BCs: -ve charge blocks (gridpoints):      8240 (    1040057).
MG BCs:     Elided blocks (gridpoints):    172318 (  173092612).
MG BCs: Computational effort saved:  99.9827%.
MG BCs: Charge after coarse-graining:           -9.0007459.
MG DL_MG: Calling solver with defect correction order = 8
MG DL_MG: Solver finished
MG Hartree energy from (\int phi*rho dr):              1286.458275
MG Hartree energy from (\int eps (grad phi)^2 dr):     1285.801419
MG Discrepancy due to finite box and discretization:     -0.656856 (  -0.05106%)
MG Correction to account for finite box:                  0.468086
MG Remaining discrepancy, due to discretization:         -0.188770 (  -0.01467%)
      ideal mu1:      -0.756100616569
             Q0:  -11674.563271508785
             G0:      -0.033184580120
   RMS gradient:       0.000027794881
MG BCs: +ve charge blocks (gridpoints):     24799 (   16643833).
MG BCs: -ve charge blocks (gridpoints):      8238 (    1040111).
MG BCs:     Elided blocks (gridpoints):    172321 (  173092761).
MG BCs: Computational effort saved:  99.9827%.
MG BCs: Charge after coarse-graining:           -9.0007460.
MG DL_MG: Calling solver with defect correction order = 8
MG DL_MG: Solver finished
MG Hartree energy from (\int phi*rho dr):              1286.483459
MG Hartree energy from (\int eps (grad phi)^2 dr):     1285.826698
MG Discrepancy due to finite box and discretization:     -0.656761 (  -0.05105%)
MG Correction to account for finite box:                  0.468082
MG Remaining discrepancy, due to discretization:         -0.188679 (  -0.01467%)
     Trial step:       0.543451893616
             Q1:  -11674.572115452145
 Quadratic coef:       0.009190279545
 Linear coef   :      -0.018034222905
           Qmin:  -11674.572118715070
Quadratic minimum step length (  0.533211886528) accepted
    Initial Ne1:    7234.00023503
      Final Ne1:    7234.00000000

=================== Penalty functional idempotency correction ==================
 RMS occupancy error at iteration   1:  0.000018 (step -0.4999 Ne1=   7234.0000)
            Final RMS occupancy error   :  0.000000 (Ne1=   7234.0000)
               Final occupancy bounds   : [ -0.0000,  1.0000]
================================================================================

    4        -1.167456327151E+04     2.7795E-05     2.5144E-05    -5.2247E-02
MG BCs: +ve charge blocks (gridpoints):     24799 (   16643839).
MG BCs: -ve charge blocks (gridpoints):      8238 (    1040107).
MG BCs:     Elided blocks (gridpoints):    172321 (  173092759).
MG BCs: Computational effort saved:  99.9827%.
MG BCs: Charge after coarse-graining:           -9.0007460.
MG DL_MG: Calling solver with defect correction order = 8
MG DL_MG: Solver finished
MG Hartree energy from (\int phi*rho dr):              1286.482972
MG Hartree energy from (\int eps (grad phi)^2 dr):     1285.826209
MG Discrepancy due to finite box and discretization:     -0.656763 (  -0.05105%)
MG Correction to account for finite box:                  0.468082
MG Remaining discrepancy, due to discretization:         -0.188681 (  -0.01467%)
      ideal mu1:      -0.756205015375
             Q0:  -11674.572123512975
             G0:      -0.010084365742
   RMS gradient:       0.000015342368
MG BCs: +ve charge blocks (gridpoints):     24800 (   16644254).
MG BCs: -ve charge blocks (gridpoints):      8237 (    1039958).
MG BCs:     Elided blocks (gridpoints):    172320 (  173092493).
MG BCs: Computational effort saved:  99.9827%.
MG BCs: Charge after coarse-graining:           -9.0007459.
MG DL_MG: Calling solver with defect correction order = 8
MG DL_MG: Solver finished
MG Hartree energy from (\int phi*rho dr):              1286.815482
MG Hartree energy from (\int eps (grad phi)^2 dr):     1286.158743
MG Discrepancy due to finite box and discretization:     -0.656739 (  -0.05104%)
MG Correction to account for finite box:                  0.468077
MG Remaining discrepancy, due to discretization:         -0.188662 (  -0.01466%)
     Trial step:       0.538307541682
             Q1:  -11674.574706679094
 Quadratic coef:       0.002845324014
 Linear coef   :      -0.005428490132
           Qmin:  -11674.574712717664
Quadratic minimum step length (  0.513508683671) accepted
    Initial Ne1:    7234.00008096
      Final Ne1:    7234.00000000

=================== Penalty functional idempotency correction ==================
 RMS occupancy error at iteration   1:  0.000007 (step -0.5000 Ne1=   7234.0000)
            Final RMS occupancy error   :  0.000000 (Ne1=   7234.0000)
               Final occupancy bounds   : [ -0.0000,  1.0000]
================================================================================

    5        -1.167457212351E+04     1.5342E-05     1.3879E-05    -8.8520E-03
MG BCs: +ve charge blocks (gridpoints):     24800 (   16644235).
MG BCs: -ve charge blocks (gridpoints):      8237 (    1039965).
MG BCs:     Elided blocks (gridpoints):    172320 (  173092505).
MG BCs: Computational effort saved:  99.9827%.
MG BCs: Charge after coarse-graining:           -9.0007459.
MG DL_MG: Calling solver with defect correction order = 8
MG DL_MG: Solver finished
MG Hartree energy from (\int phi*rho dr):              1286.800142
MG Hartree energy from (\int eps (grad phi)^2 dr):     1286.143402
MG Discrepancy due to finite box and discretization:     -0.656740 (  -0.05104%)
MG Correction to account for finite box:                  0.468077
MG Remaining discrepancy, due to discretization:         -0.188663 (  -0.01466%)
      ideal mu1:      -0.756434557507
             Q0:  -11674.574713361915
             G0:      -0.002428910219
   RMS gradient:       0.000007529730
MG BCs: +ve charge blocks (gridpoints):     24800 (   16644179).
MG BCs: -ve charge blocks (gridpoints):      8238 (    1040018).
MG BCs:     Elided blocks (gridpoints):    172320 (  173092508).
MG BCs: Computational effort saved:  99.9827%.
MG BCs: Charge after coarse-graining:           -9.0007459.
MG DL_MG: Calling solver with defect correction order = 8
MG DL_MG: Solver finished
MG Hartree energy from (\int phi*rho dr):              1286.757123
MG Hartree energy from (\int eps (grad phi)^2 dr):     1286.100392
MG Discrepancy due to finite box and discretization:     -0.656731 (  -0.05104%)
MG Correction to account for finite box:                  0.468072
MG Remaining discrepancy, due to discretization:         -0.188658 (  -0.01466%)
     Trial step:       0.525761920587
             Q1:  -11674.575450727716
 Quadratic coef:       0.000539662700
 Linear coef   :      -0.001277028502
           Qmin:  -11674.575468834635
Quadratic minimum step length (  0.622067225819) accepted
    Initial Ne1:    7234.00002663
      Final Ne1:    7234.00000000

=================== Penalty functional idempotency correction ==================
 RMS occupancy error at iteration   1:  0.000003 (step -0.5000 Ne1=   7234.0000)
            Final RMS occupancy error   :  0.000000 (Ne1=   7234.0000)
               Final occupancy bounds   : [  0.0000,  1.0000]
================================================================================

    6        -1.167457471336E+04     7.5297E-06     6.8115E-06    -2.5898E-03
MG BCs: +ve charge blocks (gridpoints):     24800 (   16644176).
MG BCs: -ve charge blocks (gridpoints):      8238 (    1040019).
MG BCs:     Elided blocks (gridpoints):    172320 (  173092510).
MG BCs: Computational effort saved:  99.9827%.
MG BCs: Charge after coarse-graining:           -9.0007459.
MG DL_MG: Calling solver with defect correction order = 8
MG DL_MG: Solver finished
MG Hartree energy from (\int phi*rho dr):              1286.749248
MG Hartree energy from (\int eps (grad phi)^2 dr):     1286.092519
MG Discrepancy due to finite box and discretization:     -0.656729 (  -0.05104%)
MG Correction to account for finite box:                  0.468071
MG Remaining discrepancy, due to discretization:         -0.188658 (  -0.01466%)
      ideal mu1:      -0.756386709892
             Q0:  -11674.575468903175
             G0:      -0.000917388098
   RMS gradient:       0.000004628425
MG BCs: +ve charge blocks (gridpoints):     24800 (   16644082).
MG BCs: -ve charge blocks (gridpoints):      8238 (    1040034).
MG BCs:     Elided blocks (gridpoints):    172320 (  173092589).
MG BCs: Computational effort saved:  99.9827%.
MG BCs: Charge after coarse-graining:           -9.0007459.
MG DL_MG: Calling solver with defect correction order = 8
MG DL_MG: Solver finished
MG Hartree energy from (\int phi*rho dr):              1286.691896
MG Hartree energy from (\int eps (grad phi)^2 dr):     1286.035165
MG Discrepancy due to finite box and discretization:     -0.656732 (  -0.05104%)
MG Correction to account for finite box:                  0.468073
MG Remaining discrepancy, due to discretization:         -0.188659 (  -0.01466%)
     Trial step:       0.571890950602
             Q1:  -11674.575692321756
 Quadratic coef:       0.000301227370
 Linear coef   :      -0.000524645952
           Qmin:  -11674.575697346372
Quadratic minimum step length (  0.498029564644) accepted
    Initial Ne1:    7233.99999912
      Final Ne1:    7234.00000000

=================== Penalty functional idempotency correction ==================
 RMS occupancy error at iteration   1:  0.000000 (step -0.5000 Ne1=   7234.0000)
            Final RMS occupancy error   :  0.000000 (Ne1=   7234.0000)
               Final occupancy bounds   : [  0.0000,  1.0000]
================================================================================

    7        -1.167457546890E+04     4.6284E-06     4.1870E-06    -7.5554E-04
MG BCs: +ve charge blocks (gridpoints):     24800 (   16644092).
MG BCs: -ve charge blocks (gridpoints):      8238 (    1040033).
MG BCs:     Elided blocks (gridpoints):    172320 (  173092580).
MG BCs: Computational effort saved:  99.9827%.
MG BCs: Charge after coarse-graining:           -9.0007459.
MG DL_MG: Calling solver with defect correction order = 8
MG DL_MG: Solver finished
MG Hartree energy from (\int phi*rho dr):              1286.699296
MG Hartree energy from (\int eps (grad phi)^2 dr):     1286.042565
MG Discrepancy due to finite box and discretization:     -0.656731 (  -0.05104%)
MG Correction to account for finite box:                  0.468073
MG Remaining discrepancy, due to discretization:         -0.188659 (  -0.01466%)
      ideal mu1:      -0.756323722134
             Q0:  -11674.575697345659
             G0:      -0.000538255910
   RMS gradient:       0.000003545251
MG BCs: +ve charge blocks (gridpoints):     24800 (   16644073).
MG BCs: -ve charge blocks (gridpoints):      8238 (    1040046).
MG BCs:     Elided blocks (gridpoints):    172320 (  173092586).
MG BCs: Computational effort saved:  99.9827%.
MG BCs: Charge after coarse-graining:           -9.0007459.
MG DL_MG: Calling solver with defect correction order = 8
MG DL_MG: Solver finished
MG Hartree energy from (\int phi*rho dr):              1286.678881
MG Hartree energy from (\int eps (grad phi)^2 dr):     1286.022150
MG Discrepancy due to finite box and discretization:     -0.656731 (  -0.05104%)
MG Correction to account for finite box:                  0.468072
MG Remaining discrepancy, due to discretization:         -0.188658 (  -0.01466%)
     Trial step:       0.533683989972
             Q1:  -11674.575916316826
 Quadratic coef:       0.000068287394
 Linear coef   :      -0.000287258561
           Qmin:  -11674.575999441977
Quadratic minimum step length (  1.122500696753) accepted
    Initial Ne1:    7233.99999883
      Final Ne1:    7234.00000000

=================== Penalty functional idempotency correction ==================
 RMS occupancy error at iteration   1:  0.000003 (step -0.5000 Ne1=   7234.0000)
            Final RMS occupancy error   :  0.000000 (Ne1=   7234.0000)
               Final occupancy bounds   : [  0.0000,  1.0000]
================================================================================

    8        -1.167457569735E+04     3.5453E-06     3.2071E-06    -2.2844E-04
MG BCs: +ve charge blocks (gridpoints):     24800 (   16644047).
MG BCs: -ve charge blocks (gridpoints):      8239 (    1040054).
MG BCs:     Elided blocks (gridpoints):    172320 (  173092604).
MG BCs: Computational effort saved:  99.9827%.
MG BCs: Charge after coarse-graining:           -9.0007459.
MG DL_MG: Calling solver with defect correction order = 8
MG DL_MG: Solver finished
MG Hartree energy from (\int phi*rho dr):              1286.656272
[...]
 RMS occupancy error at iteration   1:  0.000000 (step -0.5000 Ne1=   7234.0000)
            Final RMS occupancy error   :  0.000000 (Ne1=   7234.0000)
               Final occupancy bounds   : [  0.0000,  1.0000]
================================================================================

    7        -1.171085850707E+04     7.1907E-09     6.5049E-09     1.1642E-10

Reusing previously generated solute cavity.
MG BCs: +ve charge blocks (gridpoints):     29343 (   18788962).
MG BCs: -ve charge blocks (gridpoints):      8250 (    1017970).
MG BCs:     Elided blocks (gridpoints):    167777 (  170969773).
MG BCs: Computational effort saved:  99.9803%.
MG BCs: Charge after coarse-graining:           -9.0009811.
MG DL_MG: Calling solver with defect correction order = 8
MG DL_MG: Solver finished
MG Hartree energy from (\int phi*rho dr):              1237.244736
MG Hartree energy from (\int eps (grad phi)^2 dr):     1237.050150
MG Discrepancy due to finite box and discretization:     -0.194585 (  -0.01573%)
MG Correction to account for finite box:                  0.006433
MG Remaining discrepancy, due to discretization:         -0.188152 (  -0.01521%)
      ideal mu1:      -0.513686642146
             Q0:  -11710.858507068595
             G0:      -0.000000002636
   RMS gradient:       0.000000005842

Reusing previously generated solute cavity.
MG BCs: +ve charge blocks (gridpoints):     29343 (   18788963).
MG BCs: -ve charge blocks (gridpoints):      8250 (    1017970).
MG BCs:     Elided blocks (gridpoints):    167777 (  170969772).
MG BCs: Computational effort saved:  99.9803%.
MG BCs: Charge after coarse-graining:           -9.0009811.
MG DL_MG: Calling solver with defect correction order = 8
MG DL_MG: Solver finished
MG Hartree energy from (\int phi*rho dr):              1237.244756
MG Hartree energy from (\int eps (grad phi)^2 dr):     1237.050171
MG Discrepancy due to finite box and discretization:     -0.194585 (  -0.01573%)
MG Correction to account for finite box:                  0.006433
MG Remaining discrepancy, due to discretization:         -0.188152 (  -0.01521%)
     Trial step:       0.218413138491
             Q1:  -11710.858507068246
 Quadratic coef:       0.000000000926
 Linear coef   :      -0.000000000576
           Qmin:  -11710.858507068684
Quadratic minimum step length (  0.067906924490) accepted
    Initial Ne1:    7234.00000000
      Final Ne1:    7234.00000000

=================== Penalty functional idempotency correction ==================
 RMS occupancy error at iteration   1:  0.000000 (step -0.5000 Ne1=   7234.0000)
            Final RMS occupancy error   :  0.000000 (Ne1=   7234.0000)
               Final occupancy bounds   : [  0.0000,  1.0000]
================================================================================

    8        -1.171085850707E+04     5.8416E-09     5.2844E-09     0.0000E+00

Reusing previously generated solute cavity.
MG BCs: +ve charge blocks (gridpoints):     29343 (   18788963).
MG BCs: -ve charge blocks (gridpoints):      8250 (    1017970).
MG BCs:     Elided blocks (gridpoints):    167777 (  170969772).
MG BCs: Computational effort saved:  99.9803%.
MG BCs: Charge after coarse-graining:           -9.0009811.
MG DL_MG: Calling solver with defect correction order = 8
MG DL_MG: Solver finished
MG Hartree energy from (\int phi*rho dr):              1237.244742
MG Hartree energy from (\int eps (grad phi)^2 dr):     1237.050157
MG Discrepancy due to finite box and discretization:     -0.194585 (  -0.01573%)
MG Correction to account for finite box:                  0.006433
MG Remaining discrepancy, due to discretization:         -0.188152 (  -0.01521%)
      ideal mu1:      -0.513686644990
             Q0:  -11710.858507068595
             G0:      -0.000000002663
   RMS gradient:       0.000000004976

Reusing previously generated solute cavity.
MG BCs: +ve charge blocks (gridpoints):     29343 (   18788963).
MG BCs: -ve charge blocks (gridpoints):      8250 (    1017970).
MG BCs:     Elided blocks (gridpoints):    167777 (  170969772).
MG BCs: Computational effort saved:  99.9803%.
MG BCs: Charge after coarse-graining:           -9.0009811.
MG DL_MG: Calling solver with defect correction order = 8
MG DL_MG: Solver finished
MG Hartree energy from (\int phi*rho dr):              1237.244755
MG Hartree energy from (\int eps (grad phi)^2 dr):     1237.050170
MG Discrepancy due to finite box and discretization:     -0.194585 (  -0.01573%)
MG Correction to account for finite box:                  0.006433
MG Remaining discrepancy, due to discretization:         -0.188152 (  -0.01521%)
     Trial step:       0.121785731936
             Q1:  -11710.858507068246
 Quadratic coef:       0.000000000673
 Linear coef   :      -0.000000000324
           Qmin:  -11710.858507068633
Quadratic minimum step length (  0.029345456490) accepted
    Initial Ne1:    7234.00000000
      Final Ne1:    7234.00000000

=================== Penalty functional idempotency correction ==================
 RMS occupancy error at iteration   1:  0.000000 (step -0.5000 Ne1=   7234.0000)
            Final RMS occupancy error   :  0.000000 (Ne1=   7234.0000)
               Final occupancy bounds   : [ -0.0000,  1.0000]
================================================================================

    9        -1.171085850707E+04     4.9758E-09     4.5012E-09     0.0000E+00

Reusing previously generated solute cavity.
MG BCs: +ve charge blocks (gridpoints):     29343 (   18788963).
MG BCs: -ve charge blocks (gridpoints):      8250 (    1017970).
MG BCs:     Elided blocks (gridpoints):    167777 (  170969772).
MG BCs: Computational effort saved:  99.9803%.
MG BCs: Charge after coarse-graining:           -9.0009811.
MG DL_MG: Calling solver with defect correction order = 8
MG DL_MG: Solver finished
MG Hartree energy from (\int phi*rho dr):              1237.244745
MG Hartree energy from (\int eps (grad phi)^2 dr):     1237.050160
MG Discrepancy due to finite box and discretization:     -0.194585 (  -0.01573%)
MG Correction to account for finite box:                  0.006433
MG Remaining discrepancy, due to discretization:         -0.188152 (  -0.01521%)
      ideal mu1:      -0.513686646261
   10        -1.171085850707E+04     4.5732E-09     4.1370E-09     1.1642E-10
Finished density kernel iterations (  10)

Writing density kernel to file "complex_12641.dkn" ... done


>>> Density kernel optimised for the current NGWF basis:
     ~~~~~~~~~~~~~~~~~~~~~~~~~~~~~~~~~~~~~~~~~~~~~~~~~~~~~~~~~~~
     Total energy                =  -1.17108585070685E+04  Eh
     Estimated bandgap           =   1.1307E-01  Eh
     RMS occupancy error         =   3.8417E-16
     [H,K] commutator            =   4.1370E-09
     Occupancy bounds            = [  0.000:  1.000]
     ~~~~~~~~~~~~~~~~~~~~~~~~~~~~~~~~~~~~~~~~~~~~~~~~~~~~~~~~~~~




################################################################################
########################### NGWF CG iteration  005 #############################
################################################################################
****** Reciprocal space K.E. preconditioning with k_zero =  3.5000 a0^-1 *******

>>> Checking for convergence of NGWFs: 
           ........................................................
           |         *** NGWF optimisation converged ***          |
           | RMS NGWF gradient =    0.00000111337027              |
           | Criteria satisfied:                                  |
           | -> RMS NGWF gradient lower than set threshold.       |
           ========================================================

Reusing previously generated solute cavity.
MG BCs: +ve charge blocks (gridpoints):     29343 (   18788963).
MG BCs: -ve charge blocks (gridpoints):      8250 (    1017970).
MG BCs:     Elided blocks (gridpoints):    167777 (  170969772).
MG BCs: Computational effort saved:  99.9803%.
MG BCs: Charge after coarse-graining:           -9.0009811.
MG DL_MG: Calling solver with defect correction order = 8
MG DL_MG: Solver finished
MG Hartree energy from (\int phi*rho dr):              1237.244745
MG Hartree energy from (\int eps (grad phi)^2 dr):     1237.050160
MG Discrepancy due to finite box and discretization:     -0.194585 (  -0.01573%)
MG Correction to account for finite box:                  0.006433
MG Remaining discrepancy, due to discretization:         -0.188152 (  -0.01521%)

================================================================================
           ---------------- ENERGY COMPONENTS (Eh) ----------------
           | Kinetic                    :     8452.04624040364615 |
           | Pseudo. (local,OBC,corr'd) :    -5012.25467014248716 |
           | Pseudopotential (non-local):     1455.29499589946590 |
           | Hartree (molecular)        :     1237.24474512093161 |
           | Exchange-correlation       :    -3353.21786446022134 |
           | Ion-ion (open BC)          :   835263.82343200908508 |
           | Smeared ion non-self corr. :  -835215.47765422984958 |
           | Smeared ion self corr.     :   -14538.95273137971344 |
           | Solvent cavitation energy  :        2.25918246247009 |
           | Solute-solvent dis-rep en. :       -1.62418275183131 |
           | Total                      :   -11710.85850706844030 |
           --------------------------------------------------------
           ------ LOCAL ENERGY COMPONENTS FROM MATRIX TRACES ------
           | Pseudopotential (local)    :    -5012.25467014250353 |
           | Hartree                    :    -1996.23074796094511 |
           --------------------------------------------------------
           Integrated density           :     7233.99999999811371
           Integrated density tr(KS)    :     7234.00000000000091
================================================================================


                        <<<<< CALCULATION SUMMARY >>>>>                         
|ITER|    RMS GRADIENT   |     TOTAL ENERGY    |   step   |     Epredicted              
   0     0.00003922522446 -11710.80852369370405   0.524472 -11710.85172701786360        
   1     0.00001288521542 -11710.85731485707220   0.113043 -11710.85831967896956        
   2     0.00000565665202 -11710.85846623650286   0.020169 -11710.85850078885778        
   3     0.00000251300070 -11710.85850547486916   0.004049 -11710.85850684368233        
   4     0.00000111337027 -11710.85850706847850  <-- CG                                 

=================== Finished the calculation in solvent ========================
= Adjusting the following parameters: 
= read_denskern: F
= read_tightbox_ngwfs: F
= maxit_pen: 0 (restored to user-specified value)
= restart read filename prefix: ""
= restart write filename prefix: ""
================================================================================

================================================================================
IS: Calculation in solvent completed (NGWFs converged).      

Individual components of total energy in solvent:     hartree           kcal/mol
- Usual non-electrostatic DFT terms:    -12948.73825190004936    -8125455.753948
- Electrostatic fixed charge energy:      1237.24474512093161      776382.782454
- Apolar cavitation energy:                  2.25918246247009        1417.658368
- Apolar dispersion-repulsion energy:       -1.62418275183131       -1019.190042
 -------------------------------------------------------------------------------
- Total energy in solvent:              -11710.85850706847850    -7348674.503168

Components of total energy in solvent:                hartree           kcal/mol
- Usual non-electrostatic DFT terms:    -12948.73825190004936    -8125455.753948
- Electrostatic energy:                   1237.24474512093161      776382.782454
- Apolar energy terms:                       0.63499971063878         398.468326
 -------------------------------------------------------------------------------
- Total energy in solvent:              -11710.85850706847850    -7348674.503168

Calculation of free energy of solvation:              hartree           kcal/mol
- Total energy in solvent:         (+)  -11710.85850706847850    -7348674.503168
- Total energy in vacuum:          (-)  -11706.92132570687681    -7346203.884616
 -------------------------------------------------------------------------------
- Total free energy of solvation:           -3.93718136160169       -2470.618552

Components of polar term in f.e. of solvation:        hartree           kcal/mol
- Electrostatic:                            -4.84362609969708       -3039.421200
- Change in nonelectrostatic DFT terms:      0.27144502745614         170.334323
 -------------------------------------------------------------------------------
- Polar term in f.e. of solvation:          -4.57218107224094       -2869.086878

Components of free energy of solvation:               hartree           kcal/mol
- Polar term in f.e. of solvation: (+)      -4.57218107224094       -2869.086878
- Apolar (cavitation, dis., rep.): (+)       0.63499971063878         398.468326
 -------------------------------------------------------------------------------
- Total free energy of solvation:           -3.93718136160216       -2470.618552
================================================================================


------------------------------ TIMING INFORMATION ------------------------------
AVERAGE TIME:   69005.342s on     40 node(s)                                    
TOTAL TIME:     69005.343s on     40 node(s)                                    
================= AVERAGE TIMINGS FROM ALL NODES (CUMULATIVE) ==================
|| TAG                                    #calls    cpu time   %total  Gflops ||
|| work_imbalance                       :     1        0.00s   0.000%  ------ ||
|| parallel_prepare_fd_halos_request    :  2067        0.02s   0.000%  ------ ||
|| parallel_prepare_fd_halos_alloc      :  2067        0.04s   0.000%  ------ ||
|| sparse_set_to_garbage                :   218        0.05s   0.000%  ------ ||
|| parallel_prepare_fd_halos_satisfy    :  2067        0.06s   0.000%  ------ ||
|| ngwfs_initialise_from_radial         :     1        0.15s   0.000%  ------ ||
|| basis_extract_function_from_box      :  5726        0.23s   0.000%  ------ ||
|| restart_ngwfs_tightbox_input         :     1        0.81s   0.001%  ------ ||
|| pseudopotentials_nonlocal_mat        :    32        1.50s   0.002%  ------ ||
|| density_init_guess_real              :     1        2.41s   0.003%  ------ ||
|| parallel_prepare_fd_halos_comms_imbal:  2067        2.78s   0.004%  ------ ||
|| restart_kernel_read                  :     1        3.01s   0.004%  ------ ||
|| openbc_locps_radial                  :     1        4.70s   0.007%  ------ ||
|| restart_kernel_write                 :    18       13.45s   0.019%  ------ ||
|| parallel_prepare_fd_halos_clear      :  2067       14.76s   0.021%  ------ ||
|| sparse_init                          :     2       23.21s   0.034%  ------ ||
|| projectors_func_ovlp_box             :    32       25.20s   0.037%  ------ ||
|| parallel_prepare_fd_halos_comms_wait :  2067       26.05s   0.038%  ------ ||
|| projectors_init_fftbox_recip         :   219       28.37s   0.041%  ------ ||
|| function_ops_brappd_ketppd           :    32       32.31s   0.047%  ------ ||
|| palser_mano_kernel_optimise          :     1       41.25s   0.060%  ------ ||
|| parallel_prepare_fd_halos            :  2067       43.72s   0.063%  ------ ||
|| pseudo_make_structure_factor         :     2       53.24s   0.077%  ------ ||
|| ngwf_gradient_coeffs                 :    17       68.60s   0.099%  ------ ||
|| restart_ngwfs_tightbox_output        :    15       76.11s   0.110%  ------ ||
|| sparse_embed_hotelling_invert_embed  :    32      102.85s   0.149%  ------ ||
|| finite_difference_derivative         :  2067      107.93s   0.156%  ------ ||
|| basis_copy_function_to_box           : 177.0k     117.12s   0.170%  ------ ||
|| openbc_locps_on_grid                 :     2      183.34s   0.266%  ------ ||
|| integrals_kinetic                    :    32      203.84s   0.295%  ------ ||
|| projectors_gradient_batch            :   187      221.71s   0.321%  ------ ||
|| sparse_trace                         :  5259      280.78s   0.407%  ------ ||
|| fourier_apply_box_pair               : 49938      330.68s   0.479% 582.842 ||
|| kernel_purify                        :   526      372.72s   0.540%  ------ ||
|| basis_dot_function_with_box          : 20.41M     480.19s   0.696%  ------ ||
|| kernel_fix                           :   170      606.49s   0.879%  ------ ||
|| lnv_gradient_norm                    :   170      608.79s   0.882%  ------ ||
|| hamiltonian_energy_components        :     4      719.64s   1.043%  ------ ||
|| integrals_locpot_mat_els_batch       :  1969     1069.83s   1.550%  ------ ||
|| ke_density_batch_grad_apply          :  3773     1087.45s   1.576%  ------ ||
|| basis_add_function_to_box            : 54.59M    1125.99s   1.632%  ------ ||
|| density_batch_row_sums               :  3773     1422.56s   2.062%  ------ ||
|| ke_density_batch_row_sums            :  3773     1423.59s   2.063%  ------ ||
|| fourier_apply_cell_backward          :  9268     1488.56s   2.157%  84.750 ||
|| density_fftbox_deposit_to_cell       : 56252     1607.21s   2.329%  ------ ||
|| fourier_apply_cell_forward           :  9266     1618.60s   2.346%  77.924 ||
|| ke_density_fftbox_deposit_to_cell    : 56252     1760.53s   2.551%  ------ ||
|| cell_grid_deposit_box_real           : 114.6k    1978.91s   2.868%  ------ ||
|| cell_grid_extract_box_real           : 140.6k    2209.97s   3.203%  ------ ||
|| sparse_product                       :  6845     2241.21s   3.248%  ------ ||
|| ngwf_gradient_build_batch            :   187     2506.94s   3.633%  ------ ||
|| multigrid_prepare_bound_cond         :   344     2598.43s   3.766%  ------ ||
|| ngwf_gradient_batch                  :   187     2835.66s   4.109%  ------ ||
|| ngwf_gradient_lnv                    :    17     3029.01s   4.390%  ------ ||
|| potential_apply_to_ngwf_batch        :  1969     3454.18s   5.006%  ------ ||
|| density_fftbox_interpolate_multiply  : 56252     3900.54s   5.653%  ------ ||
|| xc_energy_potential                  :   344     4261.23s   6.175%  ------ ||
|| integrals_locpot_dbl_grid            :   179     4543.72s   6.585%  ------ ||
|| density_batch_interp_deposit         :  3773     6184.58s   8.962%  ------ ||
|| nlxc_vdw_energy                      :   686     7097.04s  10.285%  ------ ||
|| dl_mg_solver_calls                   :   344     7112.56s  10.307%  ------ ||
|| density_on_dbl_grid                  :   343     8032.52s  11.640%  ------ ||
|| potential_apply_to_fftbox_batch      :  5610     9256.85s  13.415%  ------ ||
|| multigrid_calculate_hartree          :   344     9870.02s  14.303%  ------ ||
|| integrals_div_locpot_grad_functions  :   170    14107.78s  20.444%  ------ ||
|| ke_density_fftbox_interpolate_multipl: 56252    15433.94s  22.366%  ------ ||
|| ke_density_batch_interp_deposit      :  3773    17883.83s  25.917%  ------ ||
|| fourier_apply_box                    : 1.277M   20298.11s  29.415% 804.122 ||
|| ke_density_on_dbl_grid               :   343    20871.27s  30.246%  ------ ||
|| hamiltonian_lhxc_calculate           :   339    43037.40s  62.368%  ------ ||
|| lnv_denskernel_optimise_cg           :    17    61969.42s  89.804%  ------ ||
|| ngwf_cg_optimise                     :     2    68226.44s  98.871%  ------ ||
|| total_time                           :     1    69005.34s 100.000%  ------ ||
================================================================================
Overhead of generating timer report: 
- 0 ms averaging over threads,
- 7 ms ensuring consistency across MPI ranks,
- 2 ms printing in order.

Job completed: 17-02-2020 17:01 (-0000)

