 +---------------------------------------------------------------+
 |                                                               |
 |        ####### #     # ####### ####### ####### ######         |
 |        #     # ##    # #          #    #       #     #        |
 |        #     # # #   # #          #    #       #     #        |
 |        #     # #  #  # #####      #    #####   ######         |
 |        #     # #   # # #          #    #       #              |
 |        #     # #    ## #          #    #       #              |
 |        ####### #     # #######    #    ####### #              |
 |                                                               |
 |        Linear-Scaling Ab Initio Total Energy Program          |
 |                                                               |
 |          Release for academic collaborators of ODG            |
 |                                             Version 5.3.2.6.  |
 |                                                               |
 +---------------------------------------------------------------+
 |                                                               |
 |  Authors:                                                     |
 |  Jacek Dziedzic, Peter D. Haynes, Nicholas D. M. Hine,        |
 |  Arash. A. Mostofi, Mike C. Payne and Chris-Kriton Skylaris   |
 |                                                               |
 |  Contributors:                                                |
 |  J. Aarons, L. Andrinopoulos, P. W. Avraam, R. A. Bell,       |
 |  A. Bhandari, G. A. Bramley, R. J. Charlton, S. J. Clark,     |
 |  R. J. Clements, G. C. Constantinescu, F. Corsetti,           |
 |  N. Corsini, O. Dieguez, S. M. M. Dubois, K. K. B. Duff,      |
 |  J. M. Escartin, A. Greco, H. Helal, Q. O. Hill, L. P. Lee,   |
 |  J.-H. Li, E. B. Linscott, G. Moynihan, D. D. O`Regan,        |
 |  O. K. Okan, M. J. S. Phipps, C. J. Pickard,                  |
 |  J. C. A. Prentice, M. I. J. Probert, L. E. Ratcliff,         |
 |  M. Robinson, A. Ruiz Serrano, J. S. Spencer, E. W. Tait,     |
 |  G. Teobaldi, D. Turban, V. Vitale, K. A. Wilkinson,          |
 |  C. Weber, J. C. Womack, N. Yeung and T. J. Zuehlsdorff       |
 |                                                               |
 |                                   Copyright (c) 2004-2019     |
 |                                                               |
 |  Please cite:                                                 |
 |  "Introducing ONETEP: Linear-scaling density functional       |
 |   simulations on parallel computers".                         |
 |   C.-K. Skylaris, P. D. Haynes, A. A. Mostofi, M. C. Payne.   |
 |   J. Chem. Phys. 122 084119 (2005).                           |
 |                                                               |
 |          in all publications arising from your use of ONETEP. |
 |                                                               |
 +---------------------------------------------------------------+
 |                                                               |
 |   ONETEP is based on developments described in the following  |
 |   publications:                                               |
 |                                                               |
 |  "Nonorthogonal generalized Wannier function pseudopotential  |
 |   plane-wave method".                                         |
 |   C.-K. Skylaris, A. A. Mostofi, P. D. Haynes, O. Dieguez,    |
 |   M. C. Payne.                                                |
 |   Phys. Rev. B 66 035119 (2002).                              |
 |                                                               |
 |  "Preconditioned iterative minimization for linear-scaling    |
 |   electronic structure calculations".                         |
 |   A. A. Mostofi, P. D. Haynes, C.-K. Skylaris, M. C. Payne.   |
 |   J. Chem. Phys. 119(17), pp.8842-8848 (2003).                |
 |                                                               |
 |  "Total-energy calculations on a real space grid with         |
 |   localized functions and a plane-wave basis".                |
 |   A. A. Mostofi, C.-K. Skylaris, P. D. Haynes, M. C. Payne.   |
 |   Comput. Phys. Commun. 147, pp.788-802 (2002).               |
 |                                                               |
 |  "Accurate kinetic energy evaluation in electronic structure  |
 |   calculations with localized functions on real space grids"  |
 |   C.-K. Skylaris, A. A. Mostofi, P. D. Haynes, C. J. Pickard, |
 |   M. C. Payne.                                                |
 |   Comput. Phys. Commun. 140, pp.315-322 (2001).               |
 |                                                               |
 |  "Accurate ionic forces and geometry optimization in linear-  |
 |   scaling density-functional theory with local orbitals"      |
 |   N. D. M. Hine, M. Robinson, P. D. Haynes, C.-K. Skylaris,   |
 |   M. C. Payne, and A. A. Mostofi.                             |
 |   Phys. Rev. B 83 195102 (2011).                              |
 |                                                               |
 +---------------------------------------------------------------+

Job started: 26-04-2020 19:42 (+0100)
 
Reading parameters from file "host_34681.dat" ...... done

If your calculation crashes here, before "Checking processes and threads..."
is displayed, then your stack size is insufficient.
If so, use "ulimit -s unlimited" at runtime.
You can disable this check with "check_stack_size F".

Checking processes and threads...
   Determining the default number of threads...
      No default threads set at compilation time: defaulting to 1.
      OpenMP library call suggests 4 threads.
      Hybrid MPI-OpenMP compilation detected.
      Number of MPI processes > 1.
      OMP_NUM_THREADS environment variable present and
      its value matches the one obtained from the OpenMP library call.
      Using this value as default.
      Default threads: 4
      Default applies to threads_max and threads_num_fftboxes.
      Settings in the input file override this default.
   ... done

   Running with 40 MPI processes.
   There are 10 MPI processes running on the same node as the root process.
   Each MPI process is using: 
               1 threads for simulation cell FFTs.
               1 threads for parallel FFT box operations.
               4 threads for loops over batched FFT box operations.
               4 threads in other parallel regions.
... done

Basic input checks...... done

Reading geometry and species blocks from file "host_34681.dat" ...
  <species_atomic_set> block not found: NGWF initialisation set to SOLVE
IS: Dielectric excluded regions:
    - NONE.
    
  Number of PPD points along a3 set to 1.  This is 
  the default value, it may have been provided also in the input file.
... done
 Writing xyz coordinates to file "host_34681.xyz" ... done


--------------------------------------------------------------------------------
---------------------------------- INPUT FILE ----------------------------------
--------------------------------------------------------------------------------

cutoff_energy       : 800 eV                                                    
xc_functional B97M-V                                                            
task SINGLEPOINT                                                                
write_xyz true                                                                  
output_detail VERBOSE                                                           
ngwf_threshold_orig : 0.000002                                                  
kernel_cutoff       : 1000                                                      
k_zero              : 3.5                                                       
elec_cg_max 0                                                                   
occ_mix 1.0                                                                     
dispersion 0                                                                    
maxit_ngwf_cg 40                                                                
minit_lnv 10                                                                    
maxit_lnv 10                                                                    
write_denskern T                                                                
write_tightbox_ngwfs T                                                          
charge 9                                                                        
is_implicit_solvent T                                                           
is_auto_solvation T                                                             
is_include_apolar T                                                             
is_smeared_ion_rep T                                                            
is_solvent_surf_tension 4.7624E-5 Ha/bohr**2                                    
is_apolar_scaling_factor 0.281075                                               
is_solvation_beta 1.3                                                           
is_density_threshold 0.00035                                                    
is_bulk_permittivity 78.54                                                      
is_dielectric_model fix_initial                                                 
is_smeared_ion_width 0.8                                                        
mg_defco_fd_order 8                                                             
is_bc_coarseness 10                                                             
is_bc_surface_coarseness 1                                                      
fine_grid_scale 2.0                                                             
%block species                                                                  
N   N   7 4 8.0                                                                 
H   H   1 1 8.0                                                                 
C   C   6 4 8.0                                                                 
S   S  16 9 8.0                                                                 
O   O   8 4 8.0                                                                 
%endblock species                                                               
%block species_pot                                                              
N   N_00.recpot                                                                 
H   H_04.recpot                                                                 
C   C_01.recpot                                                                 
S   S_00.recpot                                                                 
O   O_02.recpot                                                                 
%endblock species_pot                                                           
%block lattice_cart                                                             
139.252   0.000   0.000                                                         
0.000 142.425   0.000                                                           
0.000   0.000   162.84                                                          
%endblock lattice_cart                                                          
%block positions_abs                                                            
     Hash =   000002002947036847652575
%endblock positions_abs                                                         

--------------------------------------------------------------------------------
-------------------------------- END INPUT FILE --------------------------------
--------------------------------------------------------------------------------


 
 ESDF WARNING(1): "kernelcutoff" (esdf_physical) has no units. Assume "bohr".
 ESDF WARNING(2): "kzero" (esdf_physical) has no units. Assume "1/bohr".
 ESDF WARNING(3
 ): "issmearedionwidth" (esdf_physical) has no units. Assume "bohr".
<<<<<<<<<<<<<<<<<<<<<<<<<<<<<<<<< Full system >>>>>>>>>>>>>>>>>>>>>>>>>>>>>>>>>>
<<<<<<<<<<<<<<<<<<<<<<<<< Pseudopotential information >>>>>>>>>>>>>>>>>>>>>>>>>>
File: N_00.recpot [ 2001 points up to Gmax=  52.9 (1/bohr)]
  Atomic number:  7;  ionic charge:  5.000000
    Shell 1: l = 0; rc = 1.48 bohr
File: H_04.recpot [ 2001 points up to Gmax=  52.9 (1/bohr)]
  Atomic number:  1;  ionic charge:  1.000000
    Local potential
File: C_01.recpot [ 2001 points up to Gmax=  52.9 (1/bohr)]
  Atomic number:  6;  ionic charge:  4.000000
    Shell 1: l = 0; rc = 1.48 bohr
File: S_00.recpot [ 2001 points up to Gmax=  52.9 (1/bohr)]
  Atomic number: 16;  ionic charge:  6.000000
    Shell 1: l = 0; rc = 1.90 bohr
    Shell 2: l = 2; rc = 1.84 bohr
File: O_02.recpot [ 2001 points up to Gmax=  52.9 (1/bohr)]
  Atomic number:  8;  ionic charge:  6.000000
    Shell 1: l = 0; rc = 1.31 bohr
<<<<<<<<<<<<<<<<<<<<<<<<<<<<<<<<<<<<<<<<>>>>>>>>>>>>>>>>>>>>>>>>>>>>>>>>>>>>>>>>

-------------------------- Atom counting information ---------------------------
Symbol    Natoms    Nngwfs    Nprojs
  N        236       944       236
  H       1311      1311         0
  C        810      3240       810
  S          6        54        36
  O        239       956       239
.......   ......    ......    ......
Totals:   2602      6505      1321
--------------------------------------------------------------------------------

=============================== PSINC grid sizes ===============================
                      Simulation cell:  275 x 280 x 320
                              FFT-box:   99 x  99 x  99
                                  PPD:    5 x   5 x   1
Grid space d1=  0.506370909091a0 (KE cutoff=  29.62556Eh = 806.15239eV)
Grid space d2=  0.508660714286a0 (KE cutoff=  29.35943Eh = 798.91072eV)
Grid space d3=  0.508875000000a0 (KE cutoff=  29.33471Eh = 798.23802eV)
================================================================================

********************* Fourier parallelisation information **********************
       Coarse grid (whole simulation cell) dimensions:    275   280   320
          Real-space ('12') slabs/node (min max mean):      8     8     8
         Recip-space ('23') slabs/node (min max mean):      3     4     3
********************************************************************************

********************* Fourier parallelisation information **********************
       Double grid (whole simulation cell) dimensions:    550   560   640
          Real-space ('12') slabs/node (min max mean):     16    16    16
         Recip-space ('23') slabs/node (min max mean):      6     7     6
********************************************************************************
ONETEP fine grid is 550 x 560 x 640 gridpoints, 139.2520 x 142.4250 x 162.8400 bohr.
FD multigrid is     545 x 553 x 633 gridpoints, 137.9861 x 140.6447 x 161.0589 bohr.


Calculating local pseudopotential in open BC on a radial grid ...
Discrepancy between calculated realspace psloc and -Z/x on [5a0,257.280a0]:
max |rel. diff| # avg |rel. diff| #  avg rel. diff #  f # pseudopotential file
 0.000256370913    0.000003612608   0.000000072509   55  'N_00.recpot'
 0.000395389207    0.000016224277  -0.000000076597   55  'H_04.recpot'
 0.000377360759    0.000017565724   0.000000149252   55  'C_01.recpot'
 0.000469715301    0.000020587835   0.000000455518   55  'S_00.recpot'
 0.000665442002    0.000026079317   0.000000158685   55  'O_02.recpot'
... done
 WARNING: meta-GGA functionality under development.
          Using this functional is experimental.
          Minimum tau threshold, xc_min_tau =   1.00000000E-12
 WARNING: Using alternative XC functional PBE for 
          radial densities (xc_radial).

Atom SCF Calculation for N  : Z (AE atom) =   7 : Z (PS atom) =   5
Config String:
Orbitals (num,occ):  2     2.00 3.00
Orbitals   (num,l):  2        0    1
Real-space Grid (nr,dr,rmax): 1203    0.0066555740    8.0000000000
Spherical Bessel Basis (nsws,lmax,cutoff):   47    1  176.3951722778
Confining potential (l,width,scale):  0    3.0000000000  100.0000000000
Confining potential (l,width,scale):  1    3.0000000000  100.0000000000
  1         -4.7312375307   -3.4155304497    7.0523828109   -1.9351020946
  2         -9.7309464766   -2.0532547791    8.2966052865   -2.2494486027
  3         -9.6627394379   -2.1124926340    8.2327997121   -2.2369778124
  4         -9.6814993499   -2.1215521045    8.2229805960   -2.2365178421
  5         -9.6843326483   -2.1250939529    8.2191374534   -2.2362718126
  6         -9.6859628709   -2.1267894855    8.2172963573   -2.2362066344
  7         -9.6867347035   -2.1276425665    8.2163697352   -2.2361903369
  8         -9.6870802100   -2.1280764625    8.2158983890   -2.2361891460
  9         -9.6872290423   -2.1282977424    8.2156580222   -2.2361920435
 10         -9.6872901988   -2.1284107021    8.2155353368   -2.2361953393
 11         -9.6873135296   -2.1284684031    8.2154726809   -2.2361979819
 12         -9.6873212476   -2.1284978948    8.2154406648   -2.2361998431
 13         -9.6873229586   -2.1285129774    8.2154242957   -2.2362010676
 14         -9.6873226456   -2.1285206957    8.2154159216   -2.2362018403
 15         -9.6873218534   -2.1285246479    8.2154116349   -2.2362023142
 16         -9.6873212599   -2.1285262679    8.2154098784   -2.2362025420
 17         -9.6873207834   -2.1285272564    8.2154088068   -2.2362026955
 18         -9.6873204210   -2.1285278597    8.2154081529   -2.2362027982
 19         -9.6873201550   -2.1285282280    8.2154077538   -2.2362028667
 20         -9.6873199645   -2.1285284529    8.2154075102   -2.2362029121
 21         -9.6873198305   -2.1285285903    8.2154073614   -2.2362029421
 22         -9.6873197377   -2.1285286742    8.2154072705   -2.2362029618
Atom SCF converged after  22 iterations to a total energy of     -9.68731974

Atom SCF Calculation for H  : Z (AE atom) =   1 : Z (PS atom) =   1
Config String:
Orbitals (num,occ):  1     1.00
Orbitals   (num,l):  1        0
Real-space Grid (nr,dr,rmax): 1203    0.0066555740    8.0000000000
Spherical Bessel Basis (nsws,lmax,cutoff):   47    0  176.3951722778
Confining potential (l,width,scale):  0    3.0000000000  100.0000000000
  1         -0.3194257691   -0.2393854593    0.2820953124   -0.2424203209
  2         -0.3951823392   -0.2377116493    0.2886404059   -0.2475147891
  3         -0.4317044583   -0.2352244387    0.2921333887   -0.2514046172
  4         -0.4470703708   -0.2341892222    0.2934391879   -0.2531009782
  5         -0.4532132900   -0.2338556667    0.2938388426   -0.2537313520
  6         -0.4556579251   -0.2337612552    0.2939448584   -0.2539550462
  7         -0.4566418315   -0.2337377355    0.2939680120   -0.2540342273
  8         -0.4570437922   -0.2337331116    0.2939708287   -0.2540627372
  9         -0.4572102946   -0.2337328328    0.2939698291   -0.2540732650
 10         -0.4572800424   -0.2337332404    0.2939687193   -0.2540772588
 11         -0.4573095100   -0.2337335791    0.2939680317   -0.2540788122
 12         -0.4573220379   -0.2337337762    0.2939676699   -0.2540794294
 13         -0.4573273880   -0.2337338775    0.2939674931   -0.2540796787
 14         -0.4573296803   -0.2337339266    0.2939674099   -0.2540797808
 15         -0.4573306647   -0.2337339495    0.2939673718   -0.2540798230
 16         -0.4573310882   -0.2337339601    0.2939673545   -0.2540798406
 17         -0.4573312706   -0.2337339649    0.2939673467   -0.2540798479
 18         -0.4573313493   -0.2337339670    0.2939673433   -0.2540798510
Atom SCF converged after  18 iterations to a total energy of     -0.45733135

Atom SCF Calculation for C  : Z (AE atom) =   6 : Z (PS atom) =   4
Config String:
Orbitals (num,occ):  2     2.00 2.00
Orbitals   (num,l):  2        0    1
Real-space Grid (nr,dr,rmax): 1203    0.0066555740    8.0000000000
Spherical Bessel Basis (nsws,lmax,cutoff):   47    1  176.3951722778
Confining potential (l,width,scale):  0    3.0000000000  100.0000000000
Confining potential (l,width,scale):  1    3.0000000000  100.0000000000
  1         -5.2976922011   -1.3069684169    4.5135249990   -1.4493313817
  2         -5.3721716256   -1.3429755895    4.4750154450   -1.4361613026
  3         -5.3809959565   -1.3617365618    4.4541655428   -1.4305930207
  4         -5.3918938866   -1.3667928461    4.4484735100   -1.4294652294
  5         -5.3956096428   -1.3688539142    4.4461376126   -1.4290734646
  6         -5.3968271862   -1.3696852393    4.4451910874   -1.4289366866
  7         -5.3972028401   -1.3700178062    4.4448112275   -1.4288900460
  8         -5.3973067903   -1.3701500158    4.4446598370   -1.4288749220
  9         -5.3973286940   -1.3702023868    4.4445997329   -1.4288704293
 10         -5.3973289850   -1.3702230869    4.4445759233   -1.4288693188
 11         -5.3973254264   -1.3702312560    4.4445665049   -1.4288691775
 12         -5.3973224003   -1.3702344755    4.4445627836   -1.4288692549
 13         -5.3973208708   -1.3702354890    4.4445616088   -1.4288693270
 14         -5.3973198783   -1.3702360102    4.4445610034   -1.4288693814
 15         -5.3973192535   -1.3702362780    4.4445606917   -1.4288694190
 16         -5.3973188684   -1.3702364155    4.4445605313   -1.4288694437
 17         -5.3973186349   -1.3702364860    4.4445604489   -1.4288694595
 18         -5.3973184951   -1.3702365221    4.4445604065   -1.4288694693
 19         -5.3973184122   -1.3702365405    4.4445603848   -1.4288694753
Atom SCF converged after  19 iterations to a total energy of     -5.39731841

Atom SCF Calculation for S  : Z (AE atom) =  16 : Z (PS atom) =   6
Config String:
Orbitals (num,occ):  3     2.00 4.00 0.00
Orbitals   (num,l):  3        0    1    2
Real-space Grid (nr,dr,rmax): 1203    0.0066555740    8.0000000000
Spherical Bessel Basis (nsws,lmax,cutoff):   47    2  176.3951722778
Confining potential (l,width,scale):  0    3.0000000000  100.0000000000
Confining potential (l,width,scale):  1    3.0000000000  100.0000000000
Confining potential (l,width,scale):  2    3.0000000000  100.0000000000
  1        -12.4735062396   -1.0328741412   10.1554312477   -2.4512393157
  2         -9.9458301913   -2.4607392455    8.3041325857   -2.0306994528
  3        -10.1450417646   -2.2931184565    8.4831893826   -2.0812538287
  4        -10.1528335592   -2.2733105793    8.5050388867   -2.0896035179
  5        -10.1571940363   -2.2633716629    8.5160794258   -2.0939370707
  6        -10.1594380571   -2.2584938667    8.5215163935   -2.0961289008
  7        -10.1605856507   -2.2561081821    8.5241804044   -2.0972291378
  8        -10.1611799191   -2.2549395235    8.5254868240   -2.0977806248
  9        -10.1614918752   -2.2543658586    8.5261285885   -2.0980571586
 10        -10.1616572884   -2.2540839121    8.5264441898   -2.0981959233
 11        -10.1617455602   -2.2539453058    8.5265994231   -2.0982656006
 12        -10.1617928447   -2.2538772062    8.5266757320   -2.0983006047
 13        -10.1618182292   -2.2538437891    8.5267131983   -2.0983181961
 14        -10.1618318741   -2.2538274201    8.5267315620   -2.0983270391
 15        -10.1618392144   -2.2538194197    8.5267405433   -2.0983314852
 16        -10.1618431651   -2.2538155200    8.5267449245   -2.0983337210
 17        -10.1618452923   -2.2538136252    8.5267470551   -2.0983348455
 18        -10.1618464380   -2.2538127080    8.5267480875   -2.0983354110
 19        -10.1618470552   -2.2538122659    8.5267485856   -2.0983356955
 20        -10.1618473878   -2.2538120540    8.5267488248   -2.0983358386
 21        -10.1618475670   -2.2538119530    8.5267489389   -2.0983359106
 22        -10.1618476637   -2.2538119053    8.5267489929   -2.0983359468
Atom SCF converged after  22 iterations to a total energy of    -10.16184766

Atom SCF Calculation for O  : Z (AE atom) =   8 : Z (PS atom) =   6
Config String:
Orbitals (num,occ):  2     2.00 4.00
Orbitals   (num,l):  2        0    1
Real-space Grid (nr,dr,rmax): 1203    0.0066555740    8.0000000000
Spherical Bessel Basis (nsws,lmax,cutoff):   47    1  176.3951722778
Confining potential (l,width,scale):  0    3.0000000000  100.0000000000
Confining potential (l,width,scale):  1    3.0000000000  100.0000000000
  1         -1.8735052164   -7.5539365035   10.1554312477   -2.4512393157
  2        -16.0318313751   -3.1285771268   13.6395848164   -3.2358799643
  3        -15.9524020423   -3.0762819706   13.6967272503   -3.2536856837
  4        -15.8521515939   -3.0781493909   13.6951909330   -3.2561700440
  5        -15.8357139793   -3.0748501933   13.6988803334   -3.2580493133
  6        -15.8246052853   -3.0740779781   13.6997881576   -3.2588327446
  7        -15.8189019501   -3.0737449687   13.7001869911   -3.2592378801
  8        -15.8159785510   -3.0736026016   13.7003615168   -3.2594475790
  9        -15.8144776168   -3.0735437994   13.7004360379   -3.2595560735
 10        -15.8137058024   -3.0735207882   13.7004667348   -3.2596122456
 11        -15.8133083127   -3.0735125946   13.7004786868   -3.2596413656
 12        -15.8131032938   -3.0735102195   13.7004828997   -3.2596564858
 13        -15.8129973902   -3.0735099286   13.7004840891   -3.2596643505
 14        -15.8129426040   -3.0735102506   13.7004842061   -3.2596684489
 15        -15.8129142203   -3.0735106556   13.7004840157   -3.2596705887
 16        -15.8128994940   -3.0735109855   13.7004837906   -3.2596717080
 17        -15.8128918425   -3.0735112169   13.7004836103   -3.2596722946
 18        -15.8128878614   -3.0735113674   13.7004834848   -3.2596726026
 19        -15.8128857871   -3.0735114608   13.7004834035   -3.2596727646
 20        -15.8128847048   -3.0735115170   13.7004833533   -3.2596728500
 21        -15.8128841394   -3.0735115501   13.7004833231   -3.2596728951
 22        -15.8128838436   -3.0735115693   13.7004833054   -3.2596729190
 23        -15.8128836887   -3.0735115802   13.7004832951   -3.2596729316
 24        -15.8128836074   -3.0735115864   13.7004832893   -3.2596729383
Atom SCF converged after  24 iterations to a total energy of    -15.81288361

========================== Calculation in vacuum ==============================
= Adjusting the following parameters: 
= is_implicit_solvent: F
= is_include_apolar: F
= write_denskern: T
= write_tightbox_ngwfs: T
= restart read filename prefix: ""
= restart write filename prefix: "vacuum_"
===============================================================================

Determining parallel strategy ...
... using space-filling curve
... NGWF load balancing: max    163;  min    162;  average    163
... Projector load balancing: max     36;  min     32;  average     33
... done
Calculating direct Ion-Ion energy ...
Ion-Ion Energy        :    824599.06679650465958
Basis initialisation ...... NGWF spheres initialised
... Projector spheres initialised
... NGWF tight boxes initialised
... Tight-boxes gathered
... NGWF basis size (local,global):    1787473  71375483
... Nonlocal pseudopotential projector initialisation
... done

========================== Sparse matrix information ===========================
                        Overlap matrix filling:   6.71%
                        Density kernel filling: 100.00%
              NGWF-Proj overlap matrix filling:   1.77%
                    Hamiltonian matrix filling:   7.55%
                  NGWF diagonal matrix filling:   0.05%
                             KS matrix filling: 100.00% 
                           KSKS matrix filling: 100.00% 
================================================================================

Sparse matrix initialisation ... done

Generating smeared ion density ... done
Smeared ion self correction:     -14457.169564
Smeared ion non-self correction: -824550.930587
NGWF initialisation ...... done
============ Calculation of NGWF S^-1 using Hotelling algorithm ================ 
         Iteration  |  Frobenius norm and Maximum abs value    (of I-S*S_n^-1)   
               1       0.78420430E+02     0.98200331E+00
               2       0.76527118E+02     0.96450210E+00
               3       0.73476600E+02     0.93088352E+00
               4       0.69166527E+02     0.86873084E+00
               5       0.63824538E+02     0.76346236E+00
               6       0.57846494E+02     0.70448459E+00
               7       0.51866524E+02     0.67047902E+00
               8       0.46336581E+02     0.64403288E+00
               9       0.40217111E+02     0.60105318E+00
              10       0.31849859E+02     0.52721651E+00
              11       0.21218079E+02     0.41478651E+00
              12       0.10693450E+02     0.27382436E+00
              13       0.34554070E+01     0.12957797E+00
              14       0.53759112E+00     0.32368830E-01
              15       0.26647479E-01     0.25054771E-02
              16       0.15681584E-03     0.21141667E-04
              17       0.99168415E-08     0.19117088E-08
              18       0.86829808E-13     0.53290705E-14
================================================================================
Calculating local pseudopotential in open BC on the fine real space grid ...
... done

MG BCs: +ve charge blocks (gridpoints):     20065 (   15747079).
MG BCs: -ve charge blocks (gridpoints):      7845 (    1056334).
MG BCs:     Elided blocks (gridpoints):    177055 (  173973292).
MG BCs: Computational effort saved:  99.9854%.
MG BCs: Charge after coarse-graining:           -9.0002218.
MG DL_MG: Calling solver with defect correction order = 8
MG DL_MG: Solver finished
MG Hartree energy from (\int phi*rho dr):              1462.573721
MG Hartree energy from (\int eps (grad phi)^2 dr):     1461.950794
MG Discrepancy due to finite box and discretization:     -0.622926 (  -0.04259%)
MG Correction to account for finite box:                  0.463176
MG Remaining discrepancy, due to discretization:         -0.159750 (  -0.01092%)
 WARNING: xc_energy_potential using alternative initial XC functional PBE.
Up spin density kernel initialisation ... 
======= Optimisation of K by Palser-Manolopoulos canonical purification ======== 
         Iteration  |  Band structure energy |    c_n   
               1       -2577.40562697705172    0.5269699
               2       -2753.16802974234179    0.5170625
               3       -2933.38197203183790    0.5151680
               4       -3084.04601996186557    0.5281548
               5       -3176.92594701346025    0.5633872
               6       -3215.82280520291260    0.6083133
               7       -3228.95932959134461    0.6197383
               8       -3234.63450805388720    0.6173655
               9       -3237.38751365988355    0.6301513
              10       -3238.52533157187281    0.6543152
              11       -3238.96598072875713    0.6837974
              12       -3239.14334712950813    0.6974913
              13       -3239.22718912909613    0.6690460
              14       -3239.27939923611848    0.6072584
              15       -3239.31431183601171    0.5358663
              16       -3239.33224822748934    0.5096325
              17       -3239.33651873073950    0.5647367
              18       -3239.33741727467577    0.6052779
              19       -3239.33777842513109    0.5807145
              20       -3239.33808945559349    0.5424802
              21       -3239.33835749218815    0.5121654
              22       -3239.33851215998038    0.5009856
              23       -3239.33855103676342    0.5000061
              24       -3239.33855304425833    0.4999998
              25       -3239.33855304936424    0.4999998
Termination criterion satisfied: band energy change below threshold.
Final occupancy bounds: [    0.00000000000000:    1.00000000000000]
Closest occupancy to 0.5:     1.00000000000000
================================================================================
... done

Writing density kernel to file "host_34681.vacuum_dkn" ... done

>>> Optimising kernel for current NGWFs:
   Initial electron number for spin 1:    7192.00000000
     Final electron number for spin 1:    7192.00000000

=================== Penalty functional idempotency correction ==================
 RMS occupancy error at iteration   1:  0.000000 (step -0.5000 Ne1=   7192.0000)
            Final RMS occupancy error   :  0.000000 (Ne1=   7192.0000)
               Final occupancy bounds   : [ -0.0000,  1.0000]
================================================================================

................................................................................
<<<<<<<<<<<<<< LNV (Original version) density kernel optimisation >>>>>>>>>>>>>>
~~~~~~~~~~~~~~~~~~~~~~~~~~~~~~~~~~~~~~~~~~~~~~~~~~~~~~~~~~~~~~~~~~~~~~~~~~~~~~~~
   iter  |      energy (Eh)       | rms gradient |  commutator  |   dE (Eh)
MG BCs: +ve charge blocks (gridpoints):     30522 (   16968000).
MG BCs: -ve charge blocks (gridpoints):      8208 (    1088717).
MG BCs:     Elided blocks (gridpoints):    166588 (  172719988).
MG BCs: Computational effort saved:  99.9797%.
MG BCs: Charge after coarse-graining:           -9.0009327.
MG DL_MG: Calling solver with defect correction order = 8
MG DL_MG: Solver finished
MG Hartree energy from (\int phi*rho dr):              1416.095666
MG Hartree energy from (\int eps (grad phi)^2 dr):     1415.419484
MG Discrepancy due to finite box and discretization:     -0.676182 (  -0.04775%)
MG Correction to account for finite box:                  0.470866
MG Remaining discrepancy, due to discretization:         -0.205315 (  -0.01450%)
      ideal mu1:      -0.747739787366
             Q0:  -11470.084148711991
             G0:    -123.507435559412
   RMS gradient:       0.001708438113
MG BCs: +ve charge blocks (gridpoints):     30482 (   17043580).
MG BCs: -ve charge blocks (gridpoints):      8102 (    1066795).
MG BCs:     Elided blocks (gridpoints):    166630 (  172666330).
MG BCs: Computational effort saved:  99.9798%.
MG BCs: Charge after coarse-graining:           -9.0009569.
MG DL_MG: Calling solver with defect correction order = 8
MG DL_MG: Solver finished
MG Hartree energy from (\int phi*rho dr):              1438.983084
MG Hartree energy from (\int eps (grad phi)^2 dr):     1438.324937
MG Discrepancy due to finite box and discretization:     -0.658148 (  -0.04574%)
MG Correction to account for finite box:                  0.469177
MG Remaining discrepancy, due to discretization:         -0.188971 (  -0.01313%)
     Trial step:       0.500000000000
             Q1:  -11481.910550965345
 Quadratic coef:      49.927315526351
 Linear coef   :     -61.753717779706
           Qmin:  -11489.179515744107
Quadratic minimum step length (  0.309218095990) accepted
    Initial Ne1:    7192.00000000
      Final Ne1:    7192.00000000

=================== Penalty functional idempotency correction ==================
 RMS occupancy error at iteration   1:  0.003115 (step -0.4895 Ne1=   7192.0000)
 RMS occupancy error at iteration   2:  0.000022 (step -0.5000 Ne1=   7192.0000)
            Final RMS occupancy error   :  0.000000 (Ne1=   7192.0000)
               Final occupancy bounds   : [  0.0000,  1.0000]
================================================================================

    1        -1.147008414871E+04     1.7084E-03     1.5452E-03
MG BCs: +ve charge blocks (gridpoints):     30494 (   17016220).
MG BCs: -ve charge blocks (gridpoints):      8154 (    1075509).
MG BCs:     Elided blocks (gridpoints):    166617 (  172684976).
MG BCs: Computational effort saved:  99.9797%.
MG BCs: Charge after coarse-graining:           -9.0009477.
MG DL_MG: Calling solver with defect correction order = 8
MG DL_MG: Solver finished
MG Hartree energy from (\int phi*rho dr):              1423.778215
MG Hartree energy from (\int eps (grad phi)^2 dr):     1423.114055
MG Discrepancy due to finite box and discretization:     -0.664160 (  -0.04665%)
MG Correction to account for finite box:                  0.469723
MG Remaining discrepancy, due to discretization:         -0.194437 (  -0.01366%)
      ideal mu1:      -0.787431596390
             Q0:  -11489.542928731767
             G0:     -10.901541741745
   RMS gradient:       0.000503991815
MG BCs: +ve charge blocks (gridpoints):     30493 (   17032717).
MG BCs: -ve charge blocks (gridpoints):      8117 (    1068787).
MG BCs:     Elided blocks (gridpoints):    166617 (  172675201).
MG BCs: Computational effort saved:  99.9798%.
MG BCs: Charge after coarse-graining:           -9.0009529.
MG DL_MG: Calling solver with defect correction order = 8
MG DL_MG: Solver finished
MG Hartree energy from (\int phi*rho dr):              1429.449341
MG Hartree energy from (\int eps (grad phi)^2 dr):     1428.789080
MG Discrepancy due to finite box and discretization:     -0.660261 (  -0.04619%)
MG Correction to account for finite box:                  0.469038
MG Remaining discrepancy, due to discretization:         -0.191223 (  -0.01338%)
     Trial step:       0.393203570679
             Q1:  -11492.036737071234
 Quadratic coef:       1.792716799295
 Linear coef   :      -4.286525138761
           Qmin:  -11492.105282385794
Quadratic minimum step length (  0.470090142244) accepted
    Initial Ne1:    7191.99993441
      Final Ne1:    7192.00000000

=================== Penalty functional idempotency correction ==================
 RMS occupancy error at iteration   1:  0.001467 (step -0.4947 Ne1=   7192.0000)
 RMS occupancy error at iteration   2:  0.000006 (step -0.5000 Ne1=   7192.0000)
            Final RMS occupancy error   :  0.000000 (Ne1=   7192.0000)
               Final occupancy bounds   : [  0.0000,  1.0000]
================================================================================

    2        -1.148954292873E+04     5.0399E-04     4.5585E-04    -1.9459E+01
MG BCs: +ve charge blocks (gridpoints):     30491 (   17035861).
MG BCs: -ve charge blocks (gridpoints):      8107 (    1067557).
MG BCs:     Elided blocks (gridpoints):    166619 (  172673287).
MG BCs: Computational effort saved:  99.9798%.
MG BCs: Charge after coarse-graining:           -9.0009539.
MG DL_MG: Calling solver with defect correction order = 8
MG DL_MG: Solver finished
MG Hartree energy from (\int phi*rho dr):              1430.582862
MG Hartree energy from (\int eps (grad phi)^2 dr):     1429.923318
MG Discrepancy due to finite box and discretization:     -0.659545 (  -0.04610%)
MG Correction to account for finite box:                  0.468911
MG Remaining discrepancy, due to discretization:         -0.190633 (  -0.01333%)
      ideal mu1:      -0.808028843284
             Q0:  -11492.137460376369
             G0:      -1.805132368807
   RMS gradient:       0.000205158167
MG BCs: +ve charge blocks (gridpoints):     30486 (   17037027).
MG BCs: -ve charge blocks (gridpoints):      8105 (    1067561).
MG BCs:     Elided blocks (gridpoints):    166626 (  172672117).
MG BCs: Computational effort saved:  99.9798%.
MG BCs: Charge after coarse-graining:           -9.0009540.
MG DL_MG: Calling solver with defect correction order = 8
MG DL_MG: Solver finished
MG Hartree energy from (\int phi*rho dr):              1429.956062
MG Hartree energy from (\int eps (grad phi)^2 dr):     1429.296954
MG Discrepancy due to finite box and discretization:     -0.659108 (  -0.04609%)
MG Correction to account for finite box:                  0.468671
MG Remaining discrepancy, due to discretization:         -0.190436 (  -0.01332%)
     Trial step:       0.429931532306
             Q1:  -11492.598237222061
 Quadratic coef:       0.315306479646
 Linear coef   :      -0.776083325337
           Qmin:  -11492.615015839661
Quadratic minimum step length (  0.529108525829) accepted
    Initial Ne1:    7191.99997939
      Final Ne1:    7192.00000000

=================== Penalty functional idempotency correction ==================
 RMS occupancy error at iteration   1:  0.000558 (step -0.4979 Ne1=   7192.0000)
 RMS occupancy error at iteration   2:  0.000001 (step -0.5000 Ne1=   7192.0000)
            Final RMS occupancy error   :  0.000000 (Ne1=   7192.0000)
               Final occupancy bounds   : [  0.0000,  1.0000]
================================================================================

    3        -1.149213746038E+04     2.0516E-04     1.8556E-04    -2.5945E+00
MG BCs: +ve charge blocks (gridpoints):     30488 (   17037428).
MG BCs: -ve charge blocks (gridpoints):      8103 (    1067510).
MG BCs:     Elided blocks (gridpoints):    166624 (  172671767).
MG BCs: Computational effort saved:  99.9798%.
MG BCs: Charge after coarse-graining:           -9.0009540.
MG DL_MG: Calling solver with defect correction order = 8
MG DL_MG: Solver finished
MG Hartree energy from (\int phi*rho dr):              1429.816532
MG Hartree energy from (\int eps (grad phi)^2 dr):     1429.157514
MG Discrepancy due to finite box and discretization:     -0.659018 (  -0.04609%)
MG Correction to account for finite box:                  0.468617
MG Remaining discrepancy, due to discretization:         -0.190401 (  -0.01332%)
      ideal mu1:      -0.810764015140
             Q0:  -11492.619382715900
             G0:      -0.387722329835
   RMS gradient:       0.000095253931
MG BCs: +ve charge blocks (gridpoints):     30488 (   17037713).
MG BCs: -ve charge blocks (gridpoints):      8102 (    1067418).
MG BCs:     Elided blocks (gridpoints):    166624 (  172671574).
MG BCs: Computational effort saved:  99.9798%.
MG BCs: Charge after coarse-graining:           -9.0009540.
MG DL_MG: Calling solver with defect correction order = 8
MG DL_MG: Solver finished
MG Hartree energy from (\int phi*rho dr):              1430.862885
MG Hartree energy from (\int eps (grad phi)^2 dr):     1430.203737
MG Discrepancy due to finite box and discretization:     -0.659148 (  -0.04607%)
MG Correction to account for finite box:                  0.468570
MG Remaining discrepancy, due to discretization:         -0.190579 (  -0.01332%)
     Trial step:       0.476949095047
             Q1:  -11492.714630458620
 Quadratic coef:       0.089676071624
 Linear coef   :      -0.184923814344
           Qmin:  -11492.714717002105
Quadratic minimum step length (  0.491765776013) accepted
    Initial Ne1:    7191.99999575
      Final Ne1:    7192.00000000

=================== Penalty functional idempotency correction ==================
 RMS occupancy error at iteration   1:  0.000177 (step -0.4993 Ne1=   7192.0000)
            Final RMS occupancy error   :  0.000000 (Ne1=   7192.0000)
               Final occupancy bounds   : [ -0.0000,  1.0000]
================================================================================

    4        -1.149261938272E+04     9.5254E-05     8.6155E-05    -4.8192E-01
MG BCs: +ve charge blocks (gridpoints):     30488 (   17037712).
MG BCs: -ve charge blocks (gridpoints):      8102 (    1067427).
MG BCs:     Elided blocks (gridpoints):    166624 (  172671566).
MG BCs: Computational effort saved:  99.9798%.
MG BCs: Charge after coarse-graining:           -9.0009540.
MG DL_MG: Calling solver with defect correction order = 8
MG DL_MG: Solver finished
MG Hartree energy from (\int phi*rho dr):              1430.895622
MG Hartree energy from (\int eps (grad phi)^2 dr):     1430.236470
MG Discrepancy due to finite box and discretization:     -0.659153 (  -0.04607%)
MG Correction to account for finite box:                  0.468568
MG Remaining discrepancy, due to discretization:         -0.190584 (  -0.01332%)
      ideal mu1:      -0.810715153386
             Q0:  -11492.715116891544
             G0:      -0.100722495268
   RMS gradient:       0.000048687161
MG BCs: +ve charge blocks (gridpoints):     30488 (   17037352).
MG BCs: -ve charge blocks (gridpoints):      8100 (    1067617).
MG BCs:     Elided blocks (gridpoints):    166624 (  172671736).
MG BCs: Computational effort saved:  99.9798%.
MG BCs: Charge after coarse-graining:           -9.0009537.
MG DL_MG: Calling solver with defect correction order = 8
MG DL_MG: Solver finished
MG Hartree energy from (\int phi*rho dr):              1430.609411
MG Hartree energy from (\int eps (grad phi)^2 dr):     1429.950101
MG Discrepancy due to finite box and discretization:     -0.659310 (  -0.04609%)
MG Correction to account for finite box:                  0.468583
MG Remaining discrepancy, due to discretization:         -0.190727 (  -0.01333%)
     Trial step:       0.484300776217
             Q1:  -11492.738398847985
 Quadratic coef:       0.025498026200
 Linear coef   :      -0.048779982641
           Qmin:  -11492.738446998430
Quadratic minimum step length (  0.463255141236) accepted
    Initial Ne1:    7192.00162462
      Final Ne1:    7192.00000000

=================== Penalty functional idempotency correction ==================
 RMS occupancy error at iteration   1:  0.000059 (step -0.4998 Ne1=   7192.0000)
            Final RMS occupancy error   :  0.000000 (Ne1=   7192.0000)
               Final occupancy bounds   : [ -0.0000,  1.0000]
================================================================================

    5        -1.149271511689E+04     4.8687E-05     4.4036E-05    -9.5734E-02
MG BCs: +ve charge blocks (gridpoints):     30487 (   17037403).
MG BCs: -ve charge blocks (gridpoints):      8100 (    1067617).
MG BCs:     Elided blocks (gridpoints):    166625 (  172671685).
MG BCs: Computational effort saved:  99.9798%.
MG BCs: Charge after coarse-graining:           -9.0009536.
MG DL_MG: Calling solver with defect correction order = 8
MG DL_MG: Solver finished
MG Hartree energy from (\int phi*rho dr):              1430.621820
MG Hartree energy from (\int eps (grad phi)^2 dr):     1429.962516
MG Discrepancy due to finite box and discretization:     -0.659303 (  -0.04609%)
MG Correction to account for finite box:                  0.468583
MG Remaining discrepancy, due to discretization:         -0.190721 (  -0.01333%)
      ideal mu1:      -0.810192038947
             Q0:  -11492.738488677656
             G0:      -0.023596556855
   RMS gradient:       0.000023589397
MG BCs: +ve charge blocks (gridpoints):     30488 (   17037127).
MG BCs: -ve charge blocks (gridpoints):      8101 (    1067786).
MG BCs:     Elided blocks (gridpoints):    166624 (  172671792).
MG BCs: Computational effort saved:  99.9798%.
MG BCs: Charge after coarse-graining:           -9.0009536.
MG DL_MG: Calling solver with defect correction order = 8
MG DL_MG: Solver finished
MG Hartree energy from (\int phi*rho dr):              1430.153863
MG Hartree energy from (\int eps (grad phi)^2 dr):     1429.494543
MG Discrepancy due to finite box and discretization:     -0.659320 (  -0.04610%)
MG Correction to account for finite box:                  0.468589
MG Remaining discrepancy, due to discretization:         -0.190731 (  -0.01334%)
     Trial step:       0.473661086102
             Q1:  -11492.745291454834
 Quadratic coef:       0.004373993570
 Linear coef   :      -0.011176770748
           Qmin:  -11492.745628617527
Quadratic minimum step length (  0.605167941733) accepted
    Initial Ne1:    7192.00074222
      Final Ne1:    7192.00000000

=================== Penalty functional idempotency correction ==================
 RMS occupancy error at iteration   1:  0.000024 (step -0.4999 Ne1=   7192.0000)
            Final RMS occupancy error   :  0.000000 (Ne1=   7192.0000)
               Final occupancy bounds   : [ -0.0000,  1.0000]
================================================================================

    6        -1.149273848868E+04     2.3589E-05     2.1336E-05    -2.3372E-02
MG BCs: +ve charge blocks (gridpoints):     30488 (   17037110).
MG BCs: -ve charge blocks (gridpoints):      8102 (    1067813).
MG BCs:     Elided blocks (gridpoints):    166624 (  172671782).
MG BCs: Computational effort saved:  99.9798%.
MG BCs: Charge after coarse-graining:           -9.0009535.
MG DL_MG: Calling solver with defect correction order = 8
MG DL_MG: Solver finished
MG Hartree energy from (\int phi*rho dr):              1430.023802
MG Hartree energy from (\int eps (grad phi)^2 dr):     1429.364478
MG Discrepancy due to finite box and discretization:     -0.659324 (  -0.04611%)
MG Correction to account for finite box:                  0.468590
MG Remaining discrepancy, due to discretization:         -0.190734 (  -0.01334%)
      ideal mu1:      -0.810110561938
             Q0:  -11492.745633791434
             G0:      -0.008629783635
   RMS gradient:       0.000014280804
MG BCs: +ve charge blocks (gridpoints):     30486 (   17037437).
MG BCs: -ve charge blocks (gridpoints):      8101 (    1067592).
MG BCs:     Elided blocks (gridpoints):    166626 (  172671676).
MG BCs: Computational effort saved:  99.9798%.
MG BCs: Charge after coarse-graining:           -9.0009537.
MG DL_MG: Calling solver with defect correction order = 8
MG DL_MG: Solver finished
MG Hartree energy from (\int phi*rho dr):              1430.511182
MG Hartree energy from (\int eps (grad phi)^2 dr):     1429.851862
MG Discrepancy due to finite box and discretization:     -0.659320 (  -0.04609%)
MG Correction to account for finite box:                  0.468580
MG Remaining discrepancy, due to discretization:         -0.190740 (  -0.01333%)
     Trial step:       0.535391916781
             Q1:  -11492.747801079182
 Quadratic coef:       0.002453028654
 Linear coef   :      -0.004620316402
           Qmin:  -11492.747809400311
Quadratic minimum step length (  0.504209368028) accepted
    Initial Ne1:    7192.00004323
      Final Ne1:    7192.00000000

=================== Penalty functional idempotency correction ==================
 RMS occupancy error at iteration   1:  0.000001 (step -0.5000 Ne1=   7192.0000)
            Final RMS occupancy error   :  0.000000 (Ne1=   7192.0000)
               Final occupancy bounds   : [  0.0000,  1.0000]
================================================================================

    7        -1.149274563379E+04     1.4281E-05     1.2917E-05    -7.1451E-03
MG BCs: +ve charge blocks (gridpoints):     30486 (   17037403).
MG BCs: -ve charge blocks (gridpoints):      8101 (    1067608).
MG BCs:     Elided blocks (gridpoints):    166626 (  172671694).
MG BCs: Computational effort saved:  99.9798%.
MG BCs: Charge after coarse-graining:           -9.0009537.
MG DL_MG: Calling solver with defect correction order = 8
MG DL_MG: Solver finished
MG Hartree energy from (\int phi*rho dr):              1430.482772
MG Hartree energy from (\int eps (grad phi)^2 dr):     1429.823452
MG Discrepancy due to finite box and discretization:     -0.659320 (  -0.04609%)
MG Correction to account for finite box:                  0.468581
MG Remaining discrepancy, due to discretization:         -0.190739 (  -0.01333%)
      ideal mu1:      -0.810427955241
             Q0:  -11492.747809421271
             G0:      -0.004422416085
   RMS gradient:       0.000010223301
MG BCs: +ve charge blocks (gridpoints):     30486 (   17037478).
MG BCs: -ve charge blocks (gridpoints):      8101 (    1067561).
MG BCs:     Elided blocks (gridpoints):    166626 (  172671666).
MG BCs: Computational effort saved:  99.9798%.
MG BCs: Charge after coarse-graining:           -9.0009537.
MG DL_MG: Calling solver with defect correction order = 8
MG DL_MG: Solver finished
MG Hartree energy from (\int phi*rho dr):              1430.519001
MG Hartree energy from (\int eps (grad phi)^2 dr):     1429.859691
MG Discrepancy due to finite box and discretization:     -0.659310 (  -0.04609%)
MG Correction to account for finite box:                  0.468577
MG Remaining discrepancy, due to discretization:         -0.190733 (  -0.01333%)
     Trial step:       0.519566761839
             Q1:  -11492.749461033731
 Quadratic coef:       0.000646127944
 Linear coef   :      -0.002297740405
           Qmin:  -11492.749852209783
Quadratic minimum step length (  0.923833701828) accepted
    Initial Ne1:    7192.00004037
      Final Ne1:    7192.00000000

=================== Penalty functional idempotency correction ==================
 RMS occupancy error at iteration   1:  0.000008 (step -0.4998 Ne1=   7192.0000)
            Final RMS occupancy error   :  0.000000 (Ne1=   7192.0000)
               Final occupancy bounds   : [ -0.0000,  1.0000]
================================================================================

    8        -1.149274780942E+04     1.0223E-05     9.2467E-06    -2.1756E-03
MG BCs: +ve charge blocks (gridpoints):     30486 (   17037502).
MG BCs: -ve charge blocks (gridpoints):      8101 (    1067523).
MG BCs:     Elided blocks (gridpoints):    166626 (  172671680).
MG BCs: Computational effort saved:  99.9798%.
MG BCs: Charge after coarse-graining:           -9.0009538.
MG DL_MG: Calling solver with defect correction order = 8
MG DL_MG: Solver finished
MG Hartree energy from (\int phi*rho dr):              1430.546715
MG Hartree energy from (\int eps (grad phi)^2 dr):     1429.887413
MG Discrepancy due to finite box and discretization:     -0.659302 (  -0.04609%)
MG Correction to account for finite box:                  0.468573
MG Remaining discrepancy, due to discretization:         -0.190728 (  -0.01333%)
      ideal mu1:      -0.810507908864
             Q0:  -11492.749850860098
             G0:      -0.004959758986
   RMS gradient:       0.000010833845
MG BCs: +ve charge blocks (gridpoints):     30485 (   17037400).
MG BCs: -ve charge blocks (gridpoints):      8102 (    1067627).
MG BCs:     Elided blocks (gridpoints):    166627 (  172671678).
MG BCs: Computational effort saved:  99.9798%.
MG BCs: Charge after coarse-graining:           -9.0009537.
MG DL_MG: Calling solver with defect correction order = 8
MG DL_MG: Solver finished
MG Hartree energy from (\int phi*rho dr):              1430.299058
MG Hartree energy from (\int eps (grad phi)^2 dr):     1429.639779
MG Discrepancy due to finite box and discretization:     -0.659278 (  -0.04609%)
MG Correction to account for finite box:                  0.468562
MG Remaining discrepancy, due to discretization:         -0.190717 (  -0.01333%)
     Trial step:       0.692815476831
             Q1:  -11492.751840167912
 Quadratic coef:       0.001446889974
 Linear coef   :      -0.003436197787
           Qmin:  -11492.751891004036
Quadratic minimum step length (  0.822678659670) accepted
    Initial Ne1:    7192.00006243
      Final Ne1:    7192.00000000

=================== Penalty functional idempotency correction ==================
 RMS occupancy error at iteration   1:  0.000028 (step -0.4993 Ne1=   7192.0000)
            Final RMS occupancy error   :  0.000000 (Ne1=   7192.0000)
               Final occupancy bounds   : [ -0.0000,  1.0000]
================================================================================

    9        -1.149274985086E+04     1.0834E-05     9.7990E-06    -2.0414E-03
MG BCs: +ve charge blocks (gridpoints):     30485 (   17037408).
MG BCs: -ve charge blocks (gridpoints):      8102 (    1067638).
MG BCs:     Elided blocks (gridpoints):    166627 (  172671659).
MG BCs: Computational effort saved:  99.9798%.
MG BCs: Charge after coarse-graining:           -9.0009537.
MG DL_MG: Calling solver with defect correction order = 8
MG DL_MG: Solver finished
MG Hartree energy from (\int phi*rho dr):              1430.252248
MG Hartree energy from (\int eps (grad phi)^2 dr):     1429.592975
MG Discrepancy due to finite box and discretization:     -0.659274 (  -0.04609%)
MG Correction to account for finite box:                  0.468560
MG Remaining discrepancy, due to discretization:         -0.190714 (  -0.01333%)
      ideal mu1:      -0.810322037504
   10        -1.149275189000E+04     1.0089E-05     9.1257E-06    -2.0391E-03
Finished density kernel iterations (  10)

Writing density kernel to file "host_34681.vacuum_dkn" ... done


>>> Density kernel optimised for the current NGWF basis:
     ~~~~~~~~~~~~~~~~~~~~~~~~~~~~~~~~~~~~~~~~~~~~~~~~~~~~~~~~~~~
     Total energy                =  -1.14927518900027E+04  Eh
     Estimated bandgap           =  -2.3276E-01  Eh
     RMS occupancy error         =   1.7867E-08
     [H,K] commutator            =   9.1257E-06
     Occupancy bounds            = [ -0.000:  1.000]
     ~~~~~~~~~~~~~~~~~~~~~~~~~~~~~~~~~~~~~~~~~~~~~~~~~~~~~~~~~~~




################################################################################
########################### NGWF CG iteration  001 #############################
################################################################################
****** Reciprocal space K.E. preconditioning with k_zero =  3.5000 a0^-1 *******

>>> Checking for convergence of NGWFs:   NOT CONVERGED
  ========================================================================
         NGWF RMS gradient =  1.6994E-03 >  2.0000E-06  | above tolerance
  ========================================================================

>>> Improving NGWFs using line search:
============ Calculation of NGWF S^-1 using Hotelling algorithm ================ 
         Iteration  |  Frobenius norm and Maximum abs value    (of I-S*S_n^-1)   
               1       0.24950238E+00     0.72154481E-02
               2       0.14532219E-02     0.66865201E-04
               3       0.83228990E-07     0.60432578E-08
               4       0.13003747E-12     0.61062266E-14
================================================================================
MG BCs: +ve charge blocks (gridpoints):     30034 (   16981327).
MG BCs: -ve charge blocks (gridpoints):      8110 (    1064121).
MG BCs:     Elided blocks (gridpoints):    167079 (  172731257).
MG BCs: Computational effort saved:  99.9800%.
MG BCs: Charge after coarse-graining:           -9.0009621.
MG DL_MG: Calling solver with defect correction order = 8
MG DL_MG: Solver finished
MG Hartree energy from (\int phi*rho dr):              1401.479415
MG Hartree energy from (\int eps (grad phi)^2 dr):     1400.821941
MG Discrepancy due to finite box and discretization:     -0.657474 (  -0.04691%)
MG Correction to account for finite box:                  0.468496
MG Remaining discrepancy, due to discretization:         -0.188978 (  -0.01348%)
============ Calculation of NGWF S^-1 using Hotelling algorithm ================ 
         Iteration  |  Frobenius norm and Maximum abs value    (of I-S*S_n^-1)   
               1       0.21555042E+01     0.50417458E-01
               2       0.96042523E-01     0.33099107E-02
               3       0.26819220E-03     0.15770018E-04
               4       0.37452764E-08     0.37274961E-09
               5       0.11195597E-12     0.48849813E-14
================================================================================
------------------------------- NGWF line search -------------------------------
RMS gradient                =       0.00169942070430
Trial step length           =               0.122474
Gradient along search dir.  =       -307.39699751901
Functional at step 0        =  -11492.75189000274986
Functional at step 1        =  -11527.35325091937557
Functional predicted        =  -11609.04881139371537
Selected quadratic step     =               0.756656
--------------------------- NGWF line search finished --------------------------
                                               
Writing NGWFs to file "host_34681.vacuum_tightbox_ngwfs"....  done

>>> Optimising kernel for current NGWFs:
   Initial electron number for spin 1:    7238.52631188
     Final electron number for spin 1:    7192.00000000

=================== Penalty functional idempotency correction ==================
 RMS occupancy error at iteration   1:  0.005422 (step -0.4813 Ne1=   7192.0000)
 RMS occupancy error at iteration   2:  0.000106 (step -0.5003 Ne1=   7192.0000)
            Final RMS occupancy error   :  0.000000 (Ne1=   7192.0000)
               Final occupancy bounds   : [  0.0000,  1.0000]
================================================================================

................................................................................
<<<<<<<<<<<<<< LNV (Original version) density kernel optimisation >>>>>>>>>>>>>>
~~~~~~~~~~~~~~~~~~~~~~~~~~~~~~~~~~~~~~~~~~~~~~~~~~~~~~~~~~~~~~~~~~~~~~~~~~~~~~~~
   iter  |      energy (Eh)       | rms gradient |  commutator  |   dE (Eh)
MG BCs: +ve charge blocks (gridpoints):     24866 (   16678053).
MG BCs: -ve charge blocks (gridpoints):      8226 (    1034642).
MG BCs:     Elided blocks (gridpoints):    172254 (  173064010).
MG BCs: Computational effort saved:  99.9827%.
MG BCs: Charge after coarse-graining:           -9.0007424.
MG DL_MG: Calling solver with defect correction order = 8
MG DL_MG: Solver finished
MG Hartree energy from (\int phi*rho dr):              1273.938521
MG Hartree energy from (\int eps (grad phi)^2 dr):     1273.285016
MG Discrepancy due to finite box and discretization:     -0.653505 (  -0.05130%)
MG Correction to account for finite box:                  0.468198
MG Remaining discrepancy, due to discretization:         -0.185307 (  -0.01455%)
      ideal mu1:      -0.753435802524
             Q0:  -11608.443593583303
             G0:      -9.392837640799
   RMS gradient:       0.000471141225
MG BCs: +ve charge blocks (gridpoints):     24930 (   16690229).
MG BCs: -ve charge blocks (gridpoints):      8219 (    1031211).
MG BCs:     Elided blocks (gridpoints):    172190 (  173055265).
MG BCs: Computational effort saved:  99.9826%.
MG BCs: Charge after coarse-graining:           -9.0007383.
MG DL_MG: Calling solver with defect correction order = 8
MG DL_MG: Solver finished
MG Hartree energy from (\int phi*rho dr):              1287.412359
MG Hartree energy from (\int eps (grad phi)^2 dr):     1286.753486
MG Discrepancy due to finite box and discretization:     -0.658873 (  -0.05118%)
MG Correction to account for finite box:                  0.468091
MG Remaining discrepancy, due to discretization:         -0.190781 (  -0.01482%)
     Trial step:       0.754959937929
             Q1:  -11607.481613924843
 Quadratic coef:       8.053195780734
 Linear coef   :      -7.091216122275
           Qmin:  -11610.004630576006
Quadratic minimum step length (  0.332388795037) accepted
    Initial Ne1:    7191.99881777
      Final Ne1:    7192.00000000

=================== Penalty functional idempotency correction ==================
 RMS occupancy error at iteration   1:  0.000349 (step -0.4986 Ne1=   7192.0000)
 RMS occupancy error at iteration   2:  0.000000 (step -0.5000 Ne1=   7192.0000)
            Final RMS occupancy error   :  0.000000 (Ne1=   7192.0000)
               Final occupancy bounds   : [  0.0000,  1.0000]
================================================================================

    1        -1.160844359358E+04     4.7114E-04     4.2614E-04
MG BCs: +ve charge blocks (gridpoints):     24892 (   16683580).
MG BCs: -ve charge blocks (gridpoints):      8228 (    1033084).
MG BCs:     Elided blocks (gridpoints):    172228 (  173060041).
MG BCs: Computational effort saved:  99.9826%.
MG BCs: Charge after coarse-graining:           -9.0007405.
MG DL_MG: Calling solver with defect correction order = 8
MG DL_MG: Solver finished
MG Hartree energy from (\int phi*rho dr):              1278.845476
MG Hartree energy from (\int eps (grad phi)^2 dr):     1278.189704
MG Discrepancy due to finite box and discretization:     -0.655772 (  -0.05128%)
MG Correction to account for finite box:                  0.468139
MG Remaining discrepancy, due to discretization:         -0.187633 (  -0.01467%)
      ideal mu1:      -0.759396934536
             Q0:  -11609.984740945627
             G0:      -0.855449462559
   RMS gradient:       0.000142692152
MG BCs: +ve charge blocks (gridpoints):     24896 (   16683064).
MG BCs: -ve charge blocks (gridpoints):      8230 (    1033926).
MG BCs:     Elided blocks (gridpoints):    172224 (  173059715).
MG BCs: Computational effort saved:  99.9826%.
MG BCs: Charge after coarse-graining:           -9.0007404.
MG DL_MG: Calling solver with defect correction order = 8
MG DL_MG: Solver finished
MG Hartree energy from (\int phi*rho dr):              1279.393278
MG Hartree energy from (\int eps (grad phi)^2 dr):     1278.737224
MG Discrepancy due to finite box and discretization:     -0.656054 (  -0.05128%)
MG Correction to account for finite box:                  0.468144
MG Remaining discrepancy, due to discretization:         -0.187910 (  -0.01469%)
     Trial step:       0.500939341707
             Q1:  -11610.179057704052
 Quadratic coef:       0.234211532214
 Linear coef   :      -0.428528290638
           Qmin:  -11610.180756588134
Quadratic minimum step length (  0.458275213406) accepted
    Initial Ne1:    7191.99985048
      Final Ne1:    7192.00000000

=================== Penalty functional idempotency correction ==================
 RMS occupancy error at iteration   1:  0.000134 (step -0.4995 Ne1=   7192.0000)
            Final RMS occupancy error   :  0.000000 (Ne1=   7192.0000)
               Final occupancy bounds   : [ -0.0000,  1.0000]
================================================================================

    2        -1.160998474095E+04     1.4269E-04     1.2906E-04    -1.5411E+00
MG BCs: +ve charge blocks (gridpoints):     24894 (   16683053).
MG BCs: -ve charge blocks (gridpoints):      8229 (    1033874).
MG BCs:     Elided blocks (gridpoints):    172226 (  173059778).
MG BCs: Computational effort saved:  99.9826%.
MG BCs: Charge after coarse-graining:           -9.0007404.
MG DL_MG: Calling solver with defect correction order = 8
MG DL_MG: Solver finished
MG Hartree energy from (\int phi*rho dr):              1279.347129
MG Hartree energy from (\int eps (grad phi)^2 dr):     1278.691100
MG Discrepancy due to finite box and discretization:     -0.656029 (  -0.05128%)
MG Correction to account for finite box:                  0.468144
MG Remaining discrepancy, due to discretization:         -0.187885 (  -0.01469%)
      ideal mu1:      -0.760108399317
             Q0:  -11610.181128651253
             G0:      -0.168686883653
   RMS gradient:       0.000063075918
MG BCs: +ve charge blocks (gridpoints):     24892 (   16682554).
MG BCs: -ve charge blocks (gridpoints):      8229 (    1034183).
MG BCs:     Elided blocks (gridpoints):    172228 (  173059968).
MG BCs: Computational effort saved:  99.9826%.
MG BCs: Charge after coarse-graining:           -9.0007403.
MG DL_MG: Calling solver with defect correction order = 8
MG DL_MG: Solver finished
MG Hartree energy from (\int phi*rho dr):              1278.777642
MG Hartree energy from (\int eps (grad phi)^2 dr):     1278.121715
MG Discrepancy due to finite box and discretization:     -0.655927 (  -0.05129%)
MG Correction to account for finite box:                  0.468140
MG Remaining discrepancy, due to discretization:         -0.187788 (  -0.01468%)
     Trial step:       0.479132636881
             Q1:  -11610.230301734060
 Quadratic coef:       0.031650308565
 Linear coef   :      -0.080823391372
           Qmin:  -11610.232727047043
Quadratic minimum step length (  0.611765356885) accepted
    Initial Ne1:    7192.00051193
      Final Ne1:    7192.00000000

=================== Penalty functional idempotency correction ==================
 RMS occupancy error at iteration   1:  0.000068 (step -0.4998 Ne1=   7192.0000)
            Final RMS occupancy error   :  0.000000 (Ne1=   7192.0000)
               Final occupancy bounds   : [ -0.0000,  1.0000]
================================================================================

    3        -1.161018112865E+04     6.3076E-05     5.7051E-05    -1.9639E-01
MG BCs: +ve charge blocks (gridpoints):     24891 (   16682420).
MG BCs: -ve charge blocks (gridpoints):      8230 (    1034277).
MG BCs:     Elided blocks (gridpoints):    172229 (  173060008).
MG BCs: Computational effort saved:  99.9826%.
MG BCs: Charge after coarse-graining:           -9.0007403.
MG DL_MG: Calling solver with defect correction order = 8
MG DL_MG: Solver finished
MG Hartree energy from (\int phi*rho dr):              1278.619662
MG Hartree energy from (\int eps (grad phi)^2 dr):     1277.963762
MG Discrepancy due to finite box and discretization:     -0.655900 (  -0.05130%)
MG Correction to account for finite box:                  0.468139
MG Remaining discrepancy, due to discretization:         -0.187761 (  -0.01468%)
      ideal mu1:      -0.759151316586
             Q0:  -11610.232824657694
             G0:      -0.032799984137
   RMS gradient:       0.000027798793
MG BCs: +ve charge blocks (gridpoints):     24891 (   16682181).
MG BCs: -ve charge blocks (gridpoints):      8231 (    1034331).
MG BCs:     Elided blocks (gridpoints):    172229 (  173060193).
MG BCs: Computational effort saved:  99.9826%.
MG BCs: Charge after coarse-graining:           -9.0007404.
MG DL_MG: Calling solver with defect correction order = 8
MG DL_MG: Solver finished
MG Hartree energy from (\int phi*rho dr):              1278.636022
MG Hartree energy from (\int eps (grad phi)^2 dr):     1277.980223
MG Discrepancy due to finite box and discretization:     -0.655800 (  -0.05129%)
MG Correction to account for finite box:                  0.468130
MG Remaining discrepancy, due to discretization:         -0.187670 (  -0.01468%)
     Trial step:       0.541402575351
             Q1:  -11610.241528975777
 Quadratic coef:       0.009053677801
 Linear coef   :      -0.017757995883
           Qmin:  -11610.241532346015
Quadratic minimum step length (  0.530956861718) accepted
    Initial Ne1:    7192.00023073
      Final Ne1:    7192.00000000

=================== Penalty functional idempotency correction ==================
 RMS occupancy error at iteration   1:  0.000018 (step -0.4999 Ne1=   7192.0000)
            Final RMS occupancy error   :  0.000000 (Ne1=   7192.0000)
               Final occupancy bounds   : [ -0.0000,  1.0000]
================================================================================

    4        -1.161023282466E+04     2.7799E-05     2.5143E-05    -5.1696E-02
MG BCs: +ve charge blocks (gridpoints):     24891 (   16682179).
MG BCs: -ve charge blocks (gridpoints):      8231 (    1034335).
MG BCs:     Elided blocks (gridpoints):    172229 (  173060191).
MG BCs: Computational effort saved:  99.9826%.
MG BCs: Charge after coarse-graining:           -9.0007404.
MG DL_MG: Calling solver with defect correction order = 8
MG DL_MG: Solver finished
MG Hartree energy from (\int phi*rho dr):              1278.635694
MG Hartree energy from (\int eps (grad phi)^2 dr):     1277.979892
MG Discrepancy due to finite box and discretization:     -0.655802 (  -0.05129%)
MG Correction to account for finite box:                  0.468130
MG Remaining discrepancy, due to discretization:         -0.187672 (  -0.01468%)
      ideal mu1:      -0.759189793623
             Q0:  -11610.241537068156
             G0:      -0.009756646517
   RMS gradient:       0.000015181637
MG BCs: +ve charge blocks (gridpoints):     24892 (   16682606).
MG BCs: -ve charge blocks (gridpoints):      8230 (    1034181).
MG BCs:     Elided blocks (gridpoints):    172228 (  173059918).
MG BCs: Computational effort saved:  99.9826%.
MG BCs: Charge after coarse-graining:           -9.0007403.
MG DL_MG: Calling solver with defect correction order = 8
MG DL_MG: Solver finished
MG Hartree energy from (\int phi*rho dr):              1278.963211
MG Hartree energy from (\int eps (grad phi)^2 dr):     1278.307436
MG Discrepancy due to finite box and discretization:     -0.655775 (  -0.05127%)
MG Correction to account for finite box:                  0.468121
MG Remaining discrepancy, due to discretization:         -0.187653 (  -0.01467%)
     Trial step:       0.536154280347
             Q1:  -11610.244009254966
 Quadratic coef:       0.002758880983
 Linear coef   :      -0.005231067792
           Qmin:  -11610.244016703053
Quadratic minimum step length (  0.508296553063) accepted
    Initial Ne1:    7192.00007743
      Final Ne1:    7192.00000000

=================== Penalty functional idempotency correction ==================
 RMS occupancy error at iteration   1:  0.000007 (step -0.5000 Ne1=   7192.0000)
            Final RMS occupancy error   :  0.000000 (Ne1=   7192.0000)
               Final occupancy bounds   : [ -0.0000,  1.0000]
================================================================================

    5        -1.161024153707E+04     1.5182E-05     1.3731E-05    -8.7124E-03
MG BCs: +ve charge blocks (gridpoints):     24892 (   16682583).
MG BCs: -ve charge blocks (gridpoints):      8230 (    1034194).
MG BCs:     Elided blocks (gridpoints):    172228 (  173059928).
MG BCs: Computational effort saved:  99.9826%.
MG BCs: Charge after coarse-graining:           -9.0007403.
MG DL_MG: Calling solver with defect correction order = 8
MG DL_MG: Solver finished
MG Hartree energy from (\int phi*rho dr):              1278.946170
MG Hartree energy from (\int eps (grad phi)^2 dr):     1278.290394
MG Discrepancy due to finite box and discretization:     -0.655776 (  -0.05127%)
MG Correction to account for finite box:                  0.468122
MG Remaining discrepancy, due to discretization:         -0.187654 (  -0.01467%)
      ideal mu1:      -0.759418093329
             Q0:  -11610.244017296820
             G0:      -0.002250455328
   RMS gradient:       0.000007291242
MG BCs: +ve charge blocks (gridpoints):     24892 (   16682568).
MG BCs: -ve charge blocks (gridpoints):      8230 (    1034209).
MG BCs:     Elided blocks (gridpoints):    172228 (  173059928).
MG BCs: Computational effort saved:  99.9826%.
MG BCs: Charge after coarse-graining:           -9.0007403.
MG DL_MG: Calling solver with defect correction order = 8
MG DL_MG: Solver finished
MG Hartree energy from (\int phi*rho dr):              1278.909464
MG Hartree energy from (\int eps (grad phi)^2 dr):     1278.253694
MG Discrepancy due to finite box and discretization:     -0.655770 (  -0.05128%)
MG Correction to account for finite box:                  0.468119
MG Remaining discrepancy, due to discretization:         -0.187651 (  -0.01467%)
     Trial step:       0.522039627433
             Q1:  -11610.244682903169
 Quadratic coef:       0.000509220512
 Linear coef   :      -0.001174826861
           Qmin:  -11610.244694910016
Quadratic minimum step length (  0.602200974201) accepted
    Initial Ne1:    7192.00002367
      Final Ne1:    7192.00000000

=================== Penalty functional idempotency correction ==================
 RMS occupancy error at iteration   1:  0.000002 (step -0.5000 Ne1=   7192.0000)
            Final RMS occupancy error   :  0.000000 (Ne1=   7192.0000)
               Final occupancy bounds   : [  0.0000,  1.0000]
================================================================================

    6        -1.161024401730E+04     7.2912E-06     6.5948E-06    -2.4802E-03
MG BCs: +ve charge blocks (gridpoints):     24892 (   16682552).
MG BCs: -ve charge blocks (gridpoints):      8230 (    1034220).
MG BCs:     Elided blocks (gridpoints):    172228 (  173059933).
MG BCs: Computational effort saved:  99.9826%.
MG BCs: Charge after coarse-graining:           -9.0007403.
MG DL_MG: Calling solver with defect correction order = 8
MG DL_MG: Solver finished
MG Hartree energy from (\int phi*rho dr):              1278.903832
MG Hartree energy from (\int eps (grad phi)^2 dr):     1278.248063
MG Discrepancy due to finite box and discretization:     -0.655769 (  -0.05128%)
MG Correction to account for finite box:                  0.468119
MG Remaining discrepancy, due to discretization:         -0.187650 (  -0.01467%)
      ideal mu1:      -0.759381868794
             Q0:  -11610.244694975321
             G0:      -0.000760807310
   RMS gradient:       0.000004240236
MG BCs: +ve charge blocks (gridpoints):     24892 (   16682447).
MG BCs: -ve charge blocks (gridpoints):      8230 (    1034238).
MG BCs:     Elided blocks (gridpoints):    172228 (  173060020).
MG BCs: Computational effort saved:  99.9826%.
MG BCs: Charge after coarse-graining:           -9.0007403.
MG DL_MG: Calling solver with defect correction order = 8
MG DL_MG: Solver finished
MG Hartree energy from (\int phi*rho dr):              1278.846088
MG Hartree energy from (\int eps (grad phi)^2 dr):     1278.190317
MG Discrepancy due to finite box and discretization:     -0.655771 (  -0.05128%)
MG Correction to account for finite box:                  0.468120
MG Remaining discrepancy, due to discretization:         -0.187651 (  -0.01467%)
     Trial step:       0.560689550653
             Q1:  -11610.244874097640
 Quadratic coef:       0.000247454391
 Linear coef   :      -0.000426576709
           Qmin:  -11610.244878814945
Quadratic minimum step length (  0.483275124642) accepted
    Initial Ne1:    7191.99999939
      Final Ne1:    7192.00000000

=================== Penalty functional idempotency correction ==================
 RMS occupancy error at iteration   1:  0.000000 (step -0.5000 Ne1=   7192.0000)
            Final RMS occupancy error   :  0.000000 (Ne1=   7192.0000)
               Final occupancy bounds   : [  0.0000,  1.0000]
================================================================================

    7        -1.161024469498E+04     4.2402E-06     3.8352E-06    -6.7768E-04
MG BCs: +ve charge blocks (gridpoints):     24892 (   16682469).
MG BCs: -ve charge blocks (gridpoints):      8230 (    1034234).
MG BCs:     Elided blocks (gridpoints):    172228 (  173060002).
MG BCs: Computational effort saved:  99.9826%.
MG BCs: Charge after coarse-graining:           -9.0007403.
MG DL_MG: Calling solver with defect correction order = 8
MG DL_MG: Solver finished
MG Hartree energy from (\int phi*rho dr):              1278.854054
MG Hartree energy from (\int eps (grad phi)^2 dr):     1278.198283
MG Discrepancy due to finite box and discretization:     -0.655771 (  -0.05128%)
MG Correction to account for finite box:                  0.468120
MG Remaining discrepancy, due to discretization:         -0.187651 (  -0.01467%)
      ideal mu1:      -0.759320835913
             Q0:  -11610.244878812460
             G0:      -0.000401882292
   RMS gradient:       0.000003081685
MG BCs: +ve charge blocks (gridpoints):     24892 (   16682444).
MG BCs: -ve charge blocks (gridpoints):      8230 (    1034239).
MG BCs:     Elided blocks (gridpoints):    172228 (  173060022).
MG BCs: Computational effort saved:  99.9826%.
MG BCs: Charge after coarse-graining:           -9.0007403.
MG DL_MG: Calling solver with defect correction order = 8
MG DL_MG: Solver finished
MG Hartree energy from (\int phi*rho dr):              1278.835822
MG Hartree energy from (\int eps (grad phi)^2 dr):     1278.180052
MG Discrepancy due to finite box and discretization:     -0.655770 (  -0.05128%)
MG Correction to account for finite box:                  0.468119
MG Remaining discrepancy, due to discretization:         -0.187651 (  -0.01467%)
     Trial step:       0.520545206949
             Q1:  -11610.245033033425
 Quadratic coef:       0.000054976936
 Linear coef   :      -0.000209197901
           Qmin:  -11610.245077822105
Quadratic minimum step length (  0.990387726766) accepted
    Initial Ne1:    7191.99999934
      Final Ne1:    7192.00000000

=================== Penalty functional idempotency correction ==================
 RMS occupancy error at iteration   1:  0.000001 (step -0.5000 Ne1=   7192.0000)
            Final RMS occupancy error   :  0.000000 (Ne1=   7192.0000)
               Final occupancy bounds   : [  0.0000,  1.0000]
================================================================================

    8        -1.161024487881E+04     3.0817E-06     2.7873E-06    -1.8384E-04
MG BCs: +ve charge blocks (gridpoints):     24892 (   16682421).
MG BCs: -ve charge blocks (gridpoints):      8230 (    1034251).
MG BCs:     Elided blocks (gridpoints):    172228 (  173060033).
MG BCs: Computational effort saved:  99.9826%.
MG BCs: Charge after coarse-graining:           -9.0007403.
[...]
 RMS occupancy error at iteration   1:  0.000000 (step -0.5000 Ne1=   7192.0000)
            Final RMS occupancy error   :  0.000000 (Ne1=   7192.0000)
               Final occupancy bounds   : [ -0.0000,  1.0000]
================================================================================

    7        -1.164649699589E+04     5.5357E-09     5.0069E-09    -1.1642E-10

Reusing previously generated solute cavity.
MG BCs: +ve charge blocks (gridpoints):     29271 (   18818761).
MG BCs: -ve charge blocks (gridpoints):      8244 (    1012603).
MG BCs:     Elided blocks (gridpoints):    167849 (  170945341).
MG BCs: Computational effort saved:  99.9803%.
MG BCs: Charge after coarse-graining:           -9.0009683.
MG DL_MG: Calling solver with defect correction order = 8
MG DL_MG: Solver finished
MG Hartree energy from (\int phi*rho dr):              1229.584210
MG Hartree energy from (\int eps (grad phi)^2 dr):     1229.390394
MG Discrepancy due to finite box and discretization:     -0.193815 (  -0.01576%)
MG Correction to account for finite box:                  0.006435
MG Remaining discrepancy, due to discretization:         -0.187381 (  -0.01524%)
      ideal mu1:      -0.514065951129
             Q0:  -11646.496995888534
             G0:      -0.000000001730
   RMS gradient:       0.000000004704

Reusing previously generated solute cavity.
MG BCs: +ve charge blocks (gridpoints):     29271 (   18818761).
MG BCs: -ve charge blocks (gridpoints):      8244 (    1012603).
MG BCs:     Elided blocks (gridpoints):    167849 (  170945341).
MG BCs: Computational effort saved:  99.9803%.
MG BCs: Charge after coarse-graining:           -9.0009683.
MG DL_MG: Calling solver with defect correction order = 8
MG DL_MG: Solver finished
MG Hartree energy from (\int phi*rho dr):              1229.584193
MG Hartree energy from (\int eps (grad phi)^2 dr):     1229.390378
MG Discrepancy due to finite box and discretization:     -0.193815 (  -0.01576%)
MG Correction to account for finite box:                  0.006435
MG Remaining discrepancy, due to discretization:         -0.187381 (  -0.01524%)
     Trial step:       0.202808473166
             Q1:  -11646.496995888418
 Quadratic coef:       0.000000000467
 Linear coef   :      -0.000000000351
           Qmin:  -11646.496995888599
Quadratic minimum step length (  0.076106961576) accepted
    Initial Ne1:    7192.00000000
      Final Ne1:    7192.00000000

=================== Penalty functional idempotency correction ==================
 RMS occupancy error at iteration   1:  0.000000 (step -0.5000 Ne1=   7192.0000)
            Final RMS occupancy error   :  0.000000 (Ne1=   7192.0000)
               Final occupancy bounds   : [  0.0000,  1.0000]
================================================================================

    8        -1.164649699589E+04     4.7044E-09     4.2551E-09     1.1642E-10

Reusing previously generated solute cavity.
MG BCs: +ve charge blocks (gridpoints):     29271 (   18818761).
MG BCs: -ve charge blocks (gridpoints):      8244 (    1012603).
MG BCs:     Elided blocks (gridpoints):    167849 (  170945341).
MG BCs: Computational effort saved:  99.9803%.
MG BCs: Charge after coarse-graining:           -9.0009683.
MG DL_MG: Calling solver with defect correction order = 8
MG DL_MG: Solver finished
MG Hartree energy from (\int phi*rho dr):              1229.584204
MG Hartree energy from (\int eps (grad phi)^2 dr):     1229.390388
MG Discrepancy due to finite box and discretization:     -0.193815 (  -0.01576%)
MG Correction to account for finite box:                  0.006435
MG Remaining discrepancy, due to discretization:         -0.187381 (  -0.01524%)
      ideal mu1:      -0.514065944147
             Q0:  -11646.496995888534
             G0:      -0.000000001784
   RMS gradient:       0.000000004043

Reusing previously generated solute cavity.
MG BCs: +ve charge blocks (gridpoints):     29271 (   18818761).
MG BCs: -ve charge blocks (gridpoints):      8244 (    1012603).
MG BCs:     Elided blocks (gridpoints):    167849 (  170945341).
MG BCs: Computational effort saved:  99.9803%.
MG BCs: Charge after coarse-graining:           -9.0009683.
MG DL_MG: Calling solver with defect correction order = 8
MG DL_MG: Solver finished
MG Hartree energy from (\int phi*rho dr):              1229.584191
MG Hartree energy from (\int eps (grad phi)^2 dr):     1229.390376
MG Discrepancy due to finite box and discretization:     -0.193815 (  -0.01576%)
MG Correction to account for finite box:                  0.006435
MG Remaining discrepancy, due to discretization:         -0.187381 (  -0.01524%)
     Trial step:       0.124238225496
             Q1:  -11646.496995888418
 Quadratic coef:       0.000000000338
 Linear coef   :      -0.000000000222
           Qmin:  -11646.496995888570
Quadratic minimum step length (  0.040701598716) accepted
    Initial Ne1:    7192.00000000
      Final Ne1:    7192.00000000

=================== Penalty functional idempotency correction ==================
 RMS occupancy error at iteration   1:  0.000000 (step -0.5000 Ne1=   7192.0000)
            Final RMS occupancy error   :  0.000000 (Ne1=   7192.0000)
               Final occupancy bounds   : [  0.0000,  1.0000]
================================================================================

    9        -1.164649699589E+04     4.0432E-09     3.6570E-09     0.0000E+00

Reusing previously generated solute cavity.
MG BCs: +ve charge blocks (gridpoints):     29271 (   18818761).
MG BCs: -ve charge blocks (gridpoints):      8244 (    1012603).
MG BCs:     Elided blocks (gridpoints):    167849 (  170945341).
MG BCs: Computational effort saved:  99.9803%.
MG BCs: Charge after coarse-graining:           -9.0009683.
MG DL_MG: Calling solver with defect correction order = 8
MG DL_MG: Solver finished
MG Hartree energy from (\int phi*rho dr):              1229.584200
MG Hartree energy from (\int eps (grad phi)^2 dr):     1229.390384
MG Discrepancy due to finite box and discretization:     -0.193815 (  -0.01576%)
MG Correction to account for finite box:                  0.006435
MG Remaining discrepancy, due to discretization:         -0.187381 (  -0.01524%)
      ideal mu1:      -0.514065939634
   10        -1.164649699589E+04     3.6330E-09     3.2859E-09     1.1642E-10
Finished density kernel iterations (  10)

Writing density kernel to file "host_34681.dkn" ... done


>>> Density kernel optimised for the current NGWF basis:
     ~~~~~~~~~~~~~~~~~~~~~~~~~~~~~~~~~~~~~~~~~~~~~~~~~~~~~~~~~~~
     Total energy                =  -1.16464969958884E+04  Eh
     Estimated bandgap           =   1.2515E-01  Eh
     RMS occupancy error         =   4.4167E-16
     [H,K] commutator            =   3.2859E-09
     Occupancy bounds            = [  0.000:  1.000]
     ~~~~~~~~~~~~~~~~~~~~~~~~~~~~~~~~~~~~~~~~~~~~~~~~~~~~~~~~~~~




################################################################################
########################### NGWF CG iteration  005 #############################
################################################################################
****** Reciprocal space K.E. preconditioning with k_zero =  3.5000 a0^-1 *******

>>> Checking for convergence of NGWFs: 
           ........................................................
           |         *** NGWF optimisation converged ***          |
           | RMS NGWF gradient =    0.00000109758227              |
           | Criteria satisfied:                                  |
           | -> RMS NGWF gradient lower than set threshold.       |
           ========================================================

Reusing previously generated solute cavity.
MG BCs: +ve charge blocks (gridpoints):     29271 (   18818761).
MG BCs: -ve charge blocks (gridpoints):      8244 (    1012603).
MG BCs:     Elided blocks (gridpoints):    167849 (  170945341).
MG BCs: Computational effort saved:  99.9803%.
MG BCs: Charge after coarse-graining:           -9.0009683.
MG DL_MG: Calling solver with defect correction order = 8
MG DL_MG: Solver finished
MG Hartree energy from (\int phi*rho dr):              1229.584200
MG Hartree energy from (\int eps (grad phi)^2 dr):     1229.390384
MG Discrepancy due to finite box and discretization:     -0.193815 (  -0.01576%)
MG Correction to account for finite box:                  0.006435
MG Remaining discrepancy, due to discretization:         -0.187381 (  -0.01524%)

================================================================================
           ---------------- ENERGY COMPONENTS (Eh) ----------------
           | Kinetic                    :     8406.74810766052724 |
           | Pseudo. (local,OBC,corr'd) :    -4986.66602235722257 |
           | Pseudopotential (non-local):     1446.58167596391240 |
           | Hartree (molecular)        :     1229.58419950639677 |
           | Exchange-correlation       :    -3334.35620686359289 |
           | Ion-ion (open BC)          :   824599.06679650465958 |
           | Smeared ion non-self corr. :  -824550.93058736505918 |
           | Smeared ion self corr.     :   -14457.16956389741972 |
           | Solvent cavitation energy  :        2.29335572100436 |
           | Solute-solvent dis-rep en. :       -1.64875076172306 |
           | Total                      :   -11646.49699588843032 |
           --------------------------------------------------------
           ------ LOCAL ENERGY COMPONENTS FROM MATRIX TRACES ------
           | Pseudopotential (local)    :    -4986.66602235722166 |
           | Hartree                    :    -1985.56760545758971 |
           --------------------------------------------------------
           Integrated density           :     7191.99999999817373
           Integrated density tr(KS)    :     7191.99999999999818
================================================================================


                        <<<<< CALCULATION SUMMARY >>>>>                         
|ITER|    RMS GRADIENT   |     TOTAL ENERGY    |   step   |     Epredicted              
   0     0.00004022085366 -11646.44385296385735   0.533746 -11646.48980504790597        
   1     0.00001275879384 -11646.49586325907148   0.110006 -11646.49681628292637        
   2     0.00000560727981 -11646.49695691396482   0.019686 -11646.49698985473697        
   3     0.00000249294455 -11646.49699436163064   0.003958 -11646.49699567065545        
   4     0.00000109758227 -11646.49699588841759  <-- CG                                 

=================== Finished the calculation in solvent ========================
= Adjusting the following parameters: 
= read_denskern: F
= read_tightbox_ngwfs: F
= maxit_pen: 0 (restored to user-specified value)
= restart read filename prefix: ""
= restart write filename prefix: ""
================================================================================

================================================================================
IS: Calculation in solvent completed (NGWFs converged).      

Individual components of total energy in solvent:     hartree           kcal/mol
- Usual non-electrostatic DFT terms:    -12876.72580035409374    -8080267.259333
- Electrostatic fixed charge energy:      1229.58419950639677      771575.717609
- Apolar cavitation energy:                  2.29335572100436        1439.102411
- Apolar dispersion-repulsion energy:       -1.64875076172306       -1034.606701
 -------------------------------------------------------------------------------
- Total energy in solvent:              -11646.49699588841759    -7308287.046013

Components of total energy in solvent:                hartree           kcal/mol
- Usual non-electrostatic DFT terms:    -12876.72580035409374    -8080267.259333
- Electrostatic energy:                   1229.58419950639677      771575.717609
- Apolar energy terms:                       0.64460495928130         404.495710
 -------------------------------------------------------------------------------
- Total energy in solvent:              -11646.49699588841759    -7308287.046013

Calculation of free energy of solvation:              hartree           kcal/mol
- Total energy in solvent:         (+)  -11646.49699588841759    -7308287.046013
- Total energy in vacuum:          (-)  -11642.49459340446629    -7305775.500590
 -------------------------------------------------------------------------------
- Total free energy of solvation:           -4.00240248395130       -2511.545423

Components of polar term in f.e. of solvation:        hartree           kcal/mol
- Electrostatic:                            -4.87205855025263       -3057.262832
- Change in nonelectrostatic DFT terms:      0.22505110702150         141.221699
 -------------------------------------------------------------------------------
- Polar term in f.e. of solvation:          -4.64700744323113       -2916.041133

Components of free energy of solvation:               hartree           kcal/mol
- Polar term in f.e. of solvation: (+)      -4.64700744323113       -2916.041133
- Apolar (cavitation, dis., rep.): (+)       0.64460495928130         404.495710
 -------------------------------------------------------------------------------
- Total free energy of solvation:           -4.00240248394983       -2511.545423
================================================================================


------------------------------ TIMING INFORMATION ------------------------------
AVERAGE TIME:   75795.455s on     40 node(s)                                    
TOTAL TIME:     75795.456s on     40 node(s)                                    
================= AVERAGE TIMINGS FROM ALL NODES (CUMULATIVE) ==================
|| TAG                                    #calls    cpu time   %total  Gflops ||
|| work_imbalance                       :     1        0.00s   0.000%  ------ ||
|| parallel_prepare_fd_halos_request    :  2307        0.02s   0.000%  ------ ||
|| parallel_prepare_fd_halos_alloc      :  2307        0.05s   0.000%  ------ ||
|| sparse_set_to_garbage                :   246        0.06s   0.000%  ------ ||
|| parallel_prepare_fd_halos_satisfy    :  2307        0.07s   0.000%  ------ ||
|| ngwfs_initialise_from_radial         :     1        0.15s   0.000%  ------ ||
|| basis_extract_function_from_box      :  6342        0.25s   0.000%  ------ ||
|| pseudopotentials_nonlocal_mat        :    36        1.27s   0.002%  ------ ||
|| restart_ngwfs_tightbox_input         :     1        2.29s   0.003%  ------ ||
|| parallel_prepare_fd_halos_comms_imbal:  2307        3.40s   0.004%  ------ ||
|| density_init_guess_real              :     1        3.54s   0.005%  ------ ||
|| openbc_locps_radial                  :     1        4.40s   0.006%  ------ ||
|| restart_kernel_read                  :     1        9.53s   0.013%  ------ ||
|| parallel_prepare_fd_halos_clear      :  2307       16.42s   0.022%  ------ ||
|| sparse_init                          :     2       22.40s   0.030%  ------ ||
|| projectors_func_ovlp_box             :    36       27.69s   0.037%  ------ ||
|| parallel_prepare_fd_halos_comms_wait :  2307       29.02s   0.038%  ------ ||
|| projectors_init_fftbox_recip         :   245       31.55s   0.042%  ------ ||
|| function_ops_brappd_ketppd           :    36       35.56s   0.047%  ------ ||
|| palser_mano_kernel_optimise          :     1       43.57s   0.057%  ------ ||
|| parallel_prepare_fd_halos            :  2307       49.00s   0.065%  ------ ||
|| pseudo_make_structure_factor         :     2       54.28s   0.072%  ------ ||
|| ngwf_gradient_coeffs                 :    19       77.22s   0.102%  ------ ||
|| restart_kernel_write                 :    20       90.31s   0.119%  ------ ||
|| sparse_embed_hotelling_invert_embed  :    36      109.97s   0.145%  ------ ||
|| finite_difference_derivative         :  2307      122.78s   0.162%  ------ ||
|| basis_copy_function_to_box           : 196.5k     132.29s   0.175%  ------ ||
|| openbc_locps_on_grid                 :     2      194.18s   0.256%  ------ ||
|| restart_ngwfs_tightbox_output        :    17      221.38s   0.292%  ------ ||
|| integrals_kinetic                    :    36      223.95s   0.295%  ------ ||
|| projectors_gradient_batch            :   209      248.79s   0.328%  ------ ||
|| sparse_trace                         :  5774      287.75s   0.380%  ------ ||
|| fourier_apply_box_pair               : 55525      370.16s   0.488% 578.944 ||
|| kernel_purify                        :   588      429.54s   0.567%  ------ ||
|| basis_dot_function_with_box          : 22.29M     528.18s   0.697%  ------ ||
|| kernel_fix                           :   190      656.58s   0.866%  ------ ||
|| hamiltonian_energy_components        :     4      700.11s   0.924%  ------ ||
|| lnv_gradient_norm                    :   190      700.19s   0.924%  ------ ||
|| integrals_locpot_mat_els_batch       :  2189     1142.00s   1.507%  ------ ||
|| ke_density_batch_grad_apply          :  4213     1211.03s   1.598%  ------ ||
|| basis_add_function_to_box            : 59.75M    1250.82s   1.650%  ------ ||
|| ke_density_batch_row_sums            :  4213     1534.71s   2.025%  ------ ||
|| density_batch_row_sums               :  4213     1536.02s   2.027%  ------ ||
|| density_fftbox_deposit_to_cell       : 62429     1563.69s   2.063%  ------ ||
|| fourier_apply_cell_backward          : 10348     1574.36s   2.077%  89.469 ||
|| ke_density_fftbox_deposit_to_cell    : 62429     1642.18s   2.167%  ------ ||
|| fourier_apply_cell_forward           : 10346     1796.43s   2.370%  78.394 ||
|| cell_grid_deposit_box_real           : 127.2k    1880.99s   2.482%  ------ ||
|| cell_grid_extract_box_real           : 156.9k    2295.48s   3.029%  ------ ||
|| sparse_product                       :  7583     2547.52s   3.361%  ------ ||
|| ngwf_gradient_build_batch            :   209     2777.63s   3.665%  ------ ||
|| multigrid_prepare_bound_cond         :   384     2887.89s   3.810%  ------ ||
|| ngwf_gradient_batch                  :   209     3138.40s   4.141%  ------ ||
|| ngwf_gradient_lnv                    :    19     3343.48s   4.411%  ------ ||
|| potential_apply_to_ngwf_batch        :  2189     3714.84s   4.901%  ------ ||
|| density_fftbox_interpolate_multiply  : 62429     4430.60s   5.845%  ------ ||
|| xc_energy_potential                  :   384     4664.28s   6.154%  ------ ||
|| integrals_locpot_dbl_grid            :   199     4876.15s   6.433%  ------ ||
|| density_batch_interp_deposit         :  4213     6749.43s   8.905%  ------ ||
|| dl_mg_solver_calls                   :   384     7773.97s  10.257%  ------ ||
|| nlxc_vdw_energy                      :   766     7785.87s  10.272%  ------ ||
|| density_on_dbl_grid                  :   383     8755.43s  11.551%  ------ ||
|| potential_apply_to_fftbox_batch      :  6270    10090.17s  13.312%  ------ ||
|| multigrid_calculate_hartree          :   384    10842.80s  14.305%  ------ ||
|| integrals_div_locpot_grad_functions  :   190    15406.82s  20.327%  ------ ||
|| ke_density_fftbox_interpolate_multipl: 62429    17265.51s  22.779%  ------ ||
|| ke_density_batch_interp_deposit      :  4213    19733.94s  26.036%  ------ ||
|| fourier_apply_box                    : 1.418M   22672.66s  29.913% 799.397 ||
|| ke_density_on_dbl_grid               :   383    22996.59s  30.340%  ------ ||
|| hamiltonian_lhxc_calculate           :   379    47294.08s  62.397%  ------ ||
|| lnv_denskernel_optimise_cg           :    19    68021.16s  89.743%  ------ ||
|| ngwf_cg_optimise                     :     2    74981.92s  98.927%  ------ ||
|| total_time                           :     1    75795.46s 100.000%  ------ ||
================================================================================
Overhead of generating timer report: 
- 0 ms averaging over threads,
- 7 ms ensuring consistency across MPI ranks,
- 3 ms printing in order.

Job completed: 27-04-2020 16:45 (+0100)

