 +---------------------------------------------------------------+
 |                                                               |
 |        ####### #     # ####### ####### ####### ######         |
 |        #     # ##    # #          #    #       #     #        |
 |        #     # # #   # #          #    #       #     #        |
 |        #     # #  #  # #####      #    #####   ######         |
 |        #     # #   # # #          #    #       #              |
 |        #     # #    ## #          #    #       #              |
 |        ####### #     # #######    #    ####### #              |
 |                                                               |
 |        Linear-Scaling Ab Initio Total Energy Program          |
 |                                                               |
 |          Release for academic collaborators of ODG            |
 |                                             Version 5.3.2.6.  |
 |                                                               |
 +---------------------------------------------------------------+
 |                                                               |
 |  Authors:                                                     |
 |  Jacek Dziedzic, Peter D. Haynes, Nicholas D. M. Hine,        |
 |  Arash. A. Mostofi, Mike C. Payne and Chris-Kriton Skylaris   |
 |                                                               |
 |  Contributors:                                                |
 |  J. Aarons, L. Andrinopoulos, P. W. Avraam, R. A. Bell,       |
 |  A. Bhandari, G. A. Bramley, R. J. Charlton, S. J. Clark,     |
 |  R. J. Clements, G. C. Constantinescu, F. Corsetti,           |
 |  N. Corsini, O. Dieguez, S. M. M. Dubois, K. K. B. Duff,      |
 |  J. M. Escartin, A. Greco, H. Helal, Q. O. Hill, L. P. Lee,   |
 |  J.-H. Li, E. B. Linscott, G. Moynihan, D. D. O`Regan,        |
 |  O. K. Okan, M. J. S. Phipps, C. J. Pickard,                  |
 |  J. C. A. Prentice, M. I. J. Probert, L. E. Ratcliff,         |
 |  M. Robinson, A. Ruiz Serrano, J. S. Spencer, E. W. Tait,     |
 |  G. Teobaldi, D. Turban, V. Vitale, K. A. Wilkinson,          |
 |  C. Weber, J. C. Womack, N. Yeung and T. J. Zuehlsdorff       |
 |                                                               |
 |                                   Copyright (c) 2004-2019     |
 |                                                               |
 |  Please cite:                                                 |
 |  "Introducing ONETEP: Linear-scaling density functional       |
 |   simulations on parallel computers".                         |
 |   C.-K. Skylaris, P. D. Haynes, A. A. Mostofi, M. C. Payne.   |
 |   J. Chem. Phys. 122 084119 (2005).                           |
 |                                                               |
 |          in all publications arising from your use of ONETEP. |
 |                                                               |
 +---------------------------------------------------------------+
 |                                                               |
 |   ONETEP is based on developments described in the following  |
 |   publications:                                               |
 |                                                               |
 |  "Nonorthogonal generalized Wannier function pseudopotential  |
 |   plane-wave method".                                         |
 |   C.-K. Skylaris, A. A. Mostofi, P. D. Haynes, O. Dieguez,    |
 |   M. C. Payne.                                                |
 |   Phys. Rev. B 66 035119 (2002).                              |
 |                                                               |
 |  "Preconditioned iterative minimization for linear-scaling    |
 |   electronic structure calculations".                         |
 |   A. A. Mostofi, P. D. Haynes, C.-K. Skylaris, M. C. Payne.   |
 |   J. Chem. Phys. 119(17), pp.8842-8848 (2003).                |
 |                                                               |
 |  "Total-energy calculations on a real space grid with         |
 |   localized functions and a plane-wave basis".                |
 |   A. A. Mostofi, C.-K. Skylaris, P. D. Haynes, M. C. Payne.   |
 |   Comput. Phys. Commun. 147, pp.788-802 (2002).               |
 |                                                               |
 |  "Accurate kinetic energy evaluation in electronic structure  |
 |   calculations with localized functions on real space grids"  |
 |   C.-K. Skylaris, A. A. Mostofi, P. D. Haynes, C. J. Pickard, |
 |   M. C. Payne.                                                |
 |   Comput. Phys. Commun. 140, pp.315-322 (2001).               |
 |                                                               |
 |  "Accurate ionic forces and geometry optimization in linear-  |
 |   scaling density-functional theory with local orbitals"      |
 |   N. D. M. Hine, M. Robinson, P. D. Haynes, C.-K. Skylaris,   |
 |   M. C. Payne, and A. A. Mostofi.                             |
 |   Phys. Rev. B 83 195102 (2011).                              |
 |                                                               |
 +---------------------------------------------------------------+

Job started: 27-01-2020 19:33 (-0000)
 
Reading parameters from file "host_28601.dat" ...... done

If your calculation crashes here, before "Checking processes and threads..."
is displayed, then your stack size is insufficient.
If so, use "ulimit -s unlimited" at runtime.
You can disable this check with "check_stack_size F".

Checking processes and threads...
   Determining the default number of threads...
      No default threads set at compilation time: defaulting to 1.
      OpenMP library call suggests 4 threads.
      Hybrid MPI-OpenMP compilation detected.
      Number of MPI processes > 1.
      OMP_NUM_THREADS environment variable present and
      its value matches the one obtained from the OpenMP library call.
      Using this value as default.
      Default threads: 4
      Default applies to threads_max and threads_num_fftboxes.
      Settings in the input file override this default.
   ... done

   Running with 40 MPI processes.
   There are 10 MPI processes running on the same node as the root process.
   Each MPI process is using: 
               1 threads for simulation cell FFTs.
               1 threads for parallel FFT box operations.
               4 threads for loops over batched FFT box operations.
               4 threads in other parallel regions.
... done

Basic input checks...... done

Reading geometry and species blocks from file "host_28601.dat" ...
  <species_atomic_set> block not found: NGWF initialisation set to SOLVE
IS: Dielectric excluded regions:
    - NONE.
    
  Number of PPD points along a3 set to 1.  This is 
  the default value, it may have been provided also in the input file.
... done
 Writing xyz coordinates to file "host_28601.xyz" ... done


--------------------------------------------------------------------------------
---------------------------------- INPUT FILE ----------------------------------
--------------------------------------------------------------------------------

cutoff_energy       : 800 eV                                                    
xc_functional B97M-V                                                            
task SINGLEPOINT                                                                
write_xyz true                                                                  
output_detail VERBOSE                                                           
ngwf_threshold_orig : 0.000002                                                  
kernel_cutoff       : 1000                                                      
k_zero              : 3.5                                                       
elec_cg_max 0                                                                   
occ_mix 1.0                                                                     
dispersion 0                                                                    
maxit_ngwf_cg 40                                                                
minit_lnv 10                                                                    
maxit_lnv 10                                                                    
write_denskern T                                                                
write_tightbox_ngwfs T                                                          
charge 9                                                                        
is_implicit_solvent T                                                           
is_auto_solvation T                                                             
is_include_apolar T                                                             
is_smeared_ion_rep T                                                            
is_solvent_surf_tension 4.7624E-5 Ha/bohr**2                                    
is_apolar_scaling_factor 0.281075                                               
is_solvation_beta 1.3                                                           
is_density_threshold 0.00035                                                    
is_bulk_permittivity 78.54                                                      
is_dielectric_model fix_initial                                                 
is_smeared_ion_width 0.8                                                        
mg_defco_fd_order 8                                                             
is_bc_coarseness 10                                                             
is_bc_surface_coarseness 1                                                      
fine_grid_scale 2.0                                                             
%block species                                                                  
N   N   7 4 8.0                                                                 
H   H   1 1 8.0                                                                 
C   C   6 4 8.0                                                                 
S   S  16 9 8.0                                                                 
O   O   8 4 8.0                                                                 
%endblock species                                                               
%block species_pot                                                              
N   N_00.recpot                                                                 
H   H_04.recpot                                                                 
C   C_01.recpot                                                                 
S   S_00.recpot                                                                 
O   O_02.recpot                                                                 
%endblock species_pot                                                           
%block lattice_cart                                                             
139.252   0.000   0.000                                                         
0.000 142.425   0.000                                                           
0.000   0.000   162.84                                                          
%endblock lattice_cart                                                          
%block positions_abs                                                            
     Hash =  -000004158795318970732325
%endblock positions_abs                                                         

--------------------------------------------------------------------------------
-------------------------------- END INPUT FILE --------------------------------
--------------------------------------------------------------------------------


 
 ESDF WARNING(1): "kernelcutoff" (esdf_physical) has no units. Assume "bohr".
 ESDF WARNING(2): "kzero" (esdf_physical) has no units. Assume "1/bohr".
 ESDF WARNING(3
 ): "issmearedionwidth" (esdf_physical) has no units. Assume "bohr".
<<<<<<<<<<<<<<<<<<<<<<<<<<<<<<<<< Full system >>>>>>>>>>>>>>>>>>>>>>>>>>>>>>>>>>
<<<<<<<<<<<<<<<<<<<<<<<<< Pseudopotential information >>>>>>>>>>>>>>>>>>>>>>>>>>
File: N_00.recpot [ 2001 points up to Gmax=  52.9 (1/bohr)]
  Atomic number:  7;  ionic charge:  5.000000
    Shell 1: l = 0; rc = 1.48 bohr
File: H_04.recpot [ 2001 points up to Gmax=  52.9 (1/bohr)]
  Atomic number:  1;  ionic charge:  1.000000
    Local potential
File: C_01.recpot [ 2001 points up to Gmax=  52.9 (1/bohr)]
  Atomic number:  6;  ionic charge:  4.000000
    Shell 1: l = 0; rc = 1.48 bohr
File: S_00.recpot [ 2001 points up to Gmax=  52.9 (1/bohr)]
  Atomic number: 16;  ionic charge:  6.000000
    Shell 1: l = 0; rc = 1.90 bohr
    Shell 2: l = 2; rc = 1.84 bohr
File: O_02.recpot [ 2001 points up to Gmax=  52.9 (1/bohr)]
  Atomic number:  8;  ionic charge:  6.000000
    Shell 1: l = 0; rc = 1.31 bohr
<<<<<<<<<<<<<<<<<<<<<<<<<<<<<<<<<<<<<<<<>>>>>>>>>>>>>>>>>>>>>>>>>>>>>>>>>>>>>>>>

-------------------------- Atom counting information ---------------------------
Symbol    Natoms    Nngwfs    Nprojs
  N        236       944       236
  H       1311      1311         0
  C        810      3240       810
  S          6        54        36
  O        239       956       239
.......   ......    ......    ......
Totals:   2602      6505      1321
--------------------------------------------------------------------------------

=============================== PSINC grid sizes ===============================
                      Simulation cell:  275 x 280 x 320
                              FFT-box:   99 x  99 x  99
                                  PPD:    5 x   5 x   1
Grid space d1=  0.506370909091a0 (KE cutoff=  29.62556Eh = 806.15239eV)
Grid space d2=  0.508660714286a0 (KE cutoff=  29.35943Eh = 798.91072eV)
Grid space d3=  0.508875000000a0 (KE cutoff=  29.33471Eh = 798.23802eV)
================================================================================

********************* Fourier parallelisation information **********************
       Coarse grid (whole simulation cell) dimensions:    275   280   320
          Real-space ('12') slabs/node (min max mean):      8     8     8
         Recip-space ('23') slabs/node (min max mean):      3     4     3
********************************************************************************

********************* Fourier parallelisation information **********************
       Double grid (whole simulation cell) dimensions:    550   560   640
          Real-space ('12') slabs/node (min max mean):     16    16    16
         Recip-space ('23') slabs/node (min max mean):      6     7     6
********************************************************************************
ONETEP fine grid is 550 x 560 x 640 gridpoints, 139.2520 x 142.4250 x 162.8400 bohr.
FD multigrid is     545 x 553 x 633 gridpoints, 137.9861 x 140.6447 x 161.0589 bohr.


Calculating local pseudopotential in open BC on a radial grid ...
Discrepancy between calculated realspace psloc and -Z/x on [5a0,257.280a0]:
max |rel. diff| # avg |rel. diff| #  avg rel. diff #  f # pseudopotential file
 0.000256370913    0.000003612608   0.000000072509   55  'N_00.recpot'
 0.000395389207    0.000016224277  -0.000000076597   55  'H_04.recpot'
 0.000377360759    0.000017565724   0.000000149252   55  'C_01.recpot'
 0.000469715301    0.000020587835   0.000000455518   55  'S_00.recpot'
 0.000665442002    0.000026079317   0.000000158685   55  'O_02.recpot'
... done
 WARNING: meta-GGA functionality under development.
          Using this functional is experimental.
          Minimum tau threshold, xc_min_tau =   1.00000000E-12
 WARNING: Using alternative XC functional PBE for 
          radial densities (xc_radial).

Atom SCF Calculation for N  : Z (AE atom) =   7 : Z (PS atom) =   5
Config String:
Orbitals (num,occ):  2     2.00 3.00
Orbitals   (num,l):  2        0    1
Real-space Grid (nr,dr,rmax): 1203    0.0066555740    8.0000000000
Spherical Bessel Basis (nsws,lmax,cutoff):   47    1  176.3951722778
Confining potential (l,width,scale):  0    3.0000000000  100.0000000000
Confining potential (l,width,scale):  1    3.0000000000  100.0000000000
  1         -4.7312375307   -3.4155304497    7.0523828109   -1.9351020946
  2         -9.7309464766   -2.0532547791    8.2966052865   -2.2494486027
  3         -9.6627394379   -2.1124926340    8.2327997121   -2.2369778124
  4         -9.6814993499   -2.1215521045    8.2229805960   -2.2365178421
  5         -9.6843326483   -2.1250939529    8.2191374534   -2.2362718126
  6         -9.6859628709   -2.1267894855    8.2172963573   -2.2362066344
  7         -9.6867347035   -2.1276425665    8.2163697352   -2.2361903369
  8         -9.6870802100   -2.1280764625    8.2158983890   -2.2361891460
  9         -9.6872290423   -2.1282977424    8.2156580222   -2.2361920435
 10         -9.6872901988   -2.1284107021    8.2155353368   -2.2361953393
 11         -9.6873135296   -2.1284684031    8.2154726809   -2.2361979819
 12         -9.6873212476   -2.1284978948    8.2154406648   -2.2361998431
 13         -9.6873229586   -2.1285129774    8.2154242957   -2.2362010676
 14         -9.6873226456   -2.1285206957    8.2154159216   -2.2362018403
 15         -9.6873218534   -2.1285246479    8.2154116349   -2.2362023142
 16         -9.6873212599   -2.1285262679    8.2154098784   -2.2362025420
 17         -9.6873207834   -2.1285272564    8.2154088068   -2.2362026955
 18         -9.6873204210   -2.1285278597    8.2154081529   -2.2362027982
 19         -9.6873201550   -2.1285282280    8.2154077538   -2.2362028667
 20         -9.6873199645   -2.1285284529    8.2154075102   -2.2362029121
 21         -9.6873198305   -2.1285285903    8.2154073614   -2.2362029421
 22         -9.6873197377   -2.1285286742    8.2154072705   -2.2362029618
Atom SCF converged after  22 iterations to a total energy of     -9.68731974

Atom SCF Calculation for H  : Z (AE atom) =   1 : Z (PS atom) =   1
Config String:
Orbitals (num,occ):  1     1.00
Orbitals   (num,l):  1        0
Real-space Grid (nr,dr,rmax): 1203    0.0066555740    8.0000000000
Spherical Bessel Basis (nsws,lmax,cutoff):   47    0  176.3951722778
Confining potential (l,width,scale):  0    3.0000000000  100.0000000000
  1         -0.3194257691   -0.2393854593    0.2820953124   -0.2424203209
  2         -0.3951823392   -0.2377116493    0.2886404059   -0.2475147891
  3         -0.4317044583   -0.2352244387    0.2921333887   -0.2514046172
  4         -0.4470703708   -0.2341892222    0.2934391879   -0.2531009782
  5         -0.4532132900   -0.2338556667    0.2938388426   -0.2537313520
  6         -0.4556579251   -0.2337612552    0.2939448584   -0.2539550462
  7         -0.4566418315   -0.2337377355    0.2939680120   -0.2540342273
  8         -0.4570437922   -0.2337331116    0.2939708287   -0.2540627372
  9         -0.4572102946   -0.2337328328    0.2939698291   -0.2540732650
 10         -0.4572800424   -0.2337332404    0.2939687193   -0.2540772588
 11         -0.4573095100   -0.2337335791    0.2939680317   -0.2540788122
 12         -0.4573220379   -0.2337337762    0.2939676699   -0.2540794294
 13         -0.4573273880   -0.2337338775    0.2939674931   -0.2540796787
 14         -0.4573296803   -0.2337339266    0.2939674099   -0.2540797808
 15         -0.4573306647   -0.2337339495    0.2939673718   -0.2540798230
 16         -0.4573310882   -0.2337339601    0.2939673545   -0.2540798406
 17         -0.4573312706   -0.2337339649    0.2939673467   -0.2540798479
 18         -0.4573313493   -0.2337339670    0.2939673433   -0.2540798510
Atom SCF converged after  18 iterations to a total energy of     -0.45733135

Atom SCF Calculation for C  : Z (AE atom) =   6 : Z (PS atom) =   4
Config String:
Orbitals (num,occ):  2     2.00 2.00
Orbitals   (num,l):  2        0    1
Real-space Grid (nr,dr,rmax): 1203    0.0066555740    8.0000000000
Spherical Bessel Basis (nsws,lmax,cutoff):   47    1  176.3951722778
Confining potential (l,width,scale):  0    3.0000000000  100.0000000000
Confining potential (l,width,scale):  1    3.0000000000  100.0000000000
  1         -5.2976922011   -1.3069684169    4.5135249990   -1.4493313817
  2         -5.3721716256   -1.3429755895    4.4750154450   -1.4361613026
  3         -5.3809959565   -1.3617365618    4.4541655428   -1.4305930207
  4         -5.3918938866   -1.3667928461    4.4484735100   -1.4294652294
  5         -5.3956096428   -1.3688539142    4.4461376126   -1.4290734646
  6         -5.3968271862   -1.3696852393    4.4451910874   -1.4289366866
  7         -5.3972028401   -1.3700178062    4.4448112275   -1.4288900460
  8         -5.3973067903   -1.3701500158    4.4446598370   -1.4288749220
  9         -5.3973286940   -1.3702023868    4.4445997329   -1.4288704293
 10         -5.3973289850   -1.3702230869    4.4445759233   -1.4288693188
 11         -5.3973254264   -1.3702312560    4.4445665049   -1.4288691775
 12         -5.3973224003   -1.3702344755    4.4445627836   -1.4288692549
 13         -5.3973208708   -1.3702354890    4.4445616088   -1.4288693270
 14         -5.3973198783   -1.3702360102    4.4445610034   -1.4288693814
 15         -5.3973192535   -1.3702362780    4.4445606917   -1.4288694190
 16         -5.3973188684   -1.3702364155    4.4445605313   -1.4288694437
 17         -5.3973186349   -1.3702364860    4.4445604489   -1.4288694595
 18         -5.3973184951   -1.3702365221    4.4445604065   -1.4288694693
 19         -5.3973184122   -1.3702365405    4.4445603848   -1.4288694753
Atom SCF converged after  19 iterations to a total energy of     -5.39731841

Atom SCF Calculation for S  : Z (AE atom) =  16 : Z (PS atom) =   6
Config String:
Orbitals (num,occ):  3     2.00 4.00 0.00
Orbitals   (num,l):  3        0    1    2
Real-space Grid (nr,dr,rmax): 1203    0.0066555740    8.0000000000
Spherical Bessel Basis (nsws,lmax,cutoff):   47    2  176.3951722778
Confining potential (l,width,scale):  0    3.0000000000  100.0000000000
Confining potential (l,width,scale):  1    3.0000000000  100.0000000000
Confining potential (l,width,scale):  2    3.0000000000  100.0000000000
  1        -12.4735062396   -1.0328741412   10.1554312477   -2.4512393157
  2         -9.9458301913   -2.4607392455    8.3041325857   -2.0306994528
  3        -10.1450417646   -2.2931184565    8.4831893826   -2.0812538287
  4        -10.1528335592   -2.2733105793    8.5050388867   -2.0896035179
  5        -10.1571940363   -2.2633716629    8.5160794258   -2.0939370707
  6        -10.1594380571   -2.2584938667    8.5215163935   -2.0961289008
  7        -10.1605856507   -2.2561081821    8.5241804044   -2.0972291378
  8        -10.1611799191   -2.2549395235    8.5254868240   -2.0977806248
  9        -10.1614918752   -2.2543658586    8.5261285885   -2.0980571586
 10        -10.1616572884   -2.2540839121    8.5264441898   -2.0981959233
 11        -10.1617455602   -2.2539453058    8.5265994231   -2.0982656006
 12        -10.1617928447   -2.2538772062    8.5266757320   -2.0983006047
 13        -10.1618182292   -2.2538437891    8.5267131983   -2.0983181961
 14        -10.1618318741   -2.2538274201    8.5267315620   -2.0983270391
 15        -10.1618392144   -2.2538194197    8.5267405433   -2.0983314852
 16        -10.1618431651   -2.2538155200    8.5267449245   -2.0983337210
 17        -10.1618452923   -2.2538136252    8.5267470551   -2.0983348455
 18        -10.1618464380   -2.2538127080    8.5267480875   -2.0983354110
 19        -10.1618470552   -2.2538122659    8.5267485856   -2.0983356955
 20        -10.1618473878   -2.2538120540    8.5267488248   -2.0983358386
 21        -10.1618475670   -2.2538119530    8.5267489389   -2.0983359106
 22        -10.1618476637   -2.2538119053    8.5267489929   -2.0983359468
Atom SCF converged after  22 iterations to a total energy of    -10.16184766

Atom SCF Calculation for O  : Z (AE atom) =   8 : Z (PS atom) =   6
Config String:
Orbitals (num,occ):  2     2.00 4.00
Orbitals   (num,l):  2        0    1
Real-space Grid (nr,dr,rmax): 1203    0.0066555740    8.0000000000
Spherical Bessel Basis (nsws,lmax,cutoff):   47    1  176.3951722778
Confining potential (l,width,scale):  0    3.0000000000  100.0000000000
Confining potential (l,width,scale):  1    3.0000000000  100.0000000000
  1         -1.8735052164   -7.5539365035   10.1554312477   -2.4512393157
  2        -16.0318313751   -3.1285771268   13.6395848164   -3.2358799643
  3        -15.9524020423   -3.0762819706   13.6967272503   -3.2536856837
  4        -15.8521515939   -3.0781493909   13.6951909330   -3.2561700440
  5        -15.8357139793   -3.0748501933   13.6988803334   -3.2580493133
  6        -15.8246052853   -3.0740779781   13.6997881576   -3.2588327446
  7        -15.8189019501   -3.0737449687   13.7001869911   -3.2592378801
  8        -15.8159785510   -3.0736026016   13.7003615168   -3.2594475790
  9        -15.8144776168   -3.0735437994   13.7004360379   -3.2595560735
 10        -15.8137058024   -3.0735207882   13.7004667348   -3.2596122456
 11        -15.8133083127   -3.0735125946   13.7004786868   -3.2596413656
 12        -15.8131032938   -3.0735102195   13.7004828997   -3.2596564858
 13        -15.8129973902   -3.0735099286   13.7004840891   -3.2596643505
 14        -15.8129426040   -3.0735102506   13.7004842061   -3.2596684489
 15        -15.8129142203   -3.0735106556   13.7004840157   -3.2596705887
 16        -15.8128994940   -3.0735109855   13.7004837906   -3.2596717080
 17        -15.8128918425   -3.0735112169   13.7004836103   -3.2596722946
 18        -15.8128878614   -3.0735113674   13.7004834848   -3.2596726026
 19        -15.8128857871   -3.0735114608   13.7004834035   -3.2596727646
 20        -15.8128847048   -3.0735115170   13.7004833533   -3.2596728500
 21        -15.8128841394   -3.0735115501   13.7004833231   -3.2596728951
 22        -15.8128838436   -3.0735115693   13.7004833054   -3.2596729190
 23        -15.8128836887   -3.0735115802   13.7004832951   -3.2596729316
 24        -15.8128836074   -3.0735115864   13.7004832893   -3.2596729383
Atom SCF converged after  24 iterations to a total energy of    -15.81288361

========================== Calculation in vacuum ==============================
= Adjusting the following parameters: 
= is_implicit_solvent: F
= is_include_apolar: F
= write_denskern: T
= write_tightbox_ngwfs: T
= restart read filename prefix: ""
= restart write filename prefix: "vacuum_"
===============================================================================

Determining parallel strategy ...
... using space-filling curve
... NGWF load balancing: max    163;  min    162;  average    163
... Projector load balancing: max     36;  min     32;  average     33
... done
Calculating direct Ion-Ion energy ...
Ion-Ion Energy        :    821889.54322395962663
Basis initialisation ...... NGWF spheres initialised
... Projector spheres initialised
... NGWF tight boxes initialised
... Tight-boxes gathered
... NGWF basis size (local,global):    1789313  71366131
... Nonlocal pseudopotential projector initialisation
... done

========================== Sparse matrix information ===========================
                        Overlap matrix filling:   6.71%
                        Density kernel filling: 100.00%
              NGWF-Proj overlap matrix filling:   1.77%
                    Hamiltonian matrix filling:   7.58%
                  NGWF diagonal matrix filling:   0.05%
                             KS matrix filling: 100.00% 
                           KSKS matrix filling: 100.00% 
================================================================================

Sparse matrix initialisation ... done

Generating smeared ion density ... done
Smeared ion self correction:     -14457.169564
Smeared ion non-self correction: -821841.501280
NGWF initialisation ...... done
============ Calculation of NGWF S^-1 using Hotelling algorithm ================ 
         Iteration  |  Frobenius norm and Maximum abs value    (of I-S*S_n^-1)   
               1       0.78515284E+02     0.98275930E+00
               2       0.76688888E+02     0.96596591E+00
               3       0.73721735E+02     0.93364193E+00
               4       0.69487506E+02     0.87394756E+00
               5       0.64196989E+02     0.77190690E+00
               6       0.58238260E+02     0.70250133E+00
               7       0.52229925E+02     0.67040979E+00
               8       0.46676341E+02     0.64461638E+00
               9       0.40643687E+02     0.60559224E+00
              10       0.32437225E+02     0.53864481E+00
              11       0.21896074E+02     0.42927590E+00
              12       0.11251608E+02     0.27846245E+00
              13       0.37298732E+01     0.12381448E+00
              14       0.59062815E+00     0.29471452E-01
              15       0.28474429E-01     0.25356243E-02
              16       0.16869828E-03     0.21457694E-04
              17       0.97591841E-08     0.15963099E-08
              18       0.93490879E-13     0.56621374E-14
================================================================================
Calculating local pseudopotential in open BC on the fine real space grid ...
... done

MG BCs: +ve charge blocks (gridpoints):     20074 (   15765298).
MG BCs: -ve charge blocks (gridpoints):      7839 (    1056112).
MG BCs:     Elided blocks (gridpoints):    177046 (  173955295).
MG BCs: Computational effort saved:  99.9854%.
MG BCs: Charge after coarse-graining:           -9.0002229.
MG DL_MG: Calling solver with defect correction order = 8
MG DL_MG: Solver finished
MG Hartree energy from (\int phi*rho dr):              1462.618230
MG Hartree energy from (\int eps (grad phi)^2 dr):     1461.995224
MG Discrepancy due to finite box and discretization:     -0.623006 (  -0.04260%)
MG Correction to account for finite box:                  0.463378
MG Remaining discrepancy, due to discretization:         -0.159628 (  -0.01091%)
 WARNING: xc_energy_potential using alternative initial XC functional PBE.
Up spin density kernel initialisation ... 
======= Optimisation of K by Palser-Manolopoulos canonical purification ======== 
         Iteration  |  Band structure energy |    c_n   
               1       -2575.31414152184334    0.5267284
               2       -2750.90254664464737    0.5168885
               3       -2930.76148654797089    0.5151529
               4       -3080.83523179429903    0.5283506
               5       -3173.06858210182600    0.5637973
               6       -3211.57418698851461    0.6086792
               7       -3224.59636155787393    0.6206069
               8       -3230.21681421353787    0.6185422
               9       -3232.94046825671739    0.6317631
              10       -3234.06673826474525    0.6540985
              11       -3234.50594253369627    0.6727793
              12       -3234.69212686830679    0.6776762
              13       -3234.78120872631189    0.6432086
              14       -3234.83365060422329    0.5584574
              15       -3234.86751100111042    0.4466714
              16       -3234.87781728700111    0.3989794
              17       -3234.87892125830331    0.4157190
              18       -3234.87981016412323    0.4319087
              19       -3234.88042417805536    0.4481006
              20       -3234.88073506970704    0.4794611
              21       -3234.88091844225028    0.4977476
              22       -3234.88105553224432    0.4999746
              23       -3234.88113160463035    0.5000000
              24       -3234.88114776662042    0.5000000
              25       -3234.88114832927022    0.5000048
              26       -3234.88114832991414    0.5000048
Termination criterion satisfied: band energy change below threshold.
Final occupancy bounds: [    0.00000000000000:    1.00000000000000]
Closest occupancy to 0.5:     1.00000000000000
================================================================================
... done

Writing density kernel to file "host_28601.vacuum_dkn" ... done

>>> Optimising kernel for current NGWFs:
   Initial electron number for spin 1:    7192.00000000
     Final electron number for spin 1:    7192.00000000

=================== Penalty functional idempotency correction ==================
 RMS occupancy error at iteration   1:  0.000000 (step -0.5000 Ne1=   7192.0000)
            Final RMS occupancy error   :  0.000000 (Ne1=   7192.0000)
               Final occupancy bounds   : [  0.0000,  1.0000]
================================================================================

................................................................................
<<<<<<<<<<<<<< LNV (Original version) density kernel optimisation >>>>>>>>>>>>>>
~~~~~~~~~~~~~~~~~~~~~~~~~~~~~~~~~~~~~~~~~~~~~~~~~~~~~~~~~~~~~~~~~~~~~~~~~~~~~~~~
   iter  |      energy (Eh)       | rms gradient |  commutator  |   dE (Eh)
MG BCs: +ve charge blocks (gridpoints):     30465 (   16971704).
MG BCs: -ve charge blocks (gridpoints):      8162 (    1089227).
MG BCs:     Elided blocks (gridpoints):    166647 (  172715774).
MG BCs: Computational effort saved:  99.9798%.
MG BCs: Charge after coarse-graining:           -9.0009444.
MG DL_MG: Calling solver with defect correction order = 8
MG DL_MG: Solver finished
MG Hartree energy from (\int phi*rho dr):              1418.478870
MG Hartree energy from (\int eps (grad phi)^2 dr):     1417.795115
MG Discrepancy due to finite box and discretization:     -0.683756 (  -0.04820%)
MG Correction to account for finite box:                  0.479457
MG Remaining discrepancy, due to discretization:         -0.204299 (  -0.01440%)
      ideal mu1:      -0.728578716374
             Q0:  -11468.343616021099
             G0:    -125.855199018662
   RMS gradient:       0.001724599594
MG BCs: +ve charge blocks (gridpoints):     30491 (   17051103).
MG BCs: -ve charge blocks (gridpoints):      8077 (    1067059).
MG BCs:     Elided blocks (gridpoints):    166618 (  172658543).
MG BCs: Computational effort saved:  99.9798%.
MG BCs: Charge after coarse-graining:           -9.0009657.
MG DL_MG: Calling solver with defect correction order = 8
MG DL_MG: Solver finished
MG Hartree energy from (\int phi*rho dr):              1440.272714
MG Hartree energy from (\int eps (grad phi)^2 dr):     1439.605582
MG Discrepancy due to finite box and discretization:     -0.667133 (  -0.04632%)
MG Correction to account for finite box:                  0.478975
MG Remaining discrepancy, due to discretization:         -0.188158 (  -0.01306%)
     Trial step:       0.500000000000
             Q1:  -11480.738867638051
 Quadratic coef:      50.532347892378
 Linear coef   :     -62.927599509331
           Qmin:  -11487.934447167716
Quadratic minimum step length (  0.311323350952) accepted
    Initial Ne1:    7192.00000000
      Final Ne1:    7192.00000000

=================== Penalty functional idempotency correction ==================
 RMS occupancy error at iteration   1:  0.003210 (step -0.4891 Ne1=   7192.0000)
 RMS occupancy error at iteration   2:  0.000025 (step -0.5001 Ne1=   7192.0000)
            Final RMS occupancy error   :  0.000000 (Ne1=   7192.0000)
               Final occupancy bounds   : [  0.0000,  1.0000]
================================================================================

    1        -1.146834361602E+04     1.7246E-03     1.5599E-03
MG BCs: +ve charge blocks (gridpoints):     30474 (   17022625).
MG BCs: -ve charge blocks (gridpoints):      8099 (    1075568).
MG BCs:     Elided blocks (gridpoints):    166635 (  172678512).
MG BCs: Computational effort saved:  99.9798%.
MG BCs: Charge after coarse-graining:           -9.0009579.
MG DL_MG: Calling solver with defect correction order = 8
MG DL_MG: Solver finished
MG Hartree energy from (\int phi*rho dr):              1425.556484
MG Hartree energy from (\int eps (grad phi)^2 dr):     1424.883952
MG Discrepancy due to finite box and discretization:     -0.672531 (  -0.04718%)
MG Correction to account for finite box:                  0.479049
MG Remaining discrepancy, due to discretization:         -0.193483 (  -0.01357%)
      ideal mu1:      -0.772232030970
             Q0:  -11488.312086872058
             G0:     -11.351426204148
   RMS gradient:       0.000514220387
MG BCs: +ve charge blocks (gridpoints):     30467 (   17039483).
MG BCs: -ve charge blocks (gridpoints):      8074 (    1068946).
MG BCs:     Elided blocks (gridpoints):    166642 (  172668276).
MG BCs: Computational effort saved:  99.9798%.
MG BCs: Charge after coarse-graining:           -9.0009624.
MG DL_MG: Calling solver with defect correction order = 8
MG DL_MG: Solver finished
MG Hartree energy from (\int phi*rho dr):              1430.917420
MG Hartree energy from (\int eps (grad phi)^2 dr):     1430.248846
MG Discrepancy due to finite box and discretization:     -0.668574 (  -0.04672%)
MG Correction to account for finite box:                  0.478241
MG Remaining discrepancy, due to discretization:         -0.190334 (  -0.01330%)
     Trial step:       0.394539827490
             Q1:  -11490.905881567043
 Quadratic coef:       1.884795041367
 Linear coef   :      -4.478589736353
           Qmin:  -11490.972557319286
Quadratic minimum step length (  0.468746463992) accepted
    Initial Ne1:    7191.99988603
      Final Ne1:    7192.00000000

=================== Penalty functional idempotency correction ==================
 RMS occupancy error at iteration   1:  0.001528 (step -0.4944 Ne1=   7192.0000)
 RMS occupancy error at iteration   2:  0.000008 (step -0.5002 Ne1=   7192.0000)
            Final RMS occupancy error   :  0.000000 (Ne1=   7192.0000)
               Final occupancy bounds   : [  0.0000,  1.0000]
================================================================================

    2        -1.148831208687E+04     5.1422E-04     4.6510E-04    -1.9968E+01
MG BCs: +ve charge blocks (gridpoints):     30473 (   17042819).
MG BCs: -ve charge blocks (gridpoints):      8070 (    1067664).
MG BCs:     Elided blocks (gridpoints):    166636 (  172666222).
MG BCs: Computational effort saved:  99.9798%.
MG BCs: Charge after coarse-graining:           -9.0009632.
MG DL_MG: Calling solver with defect correction order = 8
MG DL_MG: Solver finished
MG Hartree energy from (\int phi*rho dr):              1431.955284
MG Hartree energy from (\int eps (grad phi)^2 dr):     1431.287410
MG Discrepancy due to finite box and discretization:     -0.667874 (  -0.04664%)
MG Correction to account for finite box:                  0.478096
MG Remaining discrepancy, due to discretization:         -0.189778 (  -0.01325%)
      ideal mu1:      -0.795429661891
             Q0:  -11491.007121095434
             G0:      -1.910395111249
   RMS gradient:       0.000210999059
MG BCs: +ve charge blocks (gridpoints):     30465 (   17044080).
MG BCs: -ve charge blocks (gridpoints):      8074 (    1067665).
MG BCs:     Elided blocks (gridpoints):    166644 (  172664960).
MG BCs: Computational effort saved:  99.9798%.
MG BCs: Charge after coarse-graining:           -9.0009632.
MG DL_MG: Calling solver with defect correction order = 8
MG DL_MG: Solver finished
MG Hartree energy from (\int phi*rho dr):              1431.242213
MG Hartree energy from (\int eps (grad phi)^2 dr):     1430.574963
MG Discrepancy due to finite box and discretization:     -0.667250 (  -0.04662%)
MG Correction to account for finite box:                  0.477686
MG Remaining discrepancy, due to discretization:         -0.189564 (  -0.01324%)
     Trial step:       0.430045519730
             Q1:  -11491.501123681897
 Quadratic coef:       0.327554272044
 Linear coef   :      -0.821556858507
           Qmin:  -11491.522269064310
Quadratic minimum step length (  0.539310392748) accepted
    Initial Ne1:    7191.99993674
      Final Ne1:    7192.00000000

=================== Penalty functional idempotency correction ==================
 RMS occupancy error at iteration   1:  0.000615 (step -0.4972 Ne1=   7192.0000)
 RMS occupancy error at iteration   2:  0.000003 (step -0.5000 Ne1=   7192.0000)
            Final RMS occupancy error   :  0.000000 (Ne1=   7192.0000)
               Final occupancy bounds   : [  0.0000,  1.0000]
================================================================================

    3        -1.149100712110E+04     2.1100E-04     1.9084E-04    -2.6950E+00
MG BCs: +ve charge blocks (gridpoints):     30462 (   17044252).
MG BCs: -ve charge blocks (gridpoints):      8075 (    1067700).
MG BCs:     Elided blocks (gridpoints):    166647 (  172664753).
MG BCs: Computational effort saved:  99.9798%.
MG BCs: Charge after coarse-graining:           -9.0009633.
MG DL_MG: Calling solver with defect correction order = 8
MG DL_MG: Solver finished
MG Hartree energy from (\int phi*rho dr):              1431.066683
MG Hartree energy from (\int eps (grad phi)^2 dr):     1430.399581
MG Discrepancy due to finite box and discretization:     -0.667101 (  -0.04662%)
MG Correction to account for finite box:                  0.477584
MG Remaining discrepancy, due to discretization:         -0.189517 (  -0.01324%)
      ideal mu1:      -0.798523094342
             Q0:  -11491.527187920292
             G0:      -0.448515644152
   RMS gradient:       0.000102432719
MG BCs: +ve charge blocks (gridpoints):     30461 (   17044848).
MG BCs: -ve charge blocks (gridpoints):      8073 (    1067605).
MG BCs:     Elided blocks (gridpoints):    166648 (  172664252).
MG BCs: Computational effort saved:  99.9798%.
MG BCs: Charge after coarse-graining:           -9.0009633.
MG DL_MG: Calling solver with defect correction order = 8
MG DL_MG: Solver finished
MG Hartree energy from (\int phi*rho dr):              1432.184981
MG Hartree energy from (\int eps (grad phi)^2 dr):     1431.517973
MG Discrepancy due to finite box and discretization:     -0.667008 (  -0.04657%)
MG Correction to account for finite box:                  0.477325
MG Remaining discrepancy, due to discretization:         -0.189683 (  -0.01324%)
     Trial step:       0.481589055259
             Q1:  -11491.644069231697
 Quadratic coef:       0.099118913931
 Linear coef   :      -0.216000225336
           Qmin:  -11491.644865000009
Quadratic minimum step length (  0.524740134498) accepted
    Initial Ne1:    7191.99998551
      Final Ne1:    7192.00000000

=================== Penalty functional idempotency correction ==================
 RMS occupancy error at iteration   1:  0.000253 (step -0.4969 Ne1=   7192.0000)
 RMS occupancy error at iteration   2:  0.000002 (step -0.5000 Ne1=   7192.0000)
            Final RMS occupancy error   :  0.000000 (Ne1=   7192.0000)
               Final occupancy bounds   : [  0.0000,  1.0000]
================================================================================

    4        -1.149152718792E+04     1.0243E-04     9.2648E-05    -5.2007E-01
MG BCs: +ve charge blocks (gridpoints):     30461 (   17044885).
MG BCs: -ve charge blocks (gridpoints):      8073 (    1067595).
MG BCs:     Elided blocks (gridpoints):    166648 (  172664225).
MG BCs: Computational effort saved:  99.9798%.
MG BCs: Charge after coarse-graining:           -9.0009633.
MG DL_MG: Calling solver with defect correction order = 8
MG DL_MG: Solver finished
MG Hartree energy from (\int phi*rho dr):              1432.285659
MG Hartree energy from (\int eps (grad phi)^2 dr):     1431.618658
MG Discrepancy due to finite box and discretization:     -0.667001 (  -0.04657%)
MG Correction to account for finite box:                  0.477302
MG Remaining discrepancy, due to discretization:         -0.189699 (  -0.01324%)
      ideal mu1:      -0.798813816928
             Q0:  -11491.645430035074
             G0:      -0.161453765321
   RMS gradient:       0.000061624118
MG BCs: +ve charge blocks (gridpoints):     30464 (   17044390).
MG BCs: -ve charge blocks (gridpoints):      8072 (    1067777).
MG BCs:     Elided blocks (gridpoints):    166645 (  172664538).
MG BCs: Computational effort saved:  99.9798%.
MG BCs: Charge after coarse-graining:           -9.0009630.
MG DL_MG: Calling solver with defect correction order = 8
MG DL_MG: Solver finished
MG Hartree energy from (\int phi*rho dr):              1431.936853
MG Hartree energy from (\int eps (grad phi)^2 dr):     1431.269749
MG Discrepancy due to finite box and discretization:     -0.667104 (  -0.04659%)
MG Correction to account for finite box:                  0.477268
MG Remaining discrepancy, due to discretization:         -0.189836 (  -0.01326%)
     Trial step:       0.502701805874
             Q1:  -11491.693679309334
 Quadratic coef:       0.032913825133
 Linear coef   :      -0.081163099392
           Qmin:  -11491.695465610372
Quadratic minimum step length (  0.619813049231) accepted
    Initial Ne1:    7191.99999380
      Final Ne1:    7192.00000000

=================== Penalty functional idempotency correction ==================
 RMS occupancy error at iteration   1:  0.000277 (step -0.4863 Ne1=   7192.0000)
 RMS occupancy error at iteration   2:  0.000004 (step -0.5000 Ne1=   7192.0000)
            Final RMS occupancy error   :  0.000000 (Ne1=   7192.0000)
               Final occupancy bounds   : [  0.0000,  1.0000]
================================================================================

    5        -1.149164543004E+04     6.1624E-05     5.5738E-05    -1.1824E-01
MG BCs: +ve charge blocks (gridpoints):     30462 (   17044299).
MG BCs: -ve charge blocks (gridpoints):      8072 (    1067809).
MG BCs:     Elided blocks (gridpoints):    166647 (  172664597).
MG BCs: Computational effort saved:  99.9798%.
MG BCs: Charge after coarse-graining:           -9.0009629.
MG DL_MG: Calling solver with defect correction order = 8
MG DL_MG: Solver finished
MG Hartree energy from (\int phi*rho dr):              1431.855221
MG Hartree energy from (\int eps (grad phi)^2 dr):     1431.188090
MG Discrepancy due to finite box and discretization:     -0.667131 (  -0.04659%)
MG Correction to account for finite box:                  0.477260
MG Remaining discrepancy, due to discretization:         -0.189871 (  -0.01326%)
      ideal mu1:      -0.797847776928
             Q0:  -11491.695453543332
             G0:      -0.110910848467
   RMS gradient:       0.000051215270
MG BCs: +ve charge blocks (gridpoints):     30464 (   17043871).
MG BCs: -ve charge blocks (gridpoints):      8073 (    1068055).
MG BCs:     Elided blocks (gridpoints):    166645 (  172664779).
MG BCs: Computational effort saved:  99.9798%.
MG BCs: Charge after coarse-graining:           -9.0009627.
MG DL_MG: Calling solver with defect correction order = 8
MG DL_MG: Solver finished
MG Hartree energy from (\int phi*rho dr):              1430.959731
MG Hartree energy from (\int eps (grad phi)^2 dr):     1430.292596
MG Discrepancy due to finite box and discretization:     -0.667135 (  -0.04662%)
MG Correction to account for finite box:                  0.477242
MG Remaining discrepancy, due to discretization:         -0.189893 (  -0.01327%)
     Trial step:       0.558194535223
             Q1:  -11491.745148223708
 Quadratic coef:       0.012215149134
 Linear coef   :      -0.061909829511
           Qmin:  -11491.773897673404
Quadratic minimum step length (  1.414543863940) accepted
    Initial Ne1:    7191.99998683
      Final Ne1:    7192.00000000

=================== Penalty functional idempotency correction ==================
 RMS occupancy error at iteration   1:  0.002507 (step -0.3691 Ne1=   7192.0000)
 RMS occupancy error at iteration   2:  0.000160 (step -0.4935 Ne1=   7192.0000)
 RMS occupancy error at iteration   3:  0.000002 (step -0.5000 Ne1=   7192.0000)
            Final RMS occupancy error   :  0.000000 (Ne1=   7192.0000)
               Final occupancy bounds   : [  0.0000,  1.0000]
================================================================================

    6        -1.149169545354E+04     5.1215E-05     4.6323E-05    -5.0024E-02
MG BCs: +ve charge blocks (gridpoints):     30467 (   17043256).
MG BCs: -ve charge blocks (gridpoints):      8073 (    1068438).
MG BCs:     Elided blocks (gridpoints):    166642 (  172665011).
MG BCs: Computational effort saved:  99.9798%.
MG BCs: Charge after coarse-graining:           -9.0009625.
MG DL_MG: Calling solver with defect correction order = 8
MG DL_MG: Solver finished
MG Hartree energy from (\int phi*rho dr):              1429.581627
MG Hartree energy from (\int eps (grad phi)^2 dr):     1428.914476
MG Discrepancy due to finite box and discretization:     -0.667150 (  -0.04667%)
MG Correction to account for finite box:                  0.477212
MG Remaining discrepancy, due to discretization:         -0.189938 (  -0.01329%)
      ideal mu1:      -0.797879380095
             Q0:  -11491.756064576330
             G0:      -0.289397786498
   RMS gradient:       0.000082699008
MG BCs: +ve charge blocks (gridpoints):     30467 (   17046015).
MG BCs: -ve charge blocks (gridpoints):      8071 (    1066755).
MG BCs:     Elided blocks (gridpoints):    166642 (  172663935).
MG BCs: Computational effort saved:  99.9798%.
MG BCs: Charge after coarse-graining:           -9.0009636.
MG DL_MG: Calling solver with defect correction order = 8
MG DL_MG: Solver finished
MG Hartree energy from (\int phi*rho dr):              1434.007188
MG Hartree energy from (\int eps (grad phi)^2 dr):     1433.340256
MG Discrepancy due to finite box and discretization:     -0.666933 (  -0.04651%)
MG Correction to account for finite box:                  0.477055
MG Remaining discrepancy, due to discretization:         -0.189878 (  -0.01324%)
     Trial step:       0.888589137163
             Q1:  -11491.817790766363
 Quadratic coef:       0.195429539368
 Linear coef   :      -0.257155729401
           Qmin:  -11491.840659092310
Quadratic minimum step length (  0.584624485234) accepted
    Initial Ne1:    7191.99999972
      Final Ne1:    7192.00000000

=================== Penalty functional idempotency correction ==================
 RMS occupancy error at iteration   1:  0.000148 (step -0.4901 Ne1=   7192.0000)
 RMS occupancy error at iteration   2:  0.000001 (step -0.5000 Ne1=   7192.0000)
            Final RMS occupancy error   :  0.000000 (Ne1=   7192.0000)
               Final occupancy bounds   : [  0.0000,  1.0000]
================================================================================

    7        -1.149175606458E+04     8.2699E-05     7.4799E-05    -6.0611E-02
MG BCs: +ve charge blocks (gridpoints):     30464 (   17045035).
MG BCs: -ve charge blocks (gridpoints):      8070 (    1067398).
MG BCs:     Elided blocks (gridpoints):    166645 (  172664272).
MG BCs: Computational effort saved:  99.9798%.
MG BCs: Charge after coarse-graining:           -9.0009632.
MG DL_MG: Calling solver with defect correction order = 8
MG DL_MG: Solver finished
MG Hartree energy from (\int phi*rho dr):              1432.486711
MG Hartree energy from (\int eps (grad phi)^2 dr):     1431.819710
MG Discrepancy due to finite box and discretization:     -0.667001 (  -0.04656%)
MG Correction to account for finite box:                  0.477108
MG Remaining discrepancy, due to discretization:         -0.189893 (  -0.01326%)
      ideal mu1:      -0.799250266903
             Q0:  -11491.840855077491
             G0:      -0.194316396052
   RMS gradient:       0.000067676071
MG BCs: +ve charge blocks (gridpoints):     30463 (   17045144).
MG BCs: -ve charge blocks (gridpoints):      8070 (    1067259).
MG BCs:     Elided blocks (gridpoints):    166646 (  172664302).
MG BCs: Computational effort saved:  99.9798%.
MG BCs: Charge after coarse-graining:           -9.0009635.
MG DL_MG: Calling solver with defect correction order = 8
MG DL_MG: Solver finished
MG Hartree energy from (\int phi*rho dr):              1432.386236
MG Hartree energy from (\int eps (grad phi)^2 dr):     1431.719438
MG Discrepancy due to finite box and discretization:     -0.666798 (  -0.04655%)
MG Correction to account for finite box:                  0.477096
MG Remaining discrepancy, due to discretization:         -0.189702 (  -0.01324%)
     Trial step:       0.720757217722
             Q1:  -11491.934068317176
 Quadratic coef:       0.046841705291
 Linear coef   :      -0.140054944976
           Qmin:  -11491.945544837879
Quadratic minimum step length (  1.077518547229) accepted
    Initial Ne1:    7191.99999950
      Final Ne1:    7192.00000000

=================== Penalty functional idempotency correction ==================
 RMS occupancy error at iteration   1:  0.001894 (step -0.3976 Ne1=   7192.0000)
 RMS occupancy error at iteration   2:  0.000086 (step -0.4956 Ne1=   7192.0000)
 RMS occupancy error at iteration   3:  0.000001 (step -0.5000 Ne1=   7192.0000)
            Final RMS occupancy error   :  0.000000 (Ne1=   7192.0000)
               Final occupancy bounds   : [  0.0000,  1.0000]
================================================================================

    8        -1.149184085508E+04     6.7676E-05     6.1211E-05    -8.4791E-02
MG BCs: +ve charge blocks (gridpoints):     30463 (   17045254).
MG BCs: -ve charge blocks (gridpoints):      8070 (    1067188).
MG BCs:     Elided blocks (gridpoints):    166646 (  172664263).
MG BCs: Computational effort saved:  99.9798%.
MG BCs: Charge after coarse-graining:           -9.0009636.
MG DL_MG: Calling solver with defect correction order = 8
MG DL_MG: Solver finished
MG Hartree energy from (\int phi*rho dr):              1432.343433
MG Hartree energy from (\int eps (grad phi)^2 dr):     1431.676718
MG Discrepancy due to finite box and discretization:     -0.666715 (  -0.04655%)
MG Correction to account for finite box:                  0.477091
MG Remaining discrepancy, due to discretization:         -0.189624 (  -0.01324%)
      ideal mu1:      -0.799029591877
             Q0:  -11491.939623351791
             G0:      -0.289357652390
   RMS gradient:       0.000085079955
MG BCs: +ve charge blocks (gridpoints):     30461 (   17044217).
MG BCs: -ve charge blocks (gridpoints):      8075 (    1067908).
MG BCs:     Elided blocks (gridpoints):    166648 (  172664580).
MG BCs: Computational effort saved:  99.9798%.
MG BCs: Charge after coarse-graining:           -9.0009633.
MG DL_MG: Calling solver with defect correction order = 8
MG DL_MG: Solver finished
MG Hartree energy from (\int phi*rho dr):              1430.236213
MG Hartree energy from (\int eps (grad phi)^2 dr):     1429.569672
MG Discrepancy due to finite box and discretization:     -0.666542 (  -0.04660%)
MG Correction to account for finite box:                  0.477146
MG Remaining discrepancy, due to discretization:         -0.189396 (  -0.01324%)
     Trial step:       0.881265720509
             Q1:  -11491.974742373335
 Quadratic coef:       0.219881958474
 Linear coef   :      -0.255000980018
           Qmin:  -11492.013555633754
Quadratic minimum step length (  0.511009688894) accepted
    Initial Ne1:    7191.99999960
      Final Ne1:    7192.00000000

=================== Penalty functional idempotency correction ==================
 RMS occupancy error at iteration   1:  0.003667 (step -0.3396 Ne1=   7192.0000)
 RMS occupancy error at iteration   2:  0.000234 (step -0.4891 Ne1=   7192.0000)
 RMS occupancy error at iteration   3:  0.000005 (step -0.5000 Ne1=   7192.0000)
            Final RMS occupancy error   :  0.000000 (Ne1=   7192.0000)
               Final occupancy bounds   : [  0.0000,  1.0000]
================================================================================

    9        -1.149193962335E+04     8.5080E-05     7.6953E-05    -9.8768E-02
MG BCs: +ve charge blocks (gridpoints):     30459 (   17044639).
MG BCs: -ve charge blocks (gridpoints):      8074 (    1067585).
MG BCs:     Elided blocks (gridpoints):    166650 (  172664481).
MG BCs: Computational effort saved:  99.9798%.
MG BCs: Charge after coarse-graining:           -9.0009634.
MG DL_MG: Calling solver with defect correction order = 8
MG DL_MG: Solver finished
MG Hartree energy from (\int phi*rho dr):              1431.090582
MG Hartree energy from (\int eps (grad phi)^2 dr):     1430.423968
MG Discrepancy due to finite box and discretization:     -0.666614 (  -0.04658%)
MG Correction to account for finite box:                  0.477145
MG Remaining discrepancy, due to discretization:         -0.189470 (  -0.01324%)
      ideal mu1:      -0.798477429845
   10        -1.149202336014E+04     6.8233E-05     6.1715E-05    -8.3737E-02
Finished density kernel iterations (  10)

Writing density kernel to file "host_28601.vacuum_dkn" ... done


>>> Density kernel optimised for the current NGWF basis:
     ~~~~~~~~~~~~~~~~~~~~~~~~~~~~~~~~~~~~~~~~~~~~~~~~~~~~~~~~~~~
     Total energy                =  -1.14920233601443E+04  Eh
     Estimated bandgap           =  -4.1148E-01  Eh
     RMS occupancy error         =   2.9647E-09
     [H,K] commutator            =   6.1715E-05
     Occupancy bounds            = [  0.000:  1.000]
     ~~~~~~~~~~~~~~~~~~~~~~~~~~~~~~~~~~~~~~~~~~~~~~~~~~~~~~~~~~~




################################################################################
########################### NGWF CG iteration  001 #############################
################################################################################
****** Reciprocal space K.E. preconditioning with k_zero =  3.5000 a0^-1 *******

>>> Checking for convergence of NGWFs:   NOT CONVERGED
  ========================================================================
         NGWF RMS gradient =  1.6978E-03 >  2.0000E-06  | above tolerance
  ========================================================================

>>> Improving NGWFs using line search:
============ Calculation of NGWF S^-1 using Hotelling algorithm ================ 
         Iteration  |  Frobenius norm and Maximum abs value    (of I-S*S_n^-1)   
               1       0.24784305E+00     0.69970693E-02
               2       0.14361415E-02     0.66330246E-04
               3       0.82169261E-07     0.62920757E-08
               4       0.12844023E-12     0.77715612E-14
================================================================================
MG BCs: +ve charge blocks (gridpoints):     29992 (   16989721).
MG BCs: -ve charge blocks (gridpoints):      8072 (    1064111).
MG BCs:     Elided blocks (gridpoints):    167116 (  172722873).
MG BCs: Computational effort saved:  99.9800%.
MG BCs: Charge after coarse-graining:           -9.0009701.
MG DL_MG: Calling solver with defect correction order = 8
MG DL_MG: Solver finished
MG Hartree energy from (\int phi*rho dr):              1402.354361
MG Hartree energy from (\int eps (grad phi)^2 dr):     1401.689406
MG Discrepancy due to finite box and discretization:     -0.664955 (  -0.04742%)
MG Correction to account for finite box:                  0.477060
MG Remaining discrepancy, due to discretization:         -0.187895 (  -0.01340%)
============ Calculation of NGWF S^-1 using Hotelling algorithm ================ 
         Iteration  |  Frobenius norm and Maximum abs value    (of I-S*S_n^-1)   
               1       0.21501871E+01     0.51392408E-01
               2       0.95616540E-01     0.33132576E-02
               3       0.26700734E-03     0.15731331E-04
               4       0.37680768E-08     0.39763093E-09
               5       0.11245203E-12     0.53290705E-14
================================================================================
------------------------------- NGWF line search -------------------------------
RMS gradient                =       0.00169777623402
Trial step length           =               0.122474
Gradient along search dir.  =       -306.80237060139
Functional at step 0        =  -11492.02336014434695
Functional at step 1        =  -11526.56032790127210
Functional predicted        =  -11608.19232781102801
Selected quadratic step     =               0.757289
--------------------------- NGWF line search finished --------------------------
                                               
Writing NGWFs to file "host_28601.vacuum_tightbox_ngwfs"....  done

>>> Optimising kernel for current NGWFs:
   Initial electron number for spin 1:    7238.24180189
     Final electron number for spin 1:    7192.00000000

=================== Penalty functional idempotency correction ==================
 RMS occupancy error at iteration   1:  0.005374 (step -0.4815 Ne1=   7192.0000)
 RMS occupancy error at iteration   2:  0.000105 (step -0.5003 Ne1=   7192.0000)
            Final RMS occupancy error   :  0.000000 (Ne1=   7192.0000)
               Final occupancy bounds   : [  0.0000,  1.0000]
================================================================================

................................................................................
<<<<<<<<<<<<<< LNV (Original version) density kernel optimisation >>>>>>>>>>>>>>
~~~~~~~~~~~~~~~~~~~~~~~~~~~~~~~~~~~~~~~~~~~~~~~~~~~~~~~~~~~~~~~~~~~~~~~~~~~~~~~~
   iter  |      energy (Eh)       | rms gradient |  commutator  |   dE (Eh)
MG BCs: +ve charge blocks (gridpoints):     24783 (   16703828).
MG BCs: -ve charge blocks (gridpoints):      8145 (    1034680).
MG BCs:     Elided blocks (gridpoints):    172337 (  173038197).
MG BCs: Computational effort saved:  99.9827%.
MG BCs: Charge after coarse-graining:           -9.0007464.
MG DL_MG: Calling solver with defect correction order = 8
MG DL_MG: Solver finished
MG Hartree energy from (\int phi*rho dr):              1274.857265
MG Hartree energy from (\int eps (grad phi)^2 dr):     1274.195564
MG Discrepancy due to finite box and discretization:     -0.661701 (  -0.05190%)
MG Correction to account for finite box:                  0.476715
MG Remaining discrepancy, due to discretization:         -0.184986 (  -0.01451%)
      ideal mu1:      -0.742942823183
             Q0:  -11607.587797682965
             G0:      -9.482245145392
   RMS gradient:       0.000473378238
MG BCs: +ve charge blocks (gridpoints):     24840 (   16713871).
MG BCs: -ve charge blocks (gridpoints):      8139 (    1031812).
MG BCs:     Elided blocks (gridpoints):    172280 (  173031022).
MG BCs: Computational effort saved:  99.9827%.
MG BCs: Charge after coarse-graining:           -9.0007423.
MG DL_MG: Calling solver with defect correction order = 8
MG DL_MG: Solver finished
MG Hartree energy from (\int phi*rho dr):              1286.572683
MG Hartree energy from (\int eps (grad phi)^2 dr):     1285.907005
MG Discrepancy due to finite box and discretization:     -0.665678 (  -0.05174%)
MG Correction to account for finite box:                  0.475650
MG Remaining discrepancy, due to discretization:         -0.190028 (  -0.01477%)
     Trial step:       0.671070280724
             Q1:  -11607.552077762084
 Quadratic coef:       6.398972832492
 Linear coef   :      -6.363252911611
           Qmin:  -11609.169730778989
Quadratic minimum step length (  0.333662138401) accepted
    Initial Ne1:    7191.99880744
      Final Ne1:    7192.00000000

=================== Penalty functional idempotency correction ==================
 RMS occupancy error at iteration   1:  0.000355 (step -0.4985 Ne1=   7192.0000)
 RMS occupancy error at iteration   2:  0.000000 (step -0.5000 Ne1=   7192.0000)
            Final RMS occupancy error   :  0.000000 (Ne1=   7192.0000)
               Final occupancy bounds   : [  0.0000,  1.0000]
================================================================================

    1        -1.160758779768E+04     4.7338E-04     4.2816E-04
MG BCs: +ve charge blocks (gridpoints):     24813 (   16708888).
MG BCs: -ve charge blocks (gridpoints):      8142 (    1033317).
MG BCs:     Elided blocks (gridpoints):    172307 (  173034500).
MG BCs: Computational effort saved:  99.9827%.
MG BCs: Charge after coarse-graining:           -9.0007443.
MG DL_MG: Calling solver with defect correction order = 8
MG DL_MG: Solver finished
MG Hartree energy from (\int phi*rho dr):              1279.859080
MG Hartree energy from (\int eps (grad phi)^2 dr):     1279.195494
MG Discrepancy due to finite box and discretization:     -0.663586 (  -0.05185%)
MG Correction to account for finite box:                  0.476159
MG Remaining discrepancy, due to discretization:         -0.187428 (  -0.01464%)
      ideal mu1:      -0.748720387739
             Q0:  -11609.153499557287
             G0:      -0.918073475270
   RMS gradient:       0.000147609322
MG BCs: +ve charge blocks (gridpoints):     24815 (   16707348).
MG BCs: -ve charge blocks (gridpoints):      8147 (    1034351).
MG BCs:     Elided blocks (gridpoints):    172305 (  173035006).
MG BCs: Computational effort saved:  99.9827%.
MG BCs: Charge after coarse-graining:           -9.0007444.
MG DL_MG: Calling solver with defect correction order = 8
MG DL_MG: Solver finished
MG Hartree energy from (\int phi*rho dr):              1280.127832
MG Hartree energy from (\int eps (grad phi)^2 dr):     1279.464048
MG Discrepancy due to finite box and discretization:     -0.663784 (  -0.05185%)
MG Correction to account for finite box:                  0.476001
MG Remaining discrepancy, due to discretization:         -0.187783 (  -0.01467%)
     Trial step:       0.473192080326
             Q1:  -11609.368576162611
 Quadratic coef:       0.219348492332
 Linear coef   :      -0.434425097655
           Qmin:  -11609.368596961727
Quadratic minimum step length (  0.468584291417) accepted
    Initial Ne1:    7191.99983714
      Final Ne1:    7192.00000000

=================== Penalty functional idempotency correction ==================
 RMS occupancy error at iteration   1:  0.000162 (step -0.4987 Ne1=   7192.0000)
 RMS occupancy error at iteration   2:  0.000000 (step -0.5000 Ne1=   7192.0000)
            Final RMS occupancy error   :  0.000000 (Ne1=   7192.0000)
               Final occupancy bounds   : [  0.0000,  1.0000]
================================================================================

    2        -1.160915349956E+04     1.4761E-04     1.3351E-04    -1.5657E+00
MG BCs: +ve charge blocks (gridpoints):     24815 (   16707351).
MG BCs: -ve charge blocks (gridpoints):      8147 (    1034345).
MG BCs:     Elided blocks (gridpoints):    172305 (  173035009).
MG BCs: Computational effort saved:  99.9827%.
MG BCs: Charge after coarse-graining:           -9.0007444.
MG DL_MG: Calling solver with defect correction order = 8
MG DL_MG: Solver finished
MG Hartree energy from (\int phi*rho dr):              1280.125377
MG Hartree energy from (\int eps (grad phi)^2 dr):     1279.461595
MG Discrepancy due to finite box and discretization:     -0.663782 (  -0.05185%)
MG Correction to account for finite box:                  0.476003
MG Remaining discrepancy, due to discretization:         -0.187779 (  -0.01467%)
      ideal mu1:      -0.749051468017
             Q0:  -11609.369014772703
             G0:      -0.198811936059
   RMS gradient:       0.000068476166
MG BCs: +ve charge blocks (gridpoints):     24810 (   16706412).
MG BCs: -ve charge blocks (gridpoints):      8148 (    1034733).
MG BCs:     Elided blocks (gridpoints):    172310 (  173035560).
MG BCs: Computational effort saved:  99.9827%.
MG BCs: Charge after coarse-graining:           -9.0007445.
MG DL_MG: Calling solver with defect correction order = 8
MG DL_MG: Solver finished
MG Hartree energy from (\int phi*rho dr):              1279.404411
MG Hartree energy from (\int eps (grad phi)^2 dr):     1278.740836
MG Discrepancy due to finite box and discretization:     -0.663575 (  -0.05187%)
MG Correction to account for finite box:                  0.475864
MG Remaining discrepancy, due to discretization:         -0.187712 (  -0.01467%)
     Trial step:       0.470882549755
             Q1:  -11609.430620110361
 Quadratic coef:       0.032011733716
 Linear coef   :      -0.093617071373
           Qmin:  -11609.437459644592
Quadratic minimum step length (  0.688538859843) accepted
    Initial Ne1:    7191.99994848
      Final Ne1:    7192.00000000

=================== Penalty functional idempotency correction ==================
 RMS occupancy error at iteration   1:  0.000211 (step -0.4902 Ne1=   7192.0000)
 RMS occupancy error at iteration   2:  0.000002 (step -0.5000 Ne1=   7192.0000)
            Final RMS occupancy error   :  0.000000 (Ne1=   7192.0000)
               Final occupancy bounds   : [  0.0000,  1.0000]
================================================================================

    3        -1.160936901477E+04     6.8476E-05     6.1935E-05    -2.1552E-01
MG BCs: +ve charge blocks (gridpoints):     24811 (   16705933).
MG BCs: -ve charge blocks (gridpoints):      8147 (    1034953).
MG BCs:     Elided blocks (gridpoints):    172309 (  173035819).
MG BCs: Computational effort saved:  99.9827%.
MG BCs: Charge after coarse-graining:           -9.0007445.
MG DL_MG: Calling solver with defect correction order = 8
MG DL_MG: Solver finished
MG Hartree energy from (\int phi*rho dr):              1279.070674
MG Hartree energy from (\int eps (grad phi)^2 dr):     1278.407195
MG Discrepancy due to finite box and discretization:     -0.663479 (  -0.05187%)
MG Correction to account for finite box:                  0.475798
MG Remaining discrepancy, due to discretization:         -0.187681 (  -0.01467%)
      ideal mu1:      -0.747830212691
             Q0:  -11609.437507945579
             G0:      -0.076295415154
   RMS gradient:       0.000042420751
MG BCs: +ve charge blocks (gridpoints):     24808 (   16705817).
MG BCs: -ve charge blocks (gridpoints):      8149 (    1034966).
MG BCs:     Elided blocks (gridpoints):    172312 (  173035922).
MG BCs: Computational effort saved:  99.9827%.
MG BCs: Charge after coarse-graining:           -9.0007446.
MG DL_MG: Calling solver with defect correction order = 8
MG DL_MG: Solver finished
MG Hartree energy from (\int phi*rho dr):              1279.119613
MG Hartree energy from (\int eps (grad phi)^2 dr):     1278.456362
MG Discrepancy due to finite box and discretization:     -0.663250 (  -0.05185%)
MG Correction to account for finite box:                  0.475678
MG Remaining discrepancy, due to discretization:         -0.187572 (  -0.01466%)
     Trial step:       0.569404016432
             Q1:  -11609.467663953314
 Quadratic coef:       0.013286908088
 Linear coef   :      -0.043442915824
           Qmin:  -11609.473018218599
Quadratic minimum step length (  0.930862567563) accepted
    Initial Ne1:    7191.99997270
      Final Ne1:    7192.00000000

=================== Penalty functional idempotency correction ==================
 RMS occupancy error at iteration   1:  0.000519 (step -0.4704 Ne1=   7192.0000)
 RMS occupancy error at iteration   2:  0.000006 (step -0.5000 Ne1=   7192.0000)
            Final RMS occupancy error   :  0.000000 (Ne1=   7192.0000)
               Final occupancy bounds   : [ -0.0000,  1.0000]
================================================================================

    4        -1.160943750795E+04     4.2421E-05     3.8369E-05    -6.8493E-02
MG BCs: +ve charge blocks (gridpoints):     24810 (   16705792).
MG BCs: -ve charge blocks (gridpoints):      8150 (    1034970).
MG BCs:     Elided blocks (gridpoints):    172310 (  173035943).
MG BCs: Computational effort saved:  99.9827%.
MG BCs: Charge after coarse-graining:           -9.0007446.
MG DL_MG: Calling solver with defect correction order = 8
MG DL_MG: Solver finished
MG Hartree energy from (\int phi*rho dr):              1279.153146
MG Hartree energy from (\int eps (grad phi)^2 dr):     1278.490044
MG Discrepancy due to finite box and discretization:     -0.663102 (  -0.05184%)
MG Correction to account for finite box:                  0.475599
MG Remaining discrepancy, due to discretization:         -0.187504 (  -0.01466%)
      ideal mu1:      -0.748121154463
             Q0:  -11609.472796346410
             G0:      -0.085826449955
   RMS gradient:       0.000045029176
MG BCs: +ve charge blocks (gridpoints):     24815 (   16707333).
MG BCs: -ve charge blocks (gridpoints):      8148 (    1034499).
MG BCs:     Elided blocks (gridpoints):    172305 (  173034873).
MG BCs: Computational effort saved:  99.9827%.
MG BCs: Charge after coarse-graining:           -9.0007443.
MG DL_MG: Calling solver with defect correction order = 8
MG DL_MG: Solver finished
MG Hartree energy from (\int phi*rho dr):              1280.112284
MG Hartree energy from (\int eps (grad phi)^2 dr):     1279.449625
MG Discrepancy due to finite box and discretization:     -0.662659 (  -0.05177%)
MG Correction to account for finite box:                  0.475201
MG Remaining discrepancy, due to discretization:         -0.187459 (  -0.01464%)
     Trial step:       0.728036321014
             Q1:  -11609.505743535352
 Quadratic coef:       0.029537583929
 Linear coef   :      -0.062484772871
           Qmin:  -11609.505841930388
Quadratic minimum step length (  0.770055944157) accepted
    Initial Ne1:    7191.99997667
      Final Ne1:    7192.00000000

=================== Penalty functional idempotency correction ==================
 RMS occupancy error at iteration   1:  0.001399 (step -0.4264 Ne1=   7192.0000)
 RMS occupancy error at iteration   2:  0.000033 (step -0.4993 Ne1=   7192.0000)
            Final RMS occupancy error   :  0.000000 (Ne1=   7192.0000)
               Final occupancy bounds   : [ -0.0000,  1.0000]
================================================================================

    5        -1.160947279635E+04     4.5029E-05     4.0728E-05    -3.5288E-02
MG BCs: +ve charge blocks (gridpoints):     24816 (   16707426).
MG BCs: -ve charge blocks (gridpoints):      8147 (    1034460).
MG BCs:     Elided blocks (gridpoints):    172304 (  173034819).
MG BCs: Computational effort saved:  99.9827%.
MG BCs: Charge after coarse-graining:           -9.0007443.
MG DL_MG: Calling solver with defect correction order = 8
MG DL_MG: Solver finished
MG Hartree energy from (\int phi*rho dr):              1280.168331
MG Hartree energy from (\int eps (grad phi)^2 dr):     1279.505691
MG Discrepancy due to finite box and discretization:     -0.662640 (  -0.05176%)
MG Correction to account for finite box:                  0.475184
MG Remaining discrepancy, due to discretization:         -0.187456 (  -0.01464%)
      ideal mu1:      -0.749401884927
             Q0:  -11609.506726316991
             G0:      -0.069447518755
   RMS gradient:       0.000039229353
MG BCs: +ve charge blocks (gridpoints):     24814 (   16707350).
MG BCs: -ve charge blocks (gridpoints):      8149 (    1034612).
MG BCs:     Elided blocks (gridpoints):    172306 (  173034743).
MG BCs: Computational effort saved:  99.9827%.
MG BCs: Charge after coarse-graining:           -9.0007442.
MG DL_MG: Calling solver with defect correction order = 8
MG DL_MG: Solver finished
MG Hartree energy from (\int phi*rho dr):              1279.801603
MG Hartree energy from (\int eps (grad phi)^2 dr):     1279.139326
MG Discrepancy due to finite box and discretization:     -0.662277 (  -0.05175%)
MG Correction to account for finite box:                  0.474785
MG Remaining discrepancy, due to discretization:         -0.187492 (  -0.01465%)
     Trial step:       0.748751425080
             Q1:  -11609.537679026485
 Quadratic coef:       0.021046219143
 Linear coef   :      -0.051998928636
           Qmin:  -11609.538844776856
Quadratic minimum step length (  0.924970695571) accepted
    Initial Ne1:    7192.00045201
      Final Ne1:    7192.00000000

=================== Penalty functional idempotency correction ==================
 RMS occupancy error at iteration   1:  0.002571 (step -0.3807 Ne1=   7192.0000)
 RMS occupancy error at iteration   2:  0.000090 (step -0.4976 Ne1=   7192.0000)
 RMS occupancy error at iteration   3:  0.000001 (step -0.5000 Ne1=   7192.0000)
            Final RMS occupancy error   :  0.000000 (Ne1=   7192.0000)
               Final occupancy bounds   : [  0.0000,  1.0000]
================================================================================

    6        -1.160950672632E+04     3.9229E-05     3.5482E-05    -3.3930E-02
MG BCs: +ve charge blocks (gridpoints):     24814 (   16707356).
MG BCs: -ve charge blocks (gridpoints):      8149 (    1034628).
MG BCs:     Elided blocks (gridpoints):    172306 (  173034721).
MG BCs: Computational effort saved:  99.9827%.
MG BCs: Charge after coarse-graining:           -9.0007442.
MG DL_MG: Calling solver with defect correction order = 8
MG DL_MG: Solver finished
MG Hartree energy from (\int phi*rho dr):              1279.716442
MG Hartree energy from (\int eps (grad phi)^2 dr):     1279.054228
MG Discrepancy due to finite box and discretization:     -0.662214 (  -0.05175%)
MG Correction to account for finite box:                  0.474715
MG Remaining discrepancy, due to discretization:         -0.187499 (  -0.01465%)
      ideal mu1:      -0.749142762361
             Q0:  -11609.541673329077
             G0:      -0.056323796642
   RMS gradient:       0.000036483682
MG BCs: +ve charge blocks (gridpoints):     24809 (   16705982).
MG BCs: -ve charge blocks (gridpoints):      8150 (    1034884).
MG BCs:     Elided blocks (gridpoints):    172311 (  173035839).
MG BCs: Computational effort saved:  99.9827%.
MG BCs: Charge after coarse-graining:           -9.0007445.
MG DL_MG: Calling solver with defect correction order = 8
MG DL_MG: Solver finished
MG Hartree energy from (\int phi*rho dr):              1279.219028
MG Hartree energy from (\int eps (grad phi)^2 dr):     1278.556881
MG Discrepancy due to finite box and discretization:     -0.662147 (  -0.05176%)
MG Correction to account for finite box:                  0.474639
MG Remaining discrepancy, due to discretization:         -0.187508 (  -0.01466%)
     Trial step:       0.832209785130
             Q1:  -11609.559981038561
 Quadratic coef:       0.028565505216
 Linear coef   :      -0.046873214701
           Qmin:  -11609.560901925244
Quadratic minimum step length (  0.682787642649) accepted
    Initial Ne1:    7191.99999995
      Final Ne1:    7192.00000000

=================== Penalty functional idempotency correction ==================
 RMS occupancy error at iteration   1:  0.000049 (step -0.4970 Ne1=   7192.0000)
            Final RMS occupancy error   :  0.000000 (Ne1=   7192.0000)
               Final occupancy bounds   : [ -0.0000,  1.0000]
================================================================================

    7        -1.160954167333E+04     3.6484E-05     3.2999E-05    -3.4947E-02
MG BCs: +ve charge blocks (gridpoints):     24810 (   16706251).
MG BCs: -ve charge blocks (gridpoints):      8150 (    1034813).
MG BCs:     Elided blocks (gridpoints):    172310 (  173035641).
MG BCs: Computational effort saved:  99.9827%.
MG BCs: Charge after coarse-graining:           -9.0007445.
MG DL_MG: Calling solver with defect correction order = 8
MG DL_MG: Solver finished
MG Hartree energy from (\int phi*rho dr):              1279.307711
MG Hartree energy from (\int eps (grad phi)^2 dr):     1278.645550
MG Discrepancy due to finite box and discretization:     -0.662161 (  -0.05176%)
MG Correction to account for finite box:                  0.474654
MG Remaining discrepancy, due to discretization:         -0.187507 (  -0.01466%)
      ideal mu1:      -0.748695417810
             Q0:  -11609.560913195368
             G0:      -0.050358480852
   RMS gradient:       0.000034495673
MG BCs: +ve charge blocks (gridpoints):     24809 (   16706264).
MG BCs: -ve charge blocks (gridpoints):      8150 (    1034747).
MG BCs:     Elided blocks (gridpoints):    172311 (  173035694).
MG BCs: Computational effort saved:  99.9827%.
MG BCs: Charge after coarse-graining:           -9.0007445.
MG DL_MG: Calling solver with defect correction order = 8
MG DL_MG: Solver finished
MG Hartree energy from (\int phi*rho dr):              1279.260311
MG Hartree energy from (\int eps (grad phi)^2 dr):     1278.598385
MG Discrepancy due to finite box and discretization:     -0.661926 (  -0.05174%)
[...]
MG Correction to account for finite box:                  0.006394
MG Remaining discrepancy, due to discretization:         -0.187403 (  -0.01524%)
     Trial step:       0.696186606214
             Q1:  -11646.331985837896
 Quadratic coef:       0.015048447236
 Linear coef   :      -0.030833289081
           Qmin:  -11646.331994846749
Quadratic minimum step length (  0.713220525251) accepted
    Initial Ne1:    7192.00000701
      Final Ne1:    7192.00000000

=================== Penalty functional idempotency correction ==================
 RMS occupancy error at iteration   1:  0.000473 (step -0.4722 Ne1=   7192.0000)
 RMS occupancy error at iteration   2:  0.000009 (step -0.4998 Ne1=   7192.0000)
            Final RMS occupancy error   :  0.000000 (Ne1=   7192.0000)
               Final occupancy bounds   : [  0.0000,  1.0000]
================================================================================

    4        -1.164631620100E+04     3.1457E-05     2.8452E-05    -4.9489E-02

Reusing previously generated solute cavity.
MG BCs: +ve charge blocks (gridpoints):     29099 (   18768705).
MG BCs: -ve charge blocks (gridpoints):      8174 (    1012425).
MG BCs:     Elided blocks (gridpoints):    168021 (  170995575).
MG BCs: Computational effort saved:  99.9805%.
MG BCs: Charge after coarse-graining:           -9.0009856.
MG DL_MG: Calling solver with defect correction order = 8
MG DL_MG: Solver finished
MG Hartree energy from (\int phi*rho dr):              1229.387212
MG Hartree energy from (\int eps (grad phi)^2 dr):     1229.193415
MG Discrepancy due to finite box and discretization:     -0.193796 (  -0.01576%)
MG Correction to account for finite box:                  0.006394
MG Remaining discrepancy, due to discretization:         -0.187402 (  -0.01524%)
      ideal mu1:      -0.513197423844
             Q0:  -11646.332734049880
             G0:      -0.014783639908
   RMS gradient:       0.000018128025

Reusing previously generated solute cavity.
MG BCs: +ve charge blocks (gridpoints):     29101 (   18769278).
MG BCs: -ve charge blocks (gridpoints):      8176 (    1012496).
MG BCs:     Elided blocks (gridpoints):    168019 (  170994931).
MG BCs: Computational effort saved:  99.9805%.
MG BCs: Charge after coarse-graining:           -9.0009855.
MG DL_MG: Calling solver with defect correction order = 8
MG DL_MG: Solver finished
MG Hartree energy from (\int phi*rho dr):              1229.240984
MG Hartree energy from (\int eps (grad phi)^2 dr):     1229.047180
MG Discrepancy due to finite box and discretization:     -0.193804 (  -0.01577%)
MG Correction to account for finite box:                  0.006393
MG Remaining discrepancy, due to discretization:         -0.187411 (  -0.01525%)
     Trial step:       0.704652096397
             Q1:  -11646.337869718438
 Quadratic coef:       0.005281654296
 Linear coef   :      -0.010417322853
           Qmin:  -11646.337870727204
Quadratic minimum step length (  0.694913750178) accepted
    Initial Ne1:    7192.00000711
      Final Ne1:    7192.00000000

=================== Penalty functional idempotency correction ==================
 RMS occupancy error at iteration   1:  0.000227 (step -0.4854 Ne1=   7192.0000)
 RMS occupancy error at iteration   2:  0.000002 (step -0.5000 Ne1=   7192.0000)
            Final RMS occupancy error   :  0.000000 (Ne1=   7192.0000)
               Final occupancy bounds   : [  0.0000,  1.0000]
================================================================================

    5        -1.164633273405E+04     1.8128E-05     1.6396E-05    -1.6533E-02

Reusing previously generated solute cavity.
MG BCs: +ve charge blocks (gridpoints):     29101 (   18769250).
MG BCs: -ve charge blocks (gridpoints):      8176 (    1012490).
MG BCs:     Elided blocks (gridpoints):    168019 (  170994965).
MG BCs: Computational effort saved:  99.9805%.
MG BCs: Charge after coarse-graining:           -9.0009855.
MG DL_MG: Calling solver with defect correction order = 8
MG DL_MG: Solver finished
MG Hartree energy from (\int phi*rho dr):              1229.242894
MG Hartree energy from (\int eps (grad phi)^2 dr):     1229.049090
MG Discrepancy due to finite box and discretization:     -0.193804 (  -0.01577%)
MG Correction to account for finite box:                  0.006393
MG Remaining discrepancy, due to discretization:         -0.187411 (  -0.01525%)
      ideal mu1:      -0.513178264493
             Q0:  -11646.338039216818
             G0:      -0.004806142988
   RMS gradient:       0.000010450544

Reusing previously generated solute cavity.
MG BCs: +ve charge blocks (gridpoints):     29101 (   18769236).
MG BCs: -ve charge blocks (gridpoints):      8176 (    1012564).
MG BCs:     Elided blocks (gridpoints):    168019 (  170994905).
MG BCs: Computational effort saved:  99.9805%.
MG BCs: Charge after coarse-graining:           -9.0009854.
MG DL_MG: Calling solver with defect correction order = 8
MG DL_MG: Solver finished
MG Hartree energy from (\int phi*rho dr):              1229.146650
MG Hartree energy from (\int eps (grad phi)^2 dr):     1228.952846
MG Discrepancy due to finite box and discretization:     -0.193804 (  -0.01577%)
MG Correction to account for finite box:                  0.006393
MG Remaining discrepancy, due to discretization:         -0.187412 (  -0.01525%)
     Trial step:       0.699765982938
             Q1:  -11646.339645659551
 Quadratic coef:       0.001756732639
 Linear coef   :      -0.003363175372
           Qmin:  -11646.339648873907
Quadratic minimum step length (  0.669833208259) accepted
    Initial Ne1:    7192.00000170
      Final Ne1:    7192.00000000

=================== Penalty functional idempotency correction ==================
 RMS occupancy error at iteration   1:  0.000096 (step -0.4934 Ne1=   7192.0000)
 RMS occupancy error at iteration   2:  0.000000 (step -0.5000 Ne1=   7192.0000)
            Final RMS occupancy error   :  0.000000 (Ne1=   7192.0000)
               Final occupancy bounds   : [  0.0000,  1.0000]
================================================================================

    6        -1.164633803922E+04     1.0451E-05     9.4523E-06    -5.3052E-03

Reusing previously generated solute cavity.
MG BCs: +ve charge blocks (gridpoints):     29101 (   18769237).
MG BCs: -ve charge blocks (gridpoints):      8176 (    1012559).
MG BCs:     Elided blocks (gridpoints):    168019 (  170994909).
MG BCs: Computational effort saved:  99.9805%.
MG BCs: Charge after coarse-graining:           -9.0009854.
MG DL_MG: Calling solver with defect correction order = 8
MG DL_MG: Solver finished
MG Hartree energy from (\int phi*rho dr):              1229.150732
MG Hartree energy from (\int eps (grad phi)^2 dr):     1228.956928
MG Discrepancy due to finite box and discretization:     -0.193804 (  -0.01577%)
MG Correction to account for finite box:                  0.006393
MG Remaining discrepancy, due to discretization:         -0.187412 (  -0.01525%)
      ideal mu1:      -0.513135094490
             Q0:  -11646.339677200653
             G0:      -0.001567031205
   RMS gradient:       0.000006085434

Reusing previously generated solute cavity.
MG BCs: +ve charge blocks (gridpoints):     29101 (   18769268).
MG BCs: -ve charge blocks (gridpoints):      8176 (    1012491).
MG BCs:     Elided blocks (gridpoints):    168019 (  170994946).
MG BCs: Computational effort saved:  99.9805%.
MG BCs: Charge after coarse-graining:           -9.0009855.
MG DL_MG: Calling solver with defect correction order = 8
MG DL_MG: Solver finished
MG Hartree energy from (\int phi*rho dr):              1229.221450
MG Hartree energy from (\int eps (grad phi)^2 dr):     1229.027644
MG Discrepancy due to finite box and discretization:     -0.193806 (  -0.01577%)
MG Correction to account for finite box:                  0.006393
MG Remaining discrepancy, due to discretization:         -0.187413 (  -0.01525%)
     Trial step:       0.684636029860
             Q1:  -11646.340044902288
 Quadratic coef:       0.000705144388
 Linear coef   :      -0.001072846023
           Qmin:  -11646.340085272604
Quadratic minimum step length (  0.520821731175) accepted
    Initial Ne1:    7191.99999999
      Final Ne1:    7192.00000000

=================== Penalty functional idempotency correction ==================
 RMS occupancy error at iteration   1:  0.000001 (step -0.5000 Ne1=   7192.0000)
            Final RMS occupancy error   :  0.000000 (Ne1=   7192.0000)
               Final occupancy bounds   : [  0.0000,  1.0000]
================================================================================

    7        -1.164633967720E+04     6.0854E-06     5.5041E-06    -1.6380E-03

Reusing previously generated solute cavity.
MG BCs: +ve charge blocks (gridpoints):     29101 (   18769261).
MG BCs: -ve charge blocks (gridpoints):      8176 (    1012508).
MG BCs:     Elided blocks (gridpoints):    168019 (  170994936).
MG BCs: Computational effort saved:  99.9805%.
MG BCs: Charge after coarse-graining:           -9.0009854.
MG DL_MG: Calling solver with defect correction order = 8
MG DL_MG: Solver finished
MG Hartree energy from (\int phi*rho dr):              1229.204483
MG Hartree energy from (\int eps (grad phi)^2 dr):     1229.010677
MG Discrepancy due to finite box and discretization:     -0.193806 (  -0.01577%)
MG Correction to account for finite box:                  0.006393
MG Remaining discrepancy, due to discretization:         -0.187413 (  -0.01525%)
      ideal mu1:      -0.513138244034
             Q0:  -11646.340084909694
             G0:      -0.000636800138
   RMS gradient:       0.000003873828

Reusing previously generated solute cavity.
MG BCs: +ve charge blocks (gridpoints):     29101 (   18769114).
MG BCs: -ve charge blocks (gridpoints):      8176 (    1012493).
MG BCs:     Elided blocks (gridpoints):    168019 (  170995098).
MG BCs: Computational effort saved:  99.9805%.
MG BCs: Charge after coarse-graining:           -9.0009855.
MG DL_MG: Calling solver with defect correction order = 8
MG DL_MG: Solver finished
MG Hartree energy from (\int phi*rho dr):              1229.220926
MG Hartree energy from (\int eps (grad phi)^2 dr):     1229.027122
MG Discrepancy due to finite box and discretization:     -0.193804 (  -0.01577%)
MG Correction to account for finite box:                  0.006393
MG Remaining discrepancy, due to discretization:         -0.187412 (  -0.01525%)
     Trial step:       0.597137607504
             Q1:  -11646.340339658433
 Quadratic coef:       0.000125508572
 Linear coef   :      -0.000380257311
           Qmin:  -11646.340372929111
Quadratic minimum step length (  0.904583398554) accepted
    Initial Ne1:    7191.99999994
      Final Ne1:    7192.00000000

=================== Penalty functional idempotency correction ==================
 RMS occupancy error at iteration   1:  0.000003 (step -0.5000 Ne1=   7192.0000)
            Final RMS occupancy error   :  0.000000 (Ne1=   7192.0000)
               Final occupancy bounds   : [  0.0000,  1.0000]
================================================================================

    8        -1.164634008491E+04     3.8738E-06     3.5038E-06    -4.0771E-04

Reusing previously generated solute cavity.
MG BCs: +ve charge blocks (gridpoints):     29100 (   18769016).
MG BCs: -ve charge blocks (gridpoints):      8176 (    1012503).
MG BCs:     Elided blocks (gridpoints):    168020 (  170995186).
MG BCs: Computational effort saved:  99.9805%.
MG BCs: Charge after coarse-graining:           -9.0009855.
MG DL_MG: Calling solver with defect correction order = 8
MG DL_MG: Solver finished
MG Hartree energy from (\int phi*rho dr):              1229.229409
MG Hartree energy from (\int eps (grad phi)^2 dr):     1229.035605
MG Discrepancy due to finite box and discretization:     -0.193804 (  -0.01577%)
MG Correction to account for finite box:                  0.006393
MG Remaining discrepancy, due to discretization:         -0.187411 (  -0.01525%)
      ideal mu1:      -0.513154470991
             Q0:  -11646.340373143670
             G0:      -0.000361217951
   RMS gradient:       0.000002918624

Reusing previously generated solute cavity.
MG BCs: +ve charge blocks (gridpoints):     29100 (   18768878).
MG BCs: -ve charge blocks (gridpoints):      8176 (    1012551).
MG BCs:     Elided blocks (gridpoints):    168020 (  170995276).
MG BCs: Computational effort saved:  99.9805%.
MG BCs: Charge after coarse-graining:           -9.0009856.
MG DL_MG: Calling solver with defect correction order = 8
MG DL_MG: Solver finished
MG Hartree energy from (\int phi*rho dr):              1229.186648
MG Hartree energy from (\int eps (grad phi)^2 dr):     1228.992840
MG Discrepancy due to finite box and discretization:     -0.193807 (  -0.01577%)
MG Correction to account for finite box:                  0.006393
MG Remaining discrepancy, due to discretization:         -0.187414 (  -0.01525%)
     Trial step:       0.734956302375
             Q1:  -11646.340515516582
 Quadratic coef:       0.000123106498
 Linear coef   :      -0.000265479410
           Qmin:  -11646.340516270389
Quadratic minimum step length (  0.792467369494) accepted
    Initial Ne1:    7191.99999835
      Final Ne1:    7192.00000000

=================== Penalty functional idempotency correction ==================
 RMS occupancy error at iteration   1:  0.000005 (step -0.5000 Ne1=   7192.0000)
            Final RMS occupancy error   :  0.000000 (Ne1=   7192.0000)
               Final occupancy bounds   : [  0.0000,  1.0000]
================================================================================

    9        -1.164634037314E+04     2.9186E-06     2.6398E-06    -2.8823E-04

Reusing previously generated solute cavity.
MG BCs: +ve charge blocks (gridpoints):     29100 (   18768869).
MG BCs: -ve charge blocks (gridpoints):      8176 (    1012555).
MG BCs:     Elided blocks (gridpoints):    168020 (  170995281).
MG BCs: Computational effort saved:  99.9805%.
MG BCs: Charge after coarse-graining:           -9.0009856.
MG DL_MG: Calling solver with defect correction order = 8
MG DL_MG: Solver finished
MG Hartree energy from (\int phi*rho dr):              1229.183302
MG Hartree energy from (\int eps (grad phi)^2 dr):     1228.989495
MG Discrepancy due to finite box and discretization:     -0.193808 (  -0.01577%)
MG Correction to account for finite box:                  0.006393
MG Remaining discrepancy, due to discretization:         -0.187415 (  -0.01525%)
      ideal mu1:      -0.513123896445
   10        -1.164634051632E+04     1.9454E-06     1.7596E-06    -1.4318E-04
Finished density kernel iterations (  10)

Writing density kernel to file "host_28601.dkn" ... done


>>> Density kernel optimised for the current NGWF basis:
     ~~~~~~~~~~~~~~~~~~~~~~~~~~~~~~~~~~~~~~~~~~~~~~~~~~~~~~~~~~~
     Total energy                =  -1.16463405163215E+04  Eh
     Estimated bandgap           =   1.0590E-01  Eh
     RMS occupancy error         =   3.4036E-09
     [H,K] commutator            =   1.7596E-06
     Occupancy bounds            = [  0.000:  1.000]
     ~~~~~~~~~~~~~~~~~~~~~~~~~~~~~~~~~~~~~~~~~~~~~~~~~~~~~~~~~~~




################################################################################
########################### NGWF CG iteration  001 #############################
################################################################################
****** Reciprocal space K.E. preconditioning with k_zero =  3.5000 a0^-1 *******

>>> Checking for convergence of NGWFs:   NOT CONVERGED
  ========================================================================
         NGWF RMS gradient =  4.0124E-05 >  2.0000E-06  | above tolerance
  ========================================================================

>>> Improving NGWFs using line search:
============ Calculation of NGWF S^-1 using Hotelling algorithm ================ 
         Iteration  |  Frobenius norm and Maximum abs value    (of I-S*S_n^-1)   
               1       0.12627513E+00     0.19018237E-02
               2       0.36545515E-03     0.12095371E-04
               3       0.56018741E-08     0.28328961E-09
               4       0.13566499E-12     0.87707619E-14
================================================================================

Reusing previously generated solute cavity.
MG BCs: +ve charge blocks (gridpoints):     29114 (   18793197).
MG BCs: -ve charge blocks (gridpoints):      8176 (    1012477).
MG BCs:     Elided blocks (gridpoints):    168006 (  170971031).
MG BCs: Computational effort saved:  99.9805%.
MG BCs: Charge after coarse-graining:           -9.0009808.
MG DL_MG: Calling solver with defect correction order = 8
MG DL_MG: Solver finished
MG Hartree energy from (\int phi*rho dr):              1229.523943
MG Hartree energy from (\int eps (grad phi)^2 dr):     1229.330224
MG Discrepancy due to finite box and discretization:     -0.193719 (  -0.01576%)
MG Correction to account for finite box:                  0.006394
MG Remaining discrepancy, due to discretization:         -0.187325 (  -0.01524%)
============ Calculation of NGWF S^-1 using Hotelling algorithm ================ 
         Iteration  |  Frobenius norm and Maximum abs value    (of I-S*S_n^-1)   
               1       0.42504208E+00     0.63596787E-02
               2       0.41163656E-02     0.13197723E-03
               3       0.68739738E-06     0.32812061E-07
               4       0.15530538E-12     0.67723605E-14
================================================================================
------------------------------- NGWF line search -------------------------------
RMS gradient                =       0.00004012417733
Trial step length           =               0.122474
Gradient along search dir.  =         -0.17136025253
Functional at step 0        =  -11646.34051632147748
Functional at step 1        =  -11646.35908351407852
Functional predicted        =  -11646.38601765920430
Selected quadratic step     =               0.531061
--------------------------- NGWF line search finished --------------------------
                                               
Writing NGWFs to file "host_28601.tightbox_ngwfs"....  done

>>> Optimising kernel for current NGWFs:
   Initial electron number for spin 1:    7193.53577743
     Final electron number for spin 1:    7192.00000000

=================== Penalty functional idempotency correction ==================
 RMS occupancy error at iteration   1:  0.000749 (step -0.4995 Ne1=   7192.0000)
 RMS occupancy error at iteration   2:  0.000003 (step -0.5000 Ne1=   7192.0000)
            Final RMS occupancy error   :  0.000000 (Ne1=   7192.0000)
               Final occupancy bounds   : [  0.0000,  1.0000]
================================================================================

................................................................................
<<<<<<<<<<<<<< LNV (Original version) density kernel optimisation >>>>>>>>>>>>>>
~~~~~~~~~~~~~~~~~~~~~~~~~~~~~~~~~~~~~~~~~~~~~~~~~~~~~~~~~~~~~~~~~~~~~~~~~~~~~~~~
   iter  |      energy (Eh)       | rms gradient |  commutator  |   dE (Eh)

Reusing previously generated solute cavity.
MG BCs: +ve charge blocks (gridpoints):     29157 (   18868297).
MG BCs: -ve charge blocks (gridpoints):      8176 (    1012346).
MG BCs:     Elided blocks (gridpoints):    167963 (  170896062).
MG BCs: Computational effort saved:  99.9804%.
MG BCs: Charge after coarse-graining:           -9.0009667.
MG DL_MG: Calling solver with defect correction order = 8
MG DL_MG: Solver finished
MG Hartree energy from (\int phi*rho dr):              1230.677798
MG Hartree energy from (\int eps (grad phi)^2 dr):     1230.484373
MG Discrepancy due to finite box and discretization:     -0.193425 (  -0.01572%)
MG Correction to account for finite box:                  0.006398
MG Remaining discrepancy, due to discretization:         -0.187027 (  -0.01520%)
