 +---------------------------------------------------------------+
 |                                                               |
 |        ####### #     # ####### ####### ####### ######         |
 |        #     # ##    # #          #    #       #     #        |
 |        #     # # #   # #          #    #       #     #        |
 |        #     # #  #  # #####      #    #####   ######         |
 |        #     # #   # # #          #    #       #              |
 |        #     # #    ## #          #    #       #              |
 |        ####### #     # #######    #    ####### #              |
 |                                                               |
 |        Linear-Scaling Ab Initio Total Energy Program          |
 |                                                               |
 |          Release for academic collaborators of ODG            |
 |                                             Version 5.3.2.6.  |
 |                                                               |
 +---------------------------------------------------------------+
 |                                                               |
 |  Authors:                                                     |
 |  Jacek Dziedzic, Peter D. Haynes, Nicholas D. M. Hine,        |
 |  Arash. A. Mostofi, Mike C. Payne and Chris-Kriton Skylaris   |
 |                                                               |
 |  Contributors:                                                |
 |  J. Aarons, L. Andrinopoulos, P. W. Avraam, R. A. Bell,       |
 |  A. Bhandari, G. A. Bramley, R. J. Charlton, S. J. Clark,     |
 |  R. J. Clements, G. C. Constantinescu, F. Corsetti,           |
 |  N. Corsini, O. Dieguez, S. M. M. Dubois, K. K. B. Duff,      |
 |  J. M. Escartin, A. Greco, H. Helal, Q. O. Hill, L. P. Lee,   |
 |  J.-H. Li, E. B. Linscott, G. Moynihan, D. D. O`Regan,        |
 |  O. K. Okan, M. J. S. Phipps, C. J. Pickard,                  |
 |  J. C. A. Prentice, M. I. J. Probert, L. E. Ratcliff,         |
 |  M. Robinson, A. Ruiz Serrano, J. S. Spencer, E. W. Tait,     |
 |  G. Teobaldi, D. Turban, V. Vitale, K. A. Wilkinson,          |
 |  C. Weber, J. C. Womack, N. Yeung and T. J. Zuehlsdorff       |
 |                                                               |
 |                                   Copyright (c) 2004-2019     |
 |                                                               |
 |  Please cite:                                                 |
 |  "Introducing ONETEP: Linear-scaling density functional       |
 |   simulations on parallel computers".                         |
 |   C.-K. Skylaris, P. D. Haynes, A. A. Mostofi, M. C. Payne.   |
 |   J. Chem. Phys. 122 084119 (2005).                           |
 |                                                               |
 |          in all publications arising from your use of ONETEP. |
 |                                                               |
 +---------------------------------------------------------------+
 |                                                               |
 |   ONETEP is based on developments described in the following  |
 |   publications:                                               |
 |                                                               |
 |  "Nonorthogonal generalized Wannier function pseudopotential  |
 |   plane-wave method".                                         |
 |   C.-K. Skylaris, A. A. Mostofi, P. D. Haynes, O. Dieguez,    |
 |   M. C. Payne.                                                |
 |   Phys. Rev. B 66 035119 (2002).                              |
 |                                                               |
 |  "Preconditioned iterative minimization for linear-scaling    |
 |   electronic structure calculations".                         |
 |   A. A. Mostofi, P. D. Haynes, C.-K. Skylaris, M. C. Payne.   |
 |   J. Chem. Phys. 119(17), pp.8842-8848 (2003).                |
 |                                                               |
 |  "Total-energy calculations on a real space grid with         |
 |   localized functions and a plane-wave basis".                |
 |   A. A. Mostofi, C.-K. Skylaris, P. D. Haynes, M. C. Payne.   |
 |   Comput. Phys. Commun. 147, pp.788-802 (2002).               |
 |                                                               |
 |  "Accurate kinetic energy evaluation in electronic structure  |
 |   calculations with localized functions on real space grids"  |
 |   C.-K. Skylaris, A. A. Mostofi, P. D. Haynes, C. J. Pickard, |
 |   M. C. Payne.                                                |
 |   Comput. Phys. Commun. 140, pp.315-322 (2001).               |
 |                                                               |
 |  "Accurate ionic forces and geometry optimization in linear-  |
 |   scaling density-functional theory with local orbitals"      |
 |   N. D. M. Hine, M. Robinson, P. D. Haynes, C.-K. Skylaris,   |
 |   M. C. Payne, and A. A. Mostofi.                             |
 |   Phys. Rev. B 83 195102 (2011).                              |
 |                                                               |
 +---------------------------------------------------------------+

Job started: 08-01-2020 11:48 (-0000)
 
Reading parameters from file "complex_32401.dat" ...... done

If your calculation crashes here, before "Checking processes and threads..."
is displayed, then your stack size is insufficient.
If so, use "ulimit -s unlimited" at runtime.
You can disable this check with "check_stack_size F".

Checking processes and threads...
   Determining the default number of threads...
      No default threads set at compilation time: defaulting to 1.
      OpenMP library call suggests 4 threads.
      Hybrid MPI-OpenMP compilation detected.
      Number of MPI processes > 1.
      OMP_NUM_THREADS environment variable present and
      its value matches the one obtained from the OpenMP library call.
      Using this value as default.
      Default threads: 4
      Default applies to threads_max and threads_num_fftboxes.
      Settings in the input file override this default.
   ... done

   Running with 30 MPI processes.
   There are 4 MPI processes running on the same node as the root process.
   Each MPI process is using: 
               1 threads for simulation cell FFTs.
               1 threads for parallel FFT box operations.
               4 threads for loops over batched FFT box operations.
               4 threads in other parallel regions.
... done

Basic input checks...... done

Reading geometry and species blocks from file "complex_32401.dat" ...
  <species_atomic_set> block not found: NGWF initialisation set to SOLVE
IS: Dielectric excluded regions:
    - NONE.
    
  Number of PPD points along a3 set to 1.  This is 
  the default value, it may have been provided also in the input file.
... done
 Writing xyz coordinates to file "complex_32401.xyz" ... done


--------------------------------------------------------------------------------
---------------------------------- INPUT FILE ----------------------------------
--------------------------------------------------------------------------------

cutoff_energy       : 800 eV                                                    
xc_functional PBE                                                               
task SINGLEPOINT                                                                
write_xyz true                                                                  
output_detail VERBOSE                                                           
ngwf_threshold_orig : 0.000002                                                  
kernel_cutoff       : 1000                                                      
k_zero              : 3.5                                                       
elec_cg_max 0                                                                   
occ_mix 1.0                                                                     
dispersion 1                                                                    
maxit_ngwf_cg 40                                                                
minit_lnv 10                                                                    
maxit_lnv 10                                                                    
write_denskern T                                                                
write_tightbox_ngwfs T                                                          
charge 9                                                                        
is_implicit_solvent T                                                           
is_auto_solvation T                                                             
is_include_apolar T                                                             
is_smeared_ion_rep T                                                            
is_solvent_surf_tension 4.7624E-5 Ha/bohr**2                                    
is_apolar_scaling_factor 0.281075                                               
is_solvation_beta 1.3                                                           
is_density_threshold 0.00035                                                    
is_bulk_permittivity 78.54                                                      
is_dielectric_model fix_initial                                                 
is_smeared_ion_width 0.8                                                        
mg_defco_fd_order 8                                                             
is_bc_coarseness 10                                                             
is_bc_surface_coarseness 1                                                      
fine_grid_scale 2.0                                                             
%block species                                                                  
N   N   7 4 8.0                                                                 
H   H   1 1 8.0                                                                 
C   C   6 4 8.0                                                                 
S   S  16 9 8.0                                                                 
O   O   8 4 8.0                                                                 
F   F   9 9 8.0                                                                 
%endblock species                                                               
%block species_pot                                                              
N   N_00.recpot                                                                 
H   H_04.recpot                                                                 
C   C_01.recpot                                                                 
S   S_00.recpot                                                                 
O   O_02.recpot                                                                 
F   F_00.recpot                                                                 
%endblock species_pot                                                           
%block lattice_cart                                                             
139.898   0.000   0.000                                                         
0.000 144.87   0.000                                                            
0.000   0.000   168.12                                                          
%endblock lattice_cart                                                          
%block positions_abs                                                            
     Hash =   000002383204367361432237
%endblock positions_abs                                                         

--------------------------------------------------------------------------------
-------------------------------- END INPUT FILE --------------------------------
--------------------------------------------------------------------------------


 
 ESDF WARNING(1): "kernelcutoff" (esdf_physical) has no units. Assume "bohr".
 ESDF WARNING(2): "kzero" (esdf_physical) has no units. Assume "1/bohr".
 ESDF WARNING(3
 ): "issmearedionwidth" (esdf_physical) has no units. Assume "bohr".
<<<<<<<<<<<<<<<<<<<<<<<<<<<<<<<<< Full system >>>>>>>>>>>>>>>>>>>>>>>>>>>>>>>>>>
WARNING in pseudopotentials_read_species: string "LDA" found in pseudopotential
file "F_00.recpot", yet xc_functional = "PBE".
 
<<<<<<<<<<<<<<<<<<<<<<<<< Pseudopotential information >>>>>>>>>>>>>>>>>>>>>>>>>>
File: N_00.recpot [ 2001 points up to Gmax=  52.9 (1/bohr)]
  Atomic number:  7;  ionic charge:  5.000000
    Shell 1: l = 0; rc = 1.48 bohr
File: H_04.recpot [ 2001 points up to Gmax=  52.9 (1/bohr)]
  Atomic number:  1;  ionic charge:  1.000000
    Local potential
File: C_01.recpot [ 2001 points up to Gmax=  52.9 (1/bohr)]
  Atomic number:  6;  ionic charge:  4.000000
    Shell 1: l = 0; rc = 1.48 bohr
File: S_00.recpot [ 2001 points up to Gmax=  52.9 (1/bohr)]
  Atomic number: 16;  ionic charge:  6.000000
    Shell 1: l = 0; rc = 1.90 bohr
    Shell 2: l = 2; rc = 1.84 bohr
File: O_02.recpot [ 2001 points up to Gmax=  52.9 (1/bohr)]
  Atomic number:  8;  ionic charge:  6.000000
    Shell 1: l = 0; rc = 1.31 bohr
File: F_00.recpot [ 2001 points up to Gmax=  52.9 (1/bohr)]
  Atomic number:  9;  ionic charge:  7.000000
    Shell 1: l = 0; rc = 1.60 bohr
<<<<<<<<<<<<<<<<<<<<<<<<<<<<<<<<<<<<<<<<>>>>>>>>>>>>>>>>>>>>>>>>>>>>>>>>>>>>>>>>

-------------------------- Atom counting information ---------------------------
Symbol    Natoms    Nngwfs    Nprojs
  N        237       948       237
  H       1317      1317         0
  C        816      3264       816
  S          6        54        36
  O        239       956       239
  F          1         9         1
.......   ......    ......    ......
Totals:   2616      6548      1329
--------------------------------------------------------------------------------

=============================== PSINC grid sizes ===============================
                      Simulation cell:  275 x 286 x 336
                              FFT-box:   99 x  99 x  99
                                  PPD:    5 x  11 x   1
Grid space d1=  0.508720000000a0 (KE cutoff=  29.35259Eh = 798.72452eV)
Grid space d2=  0.506538461538a0 (KE cutoff=  29.60596Eh = 805.61916eV)
Grid space d3=  0.500357142857a0 (KE cutoff=  30.34197Eh = 825.64705eV)
================================================================================

********************* Fourier parallelisation information **********************
       Coarse grid (whole simulation cell) dimensions:    275   286   336
          Real-space ('12') slabs/node (min max mean):     11    12    11
         Recip-space ('23') slabs/node (min max mean):      4     5     4
********************************************************************************

********************* Fourier parallelisation information **********************
       Double grid (whole simulation cell) dimensions:    550   572   672
          Real-space ('12') slabs/node (min max mean):     22    23    22
         Recip-space ('23') slabs/node (min max mean):      9    10     9
********************************************************************************
ONETEP fine grid is 550 x 572 x 672 gridpoints, 139.8980 x 144.8700 x 168.1200 bohr.
FD multigrid is     545 x 569 x 665 gridpoints, 138.6262 x 144.1102 x 166.3688 bohr.


Calculating local pseudopotential in open BC on a radial grid ...
Discrepancy between calculated realspace psloc and -Z/x on [5a0,262.342a0]:
max |rel. diff| # avg |rel. diff| #  avg rel. diff #  f # pseudopotential file
 0.000258413739    0.000003708905   0.000000070960   56  'N_00.recpot'
 0.000398954828    0.000016185045  -0.000000074508   56  'H_04.recpot'
 0.000375346405    0.000017198923   0.000000144535   56  'C_01.recpot'
 0.000466850533    0.000020125278   0.000000461745   56  'S_00.recpot'
 0.000671508953    0.000026045986   0.000000155458   56  'O_02.recpot'
 0.002873965647    0.000134299806   0.000000884984   56  'F_00.recpot'
... done

Atom SCF Calculation for N  : Z (AE atom) =   7 : Z (PS atom) =   5
Config String:
Orbitals (num,occ):  2     2.00 3.00
Orbitals   (num,l):  2        0    1
Real-space Grid (nr,dr,rmax): 1203    0.0066555740    8.0000000000
Spherical Bessel Basis (nsws,lmax,cutoff):   47    1  176.3951722778
Confining potential (l,width,scale):  0    3.0000000000  100.0000000000
Confining potential (l,width,scale):  1    3.0000000000  100.0000000000
  1         -4.7312375307   -3.4155304497    7.0523828109   -1.9351020946
  2         -9.7309464766   -2.0532547791    8.2966052865   -2.2494486027
  3         -9.6627394379   -2.1124926340    8.2327997121   -2.2369778124
  4         -9.6814993499   -2.1215521045    8.2229805960   -2.2365178421
  5         -9.6843326483   -2.1250939529    8.2191374534   -2.2362718126
  6         -9.6859628709   -2.1267894855    8.2172963573   -2.2362066344
  7         -9.6867347035   -2.1276425665    8.2163697352   -2.2361903369
  8         -9.6870802100   -2.1280764625    8.2158983890   -2.2361891460
  9         -9.6872290423   -2.1282977424    8.2156580222   -2.2361920435
 10         -9.6872901988   -2.1284107021    8.2155353368   -2.2361953393
 11         -9.6873135296   -2.1284684031    8.2154726809   -2.2361979819
 12         -9.6873212476   -2.1284978948    8.2154406648   -2.2361998431
 13         -9.6873229586   -2.1285129774    8.2154242957   -2.2362010676
 14         -9.6873226456   -2.1285206957    8.2154159216   -2.2362018403
 15         -9.6873218534   -2.1285246479    8.2154116349   -2.2362023142
 16         -9.6873212599   -2.1285262679    8.2154098784   -2.2362025420
 17         -9.6873207834   -2.1285272564    8.2154088068   -2.2362026955
 18         -9.6873204210   -2.1285278597    8.2154081529   -2.2362027982
 19         -9.6873201550   -2.1285282280    8.2154077538   -2.2362028667
 20         -9.6873199645   -2.1285284529    8.2154075102   -2.2362029121
 21         -9.6873198305   -2.1285285903    8.2154073614   -2.2362029421
 22         -9.6873197377   -2.1285286742    8.2154072705   -2.2362029618
Atom SCF converged after  22 iterations to a total energy of     -9.68731974

Atom SCF Calculation for H  : Z (AE atom) =   1 : Z (PS atom) =   1
Config String:
Orbitals (num,occ):  1     1.00
Orbitals   (num,l):  1        0
Real-space Grid (nr,dr,rmax): 1203    0.0066555740    8.0000000000
Spherical Bessel Basis (nsws,lmax,cutoff):   47    0  176.3951722778
Confining potential (l,width,scale):  0    3.0000000000  100.0000000000
  1         -0.3194257691   -0.2393854593    0.2820953124   -0.2424203209
  2         -0.3951823392   -0.2377116493    0.2886404059   -0.2475147891
  3         -0.4317044583   -0.2352244387    0.2921333887   -0.2514046172
  4         -0.4470703708   -0.2341892222    0.2934391879   -0.2531009782
  5         -0.4532132900   -0.2338556667    0.2938388426   -0.2537313520
  6         -0.4556579251   -0.2337612552    0.2939448584   -0.2539550462
  7         -0.4566418315   -0.2337377355    0.2939680120   -0.2540342273
  8         -0.4570437922   -0.2337331116    0.2939708287   -0.2540627372
  9         -0.4572102946   -0.2337328328    0.2939698291   -0.2540732650
 10         -0.4572800424   -0.2337332404    0.2939687193   -0.2540772588
 11         -0.4573095100   -0.2337335791    0.2939680317   -0.2540788122
 12         -0.4573220379   -0.2337337762    0.2939676699   -0.2540794294
 13         -0.4573273880   -0.2337338775    0.2939674931   -0.2540796787
 14         -0.4573296803   -0.2337339266    0.2939674099   -0.2540797808
 15         -0.4573306647   -0.2337339495    0.2939673718   -0.2540798230
 16         -0.4573310882   -0.2337339601    0.2939673545   -0.2540798406
 17         -0.4573312706   -0.2337339649    0.2939673467   -0.2540798479
 18         -0.4573313493   -0.2337339670    0.2939673433   -0.2540798510
Atom SCF converged after  18 iterations to a total energy of     -0.45733135

Atom SCF Calculation for C  : Z (AE atom) =   6 : Z (PS atom) =   4
Config String:
Orbitals (num,occ):  2     2.00 2.00
Orbitals   (num,l):  2        0    1
Real-space Grid (nr,dr,rmax): 1203    0.0066555740    8.0000000000
Spherical Bessel Basis (nsws,lmax,cutoff):   47    1  176.3951722778
Confining potential (l,width,scale):  0    3.0000000000  100.0000000000
Confining potential (l,width,scale):  1    3.0000000000  100.0000000000
  1         -5.2976922011   -1.3069684169    4.5135249990   -1.4493313817
  2         -5.3721716256   -1.3429755895    4.4750154450   -1.4361613026
  3         -5.3809959565   -1.3617365618    4.4541655428   -1.4305930207
  4         -5.3918938866   -1.3667928461    4.4484735100   -1.4294652294
  5         -5.3956096428   -1.3688539142    4.4461376126   -1.4290734646
  6         -5.3968271862   -1.3696852393    4.4451910874   -1.4289366866
  7         -5.3972028401   -1.3700178062    4.4448112275   -1.4288900460
  8         -5.3973067903   -1.3701500158    4.4446598370   -1.4288749220
  9         -5.3973286940   -1.3702023868    4.4445997329   -1.4288704293
 10         -5.3973289850   -1.3702230869    4.4445759233   -1.4288693188
 11         -5.3973254264   -1.3702312560    4.4445665049   -1.4288691775
 12         -5.3973224003   -1.3702344755    4.4445627836   -1.4288692549
 13         -5.3973208708   -1.3702354890    4.4445616088   -1.4288693270
 14         -5.3973198783   -1.3702360102    4.4445610034   -1.4288693814
 15         -5.3973192535   -1.3702362780    4.4445606917   -1.4288694190
 16         -5.3973188684   -1.3702364155    4.4445605313   -1.4288694437
 17         -5.3973186349   -1.3702364860    4.4445604489   -1.4288694595
 18         -5.3973184951   -1.3702365221    4.4445604065   -1.4288694693
 19         -5.3973184122   -1.3702365405    4.4445603848   -1.4288694753
Atom SCF converged after  19 iterations to a total energy of     -5.39731841

Atom SCF Calculation for S  : Z (AE atom) =  16 : Z (PS atom) =   6
Config String:
Orbitals (num,occ):  3     2.00 4.00 0.00
Orbitals   (num,l):  3        0    1    2
Real-space Grid (nr,dr,rmax): 1203    0.0066555740    8.0000000000
Spherical Bessel Basis (nsws,lmax,cutoff):   47    2  176.3951722778
Confining potential (l,width,scale):  0    3.0000000000  100.0000000000
Confining potential (l,width,scale):  1    3.0000000000  100.0000000000
Confining potential (l,width,scale):  2    3.0000000000  100.0000000000
  1        -12.4735062396   -1.0328741412   10.1554312477   -2.4512393157
  2         -9.9458301913   -2.4607392455    8.3041325857   -2.0306994528
  3        -10.1450417646   -2.2931184565    8.4831893826   -2.0812538287
  4        -10.1528335592   -2.2733105793    8.5050388867   -2.0896035179
  5        -10.1571940363   -2.2633716629    8.5160794258   -2.0939370707
  6        -10.1594380571   -2.2584938667    8.5215163935   -2.0961289008
  7        -10.1605856507   -2.2561081821    8.5241804044   -2.0972291378
  8        -10.1611799191   -2.2549395235    8.5254868240   -2.0977806248
  9        -10.1614918752   -2.2543658586    8.5261285885   -2.0980571586
 10        -10.1616572884   -2.2540839121    8.5264441898   -2.0981959233
 11        -10.1617455602   -2.2539453058    8.5265994231   -2.0982656006
 12        -10.1617928447   -2.2538772062    8.5266757320   -2.0983006047
 13        -10.1618182292   -2.2538437891    8.5267131983   -2.0983181961
 14        -10.1618318741   -2.2538274201    8.5267315620   -2.0983270391
 15        -10.1618392144   -2.2538194197    8.5267405433   -2.0983314852
 16        -10.1618431651   -2.2538155200    8.5267449245   -2.0983337210
 17        -10.1618452923   -2.2538136252    8.5267470551   -2.0983348455
 18        -10.1618464380   -2.2538127080    8.5267480875   -2.0983354110
 19        -10.1618470552   -2.2538122659    8.5267485856   -2.0983356955
 20        -10.1618473878   -2.2538120540    8.5267488248   -2.0983358386
 21        -10.1618475670   -2.2538119530    8.5267489389   -2.0983359106
 22        -10.1618476637   -2.2538119053    8.5267489929   -2.0983359468
Atom SCF converged after  22 iterations to a total energy of    -10.16184766

Atom SCF Calculation for O  : Z (AE atom) =   8 : Z (PS atom) =   6
Config String:
Orbitals (num,occ):  2     2.00 4.00
Orbitals   (num,l):  2        0    1
Real-space Grid (nr,dr,rmax): 1203    0.0066555740    8.0000000000
Spherical Bessel Basis (nsws,lmax,cutoff):   47    1  176.3951722778
Confining potential (l,width,scale):  0    3.0000000000  100.0000000000
Confining potential (l,width,scale):  1    3.0000000000  100.0000000000
  1         -1.8735052164   -7.5539365035   10.1554312477   -2.4512393157
  2        -16.0318313751   -3.1285771268   13.6395848164   -3.2358799643
  3        -15.9524020423   -3.0762819706   13.6967272503   -3.2536856837
  4        -15.8521515939   -3.0781493909   13.6951909330   -3.2561700440
  5        -15.8357139793   -3.0748501933   13.6988803334   -3.2580493133
  6        -15.8246052853   -3.0740779781   13.6997881576   -3.2588327446
  7        -15.8189019501   -3.0737449687   13.7001869911   -3.2592378801
  8        -15.8159785510   -3.0736026016   13.7003615168   -3.2594475790
  9        -15.8144776168   -3.0735437994   13.7004360379   -3.2595560735
 10        -15.8137058024   -3.0735207882   13.7004667348   -3.2596122456
 11        -15.8133083127   -3.0735125946   13.7004786868   -3.2596413656
 12        -15.8131032938   -3.0735102195   13.7004828997   -3.2596564858
 13        -15.8129973902   -3.0735099286   13.7004840891   -3.2596643505
 14        -15.8129426040   -3.0735102506   13.7004842061   -3.2596684489
 15        -15.8129142203   -3.0735106556   13.7004840157   -3.2596705887
 16        -15.8128994940   -3.0735109855   13.7004837906   -3.2596717080
 17        -15.8128918425   -3.0735112169   13.7004836103   -3.2596722946
 18        -15.8128878614   -3.0735113674   13.7004834848   -3.2596726026
 19        -15.8128857871   -3.0735114608   13.7004834035   -3.2596727646
 20        -15.8128847048   -3.0735115170   13.7004833533   -3.2596728500
 21        -15.8128841394   -3.0735115501   13.7004833231   -3.2596728951
 22        -15.8128838436   -3.0735115693   13.7004833054   -3.2596729190
 23        -15.8128836887   -3.0735115802   13.7004832951   -3.2596729316
 24        -15.8128836074   -3.0735115864   13.7004832893   -3.2596729383
Atom SCF converged after  24 iterations to a total energy of    -15.81288361

Atom SCF Calculation for F  : Z (AE atom) =   9 : Z (PS atom) =   7
Config String:
Orbitals (num,occ):  5     2.00 5.00 0.00 0.00 0.00
Orbitals   (num,l):  5        0    1    0    1    2
Real-space Grid (nr,dr,rmax): 1203    0.0066555740    8.0000000000
Spherical Bessel Basis (nsws,lmax,cutoff):   47    2  176.3951722778
Confining potential (l,width,scale):  0    3.0000000000  100.0000000000
Confining potential (l,width,scale):  1    3.0000000000  100.0000000000
Confining potential (l,width,scale):  2    3.0000000000  100.0000000000
  1          2.7613408675  -14.5815130354   13.8226703094   -2.9941905181
  2        -23.6468980113   -4.9263326541   20.5563421412   -4.3754293297
  3        -24.5333043594   -4.3845963970   21.1176052958   -4.4841731563
  4        -24.3589864791   -4.3106783109   21.1950887716   -4.4997202795
  5        -24.2648391338   -4.2783243831   21.2295118026   -4.5072738146
  6        -24.2274338603   -4.2663478973   21.2423649225   -4.5102591768
  7        -24.2052315491   -4.2595041622   21.2497430410   -4.5120310941
  8        -24.1920610535   -4.2555995140   21.2539669715   -4.5130761189
  9        -24.1842594614   -4.2533726648   21.2563826077   -4.5136908004
 10        -24.1796430262   -4.2521035456   21.2577627107   -4.5140519045
 11        -24.1769128010   -4.2513811698   21.2585501121   -4.5142639028
 12        -24.1752983031   -4.2509707627   21.2589985394   -4.5143883165
 13        -24.1743434247   -4.2507381589   21.2592533437   -4.5144613128
 14        -24.1737784708   -4.2506067164   21.2593977374   -4.5145041342
 15        -24.1734440540   -4.2505326993   21.2594793047   -4.5145292513
 16        -24.1732459871   -4.2504911905   21.2595252124   -4.5145439823
 17        -24.1731286021   -4.2504680245   21.2595509400   -4.5145526212
 18        -24.1730589855   -4.2504551689   21.2595652865   -4.5145576869
 19        -24.1730176682   -4.2504480829   21.2595732399   -4.5145606573
 20        -24.1729931274   -4.2504442088   21.2595776183   -4.5145623987
 21        -24.1729785394   -4.2504421116   21.2595800086   -4.5145634196
 22        -24.1729698603   -4.2504409903   21.2595813001   -4.5145640181
 23        -24.1729646922   -4.2504404002   21.2595819890   -4.5145643688
 24        -24.1729616119   -4.2504400960   21.2595823505   -4.5145645744
 25        -24.1729597743   -4.2504399438   21.2595825360   -4.5145646948
 26        -24.1729586769   -4.2504398706   21.2595826284   -4.5145647654
 27        -24.1729580209   -4.2504398378   21.2595826723   -4.5145648067
 28        -24.1729576283   -4.2504398249   21.2595826917   -4.5145648309
 29        -24.1729573931   -4.2504398211   21.2595826991   -4.5145648451
 30        -24.1729572521   -4.2504398214   21.2595827010   -4.5145648534
 31        -24.1729571674   -4.2504398230   21.2595827006   -4.5145648582
Atom SCF converged after  31 iterations to a total energy of    -24.17295717
 
WARNING in ngwfs_initialise: Setting radial NGWF functions for species  6 (F):
Last NGWF on atom has m = -2 and does not complete set of m-values for l = 2.
This breaks symmetry and may cause unstable NGWF optimisation and poor 
convergence. Suggest increasing number of NGWFs per atom from   9 to  13.
NB: All NGWF radial function angular momenta:     0    1    0    1    2
 

========================== Calculation in vacuum ==============================
= Adjusting the following parameters: 
= is_implicit_solvent: F
= is_include_apolar: F
= write_denskern: T
= write_tightbox_ngwfs: T
= restart read filename prefix: ""
= restart write filename prefix: "vacuum_"
===============================================================================

Determining parallel strategy ...
... using space-filling curve
... NGWF load balancing: max    219;  min    218;  average    218
... Projector load balancing: max     47;  min     42;  average     44
... done
Calculating direct Ion-Ion energy ...
Ion-Ion Energy        :    840695.76877123408485
======================= Empirical dispersion information =======================
Model : Elstner
WARNING: Unoptimised dispersion parameters used for F 
Dispersion Correction Energy: -0.32936679E+01 Hartree
================================================================================
Basis initialisation ...... NGWF spheres initialised
... Projector spheres initialised
... NGWF tight boxes initialised
... Tight-boxes gathered
... NGWF basis size (local,global):    1507682  45350060
... Nonlocal pseudopotential projector initialisation
... done

========================== Sparse matrix information ===========================
                        Overlap matrix filling:   6.80%
                        Density kernel filling: 100.00%
              NGWF-Proj overlap matrix filling:   1.77%
                    Hamiltonian matrix filling:   7.67%
                  NGWF diagonal matrix filling:   0.05%
                             KS matrix filling: 100.00% 
                           KSKS matrix filling: 100.00% 
================================================================================

Sparse matrix initialisation ... done

Generating smeared ion density ... done
Smeared ion self correction:     -14544.936866
Smeared ion non-self correction: -840647.315635
NGWF initialisation ...... done
============ Calculation of NGWF S^-1 using Hotelling algorithm ================ 
         Iteration  |  Frobenius norm and Maximum abs value    (of I-S*S_n^-1)   
               1       0.78790745E+02     0.98302514E+00
               2       0.76970499E+02     0.96649470E+00
               3       0.74010104E+02     0.93466320E+00
               4       0.69779953E+02     0.87534198E+00
               5       0.64487990E+02     0.77387803E+00
               6       0.58519592E+02     0.70496984E+00
               7       0.52490565E+02     0.67107661E+00
               8       0.46915053E+02     0.64605740E+00
               9       0.40884829E+02     0.60687002E+00
              10       0.32705163E+02     0.54019382E+00
              11       0.22180170E+02     0.44694380E+00
              12       0.11493892E+02     0.31133233E+00
              13       0.38779953E+01     0.15662028E+00
              14       0.64557433E+00     0.42524069E-01
              15       0.35096052E-01     0.35554491E-02
              16       0.24657812E-03     0.31836966E-04
              17       0.23499691E-07     0.38782108E-08
              18       0.10246448E-12     0.59952043E-14
================================================================================
Calculating local pseudopotential in open BC on the fine real space grid ...
... done

MG BCs: +ve charge blocks (gridpoints):     20056 (   15772854).
MG BCs: -ve charge blocks (gridpoints):      8017 (    1079998).
MG BCs:     Elided blocks (gridpoints):    189989 (  189366973).
MG BCs: Computational effort saved:  99.9864%.
MG BCs: Charge after coarse-graining:           -9.0002149.
MG DL_MG: Calling solver with defect correction order = 8
MG DL_MG: Solver finished
MG Hartree energy from (\int phi*rho dr):              1471.384625
MG Hartree energy from (\int eps (grad phi)^2 dr):     1470.775120
MG Discrepancy due to finite box and discretization:     -0.609505 (  -0.04142%)
MG Correction to account for finite box:                  0.454495
MG Remaining discrepancy, due to discretization:         -0.155010 (  -0.01053%)
Up spin density kernel initialisation ... 
======= Optimisation of K by Palser-Manolopoulos canonical purification ======== 
         Iteration  |  Band structure energy |    c_n   
               1       -2564.12881123573788    0.5306239
               2       -2739.43313777446565    0.5198797
               3       -2924.41009070731525    0.5154622
               4       -3085.60052094565981    0.5251988
               5       -3191.16730879027364    0.5562500
               6       -3238.53533371227013    0.6023533
               7       -3254.68953293458253    0.6205012
               8       -3261.27923461557839    0.6168118
               9       -3264.50379169212874    0.6244066
              10       -3265.87862287350572    0.6466816
              11       -3266.40014212264487    0.6637823
              12       -3266.61180791359811    0.6438664
              13       -3266.72175816900290    0.5857597
              14       -3266.78521884518250    0.5102922
              15       -3266.81286276697574    0.4346082
              16       -3266.81633385741679    0.3898473
              17       -3266.81738514605786    0.3927338
              18       -3266.81799470121314    0.4322947
              19       -3266.81852194916701    0.4713205
              20       -3266.81886176361058    0.4944142
              21       -3266.81896552280932    0.4997845
              22       -3266.81897303847336    0.5000000
              23       -3266.81897307529471    0.5000000
Termination criterion satisfied: band energy change below threshold.
Final occupancy bounds: [    0.00000000000003:    1.00000000000000]
Closest occupancy to 0.5:     1.00000000000000
================================================================================
... done

Writing density kernel to file "complex_32401.vacuum_dkn" ... done

>>> Optimising kernel for current NGWFs:
   Initial electron number for spin 1:    7234.00000000
     Final electron number for spin 1:    7234.00000000

=================== Penalty functional idempotency correction ==================
 RMS occupancy error at iteration   1:  0.000000 (step -0.5000 Ne1=   7234.0000)
            Final RMS occupancy error   :  0.000000 (Ne1=   7234.0000)
               Final occupancy bounds   : [  0.0000,  1.0000]
================================================================================

................................................................................
<<<<<<<<<<<<<< LNV (Original version) density kernel optimisation >>>>>>>>>>>>>>
~~~~~~~~~~~~~~~~~~~~~~~~~~~~~~~~~~~~~~~~~~~~~~~~~~~~~~~~~~~~~~~~~~~~~~~~~~~~~~~~
   iter  |      energy (Eh)       | rms gradient |  commutator  |   dE (Eh)
MG BCs: +ve charge blocks (gridpoints):     30772 (   16958545).
MG BCs: -ve charge blocks (gridpoints):      8373 (    1112408).
MG BCs:     Elided blocks (gridpoints):    179268 (  188148872).
MG BCs: Computational effort saved:  99.9810%.
MG BCs: Charge after coarse-graining:           -9.0009333.
MG DL_MG: Calling solver with defect correction order = 8
MG DL_MG: Solver finished
MG Hartree energy from (\int phi*rho dr):              1425.886217
MG Hartree energy from (\int eps (grad phi)^2 dr):     1425.218501
MG Discrepancy due to finite box and discretization:     -0.667716 (  -0.04683%)
MG Correction to account for finite box:                  0.469137
MG Remaining discrepancy, due to discretization:         -0.198579 (  -0.01393%)
      ideal mu1:      -0.704215773570
             Q0:  -11578.037341511343
             G0:    -144.129089279204
   RMS gradient:       0.001833441893
MG BCs: +ve charge blocks (gridpoints):     30733 (   17043445).
MG BCs: -ve charge blocks (gridpoints):      8248 (    1092158).
MG BCs:     Elided blocks (gridpoints):    179309 (  188084222).
MG BCs: Computational effort saved:  99.9811%.
MG BCs: Charge after coarse-graining:           -9.0009544.
MG DL_MG: Calling solver with defect correction order = 8
MG DL_MG: Solver finished
MG Hartree energy from (\int phi*rho dr):              1451.360276
MG Hartree energy from (\int eps (grad phi)^2 dr):     1450.708221
MG Discrepancy due to finite box and discretization:     -0.652055 (  -0.04493%)
MG Correction to account for finite box:                  0.469622
MG Remaining discrepancy, due to discretization:         -0.182434 (  -0.01257%)
     Trial step:       0.500000000000
             Q1:  -11589.436088160612
 Quadratic coef:      60.665797990334
 Linear coef   :     -72.064544639602
           Qmin:  -11599.438603697577
Quadratic minimum step length (  0.296973529678) accepted
    Initial Ne1:    7234.00000000
      Final Ne1:    7234.00000000

=================== Penalty functional idempotency correction ==================
 RMS occupancy error at iteration   1:  0.003360 (step -0.4886 Ne1=   7234.0000)
 RMS occupancy error at iteration   2:  0.000026 (step -0.5001 Ne1=   7234.0000)
            Final RMS occupancy error   :  0.000000 (Ne1=   7234.0000)
               Final occupancy bounds   : [  0.0000,  1.0000]
================================================================================

    1        -1.157803734151E+04     1.8334E-03     1.6596E-03
MG BCs: +ve charge blocks (gridpoints):     30727 (   17010534).
MG BCs: -ve charge blocks (gridpoints):      8294 (    1100674).
MG BCs:     Elided blocks (gridpoints):    179314 (  188108617).
MG BCs: Computational effort saved:  99.9811%.
MG BCs: Charge after coarse-graining:           -9.0009458.
MG DL_MG: Calling solver with defect correction order = 8
MG DL_MG: Solver finished
MG Hartree energy from (\int phi*rho dr):              1433.117309
MG Hartree energy from (\int eps (grad phi)^2 dr):     1432.459868
MG Discrepancy due to finite box and discretization:     -0.657441 (  -0.04587%)
MG Correction to account for finite box:                  0.469302
MG Remaining discrepancy, due to discretization:         -0.188139 (  -0.01313%)
      ideal mu1:      -0.748272964793
             Q0:  -11599.832516283845
             G0:     -12.125199157011
   RMS gradient:       0.000528255193
MG BCs: +ve charge blocks (gridpoints):     30735 (   17027742).
MG BCs: -ve charge blocks (gridpoints):      8271 (    1095341).
MG BCs:     Elided blocks (gridpoints):    179306 (  188096742).
MG BCs: Computational effort saved:  99.9811%.
MG BCs: Charge after coarse-graining:           -9.0009499.
MG DL_MG: Calling solver with defect correction order = 8
MG DL_MG: Solver finished
MG Hartree energy from (\int phi*rho dr):              1438.458364
MG Hartree energy from (\int eps (grad phi)^2 dr):     1437.804790
MG Discrepancy due to finite box and discretization:     -0.653574 (  -0.04544%)
MG Correction to account for finite box:                  0.468661
MG Remaining discrepancy, due to discretization:         -0.184913 (  -0.01285%)
     Trial step:       0.385339804379
             Q1:  -11602.665924500674
 Quadratic coef:       1.838913654390
 Linear coef   :      -4.672321871219
           Qmin:  -11602.800381525391
Quadratic minimum step length (  0.489536741313) accepted
    Initial Ne1:    7233.99989647
      Final Ne1:    7234.00000000

=================== Penalty functional idempotency correction ==================
 RMS occupancy error at iteration   1:  0.001781 (step -0.4932 Ne1=   7234.0000)
 RMS occupancy error at iteration   2:  0.000011 (step -0.5001 Ne1=   7234.0000)
            Final RMS occupancy error   :  0.000000 (Ne1=   7234.0000)
               Final occupancy bounds   : [  0.0000,  1.0000]
================================================================================

    2        -1.159983251628E+04     5.2826E-04     4.7816E-04    -2.1795E+01
MG BCs: +ve charge blocks (gridpoints):     30738 (   17032423).
MG BCs: -ve charge blocks (gridpoints):      8264 (    1093910).
MG BCs:     Elided blocks (gridpoints):    179303 (  188093492).
MG BCs: Computational effort saved:  99.9811%.
MG BCs: Charge after coarse-graining:           -9.0009511.
MG DL_MG: Calling solver with defect correction order = 8
MG DL_MG: Solver finished
MG Hartree energy from (\int phi*rho dr):              1439.952081
MG Hartree energy from (\int eps (grad phi)^2 dr):     1439.299477
MG Discrepancy due to finite box and discretization:     -0.652604 (  -0.04532%)
MG Correction to account for finite box:                  0.468501
MG Remaining discrepancy, due to discretization:         -0.184103 (  -0.01279%)
      ideal mu1:      -0.773354360679
             Q0:  -11602.836706342292
             G0:      -1.943360097726
   RMS gradient:       0.000211563868
MG BCs: +ve charge blocks (gridpoints):     30743 (   17032061).
MG BCs: -ve charge blocks (gridpoints):      8264 (    1094922).
MG BCs:     Elided blocks (gridpoints):    179298 (  188092842).
MG BCs: Computational effort saved:  99.9811%.
MG BCs: Charge after coarse-graining:           -9.0009506.
MG DL_MG: Calling solver with defect correction order = 8
MG DL_MG: Solver finished
MG Hartree energy from (\int phi*rho dr):              1437.769399
MG Hartree energy from (\int eps (grad phi)^2 dr):     1437.117489
MG Discrepancy due to finite box and discretization:     -0.651909 (  -0.04534%)
MG Correction to account for finite box:                  0.468043
MG Remaining discrepancy, due to discretization:         -0.183867 (  -0.01279%)
     Trial step:       0.434324754226
             Q1:  -11603.332801707322
 Quadratic coef:       0.347954031788
 Linear coef   :      -0.844049396818
           Qmin:  -11603.348569490285
Quadratic minimum step length (  0.526781576498) accepted
    Initial Ne1:    7233.99993436
      Final Ne1:    7234.00000000

=================== Penalty functional idempotency correction ==================
 RMS occupancy error at iteration   1:  0.000639 (step -0.4969 Ne1=   7234.0000)
 RMS occupancy error at iteration   2:  0.000004 (step -0.5000 Ne1=   7234.0000)
            Final RMS occupancy error   :  0.000000 (Ne1=   7234.0000)
               Final occupancy bounds   : [  0.0000,  1.0000]
================================================================================

    3        -1.160283670634E+04     2.1156E-04     1.9150E-04    -3.0042E+00
MG BCs: +ve charge blocks (gridpoints):     30742 (   17032018).
MG BCs: -ve charge blocks (gridpoints):      8265 (    1095143).
MG BCs:     Elided blocks (gridpoints):    179299 (  188092664).
MG BCs: Computational effort saved:  99.9811%.
MG BCs: Charge after coarse-graining:           -9.0009504.
MG DL_MG: Calling solver with defect correction order = 8
MG DL_MG: Solver finished
MG Hartree energy from (\int phi*rho dr):              1437.314602
MG Hartree energy from (\int eps (grad phi)^2 dr):     1436.662829
MG Discrepancy due to finite box and discretization:     -0.651773 (  -0.04535%)
MG Correction to account for finite box:                  0.467947
MG Remaining discrepancy, due to discretization:         -0.183826 (  -0.01279%)
      ideal mu1:      -0.774463855231
             Q0:  -11603.353318511508
             G0:      -0.514283165919
   RMS gradient:       0.000108964852
MG BCs: +ve charge blocks (gridpoints):     30745 (   17032815).
MG BCs: -ve charge blocks (gridpoints):      8260 (    1094989).
MG BCs:     Elided blocks (gridpoints):    179296 (  188092021).
MG BCs: Computational effort saved:  99.9811%.
MG BCs: Charge after coarse-graining:           -9.0009506.
MG DL_MG: Calling solver with defect correction order = 8
MG DL_MG: Solver finished
MG Hartree energy from (\int phi*rho dr):              1438.541186
MG Hartree energy from (\int eps (grad phi)^2 dr):     1437.889483
MG Discrepancy due to finite box and discretization:     -0.651703 (  -0.04530%)
MG Correction to account for finite box:                  0.467771
MG Remaining discrepancy, due to discretization:         -0.183932 (  -0.01279%)
     Trial step:       0.478324449243
             Q1:  -11603.481287546339
 Quadratic coef:       0.118025177262
 Linear coef   :      -0.245994212093
           Qmin:  -11603.481496993818
Quadratic minimum step length (  0.498474345669) accepted
    Initial Ne1:    7233.99998374
      Final Ne1:    7234.00000000

=================== Penalty functional idempotency correction ==================
 RMS occupancy error at iteration   1:  0.000294 (step -0.4953 Ne1=   7234.0000)
 RMS occupancy error at iteration   2:  0.000003 (step -0.5000 Ne1=   7234.0000)
            Final RMS occupancy error   :  0.000000 (Ne1=   7234.0000)
               Final occupancy bounds   : [  0.0000,  1.0000]
================================================================================

    4        -1.160335331851E+04     1.0896E-04     9.8632E-05    -5.1661E-01
MG BCs: +ve charge blocks (gridpoints):     30745 (   17032849).
MG BCs: -ve charge blocks (gridpoints):      8260 (    1094988).
MG BCs:     Elided blocks (gridpoints):    179296 (  188091988).
MG BCs: Computational effort saved:  99.9811%.
MG BCs: Charge after coarse-graining:           -9.0009506.
MG DL_MG: Calling solver with defect correction order = 8
MG DL_MG: Solver finished
MG Hartree energy from (\int phi*rho dr):              1438.593497
MG Hartree energy from (\int eps (grad phi)^2 dr):     1437.941796
MG Discrepancy due to finite box and discretization:     -0.651700 (  -0.04530%)
MG Correction to account for finite box:                  0.467763
MG Remaining discrepancy, due to discretization:         -0.183937 (  -0.01279%)
      ideal mu1:      -0.775024428061
             Q0:  -11603.482134273974
             G0:      -0.194179388736
   RMS gradient:       0.000067138184
MG BCs: +ve charge blocks (gridpoints):     30745 (   17032993).
MG BCs: -ve charge blocks (gridpoints):      8262 (    1094793).
MG BCs:     Elided blocks (gridpoints):    179296 (  188092039).
MG BCs: Computational effort saved:  99.9811%.
MG BCs: Charge after coarse-graining:           -9.0009506.
MG DL_MG: Calling solver with defect correction order = 8
MG DL_MG: Solver finished
MG Hartree energy from (\int phi*rho dr):              1439.009885
MG Hartree energy from (\int eps (grad phi)^2 dr):     1438.358163
MG Discrepancy due to finite box and discretization:     -0.651722 (  -0.04529%)
MG Correction to account for finite box:                  0.467630
MG Remaining discrepancy, due to discretization:         -0.184092 (  -0.01279%)
     Trial step:       0.488295470851
             Q1:  -11603.544300339883
 Quadratic coef:       0.032650850144
 Linear coef   :      -0.094816916052
           Qmin:  -11603.550970518130
Quadratic minimum step length (  0.708996403836) accepted
    Initial Ne1:    7233.99999117
      Final Ne1:    7234.00000000

=================== Penalty functional idempotency correction ==================
 RMS occupancy error at iteration   1:  0.000487 (step -0.4749 Ne1=   7234.0000)
 RMS occupancy error at iteration   2:  0.000011 (step -0.5001 Ne1=   7234.0000)
            Final RMS occupancy error   :  0.000000 (Ne1=   7234.0000)
               Final occupancy bounds   : [  0.0000,  1.0000]
================================================================================

    5        -1.160348213427E+04     6.7138E-05     6.0771E-05    -1.2882E-01
MG BCs: +ve charge blocks (gridpoints):     30745 (   17033158).
MG BCs: -ve charge blocks (gridpoints):      8261 (    1094689).
MG BCs:     Elided blocks (gridpoints):    179296 (  188091978).
MG BCs: Computational effort saved:  99.9811%.
MG BCs: Charge after coarse-graining:           -9.0009505.
MG DL_MG: Calling solver with defect correction order = 8
MG DL_MG: Solver finished
MG Hartree energy from (\int phi*rho dr):              1439.196928
MG Hartree energy from (\int eps (grad phi)^2 dr):     1438.545199
MG Discrepancy due to finite box and discretization:     -0.651729 (  -0.04528%)
MG Correction to account for finite box:                  0.467567
MG Remaining discrepancy, due to discretization:         -0.184162 (  -0.01280%)
      ideal mu1:      -0.774904426904
             Q0:  -11603.550397567218
             G0:      -0.177685773910
   RMS gradient:       0.000064754022
MG BCs: +ve charge blocks (gridpoints):     30742 (   17032395).
MG BCs: -ve charge blocks (gridpoints):      8266 (    1095094).
MG BCs:     Elided blocks (gridpoints):    179299 (  188092336).
MG BCs: Computational effort saved:  99.9811%.
MG BCs: Charge after coarse-graining:           -9.0009504.
MG DL_MG: Calling solver with defect correction order = 8
MG DL_MG: Solver finished
MG Hartree energy from (\int phi*rho dr):              1437.879603
MG Hartree energy from (\int eps (grad phi)^2 dr):     1437.228076
MG Discrepancy due to finite box and discretization:     -0.651527 (  -0.04531%)
MG Correction to account for finite box:                  0.467379
MG Remaining discrepancy, due to discretization:         -0.184148 (  -0.01281%)
     Trial step:       0.588387400309
             Q1:  -11603.628617322072
 Quadratic coef:       0.026328315729
 Linear coef   :      -0.104548070583
           Qmin:  -11603.654186005255
Quadratic minimum step length (  1.168224509505) accepted
    Initial Ne1:    7233.99991594
      Final Ne1:    7234.00000000

=================== Penalty functional idempotency correction ==================
 RMS occupancy error at iteration   1:  0.003505 (step -0.3487 Ne1=   7234.0000)
 RMS occupancy error at iteration   2:  0.000226 (step -0.4951 Ne1=   7234.0000)
 RMS occupancy error at iteration   3:  0.000004 (step -0.5000 Ne1=   7234.0000)
            Final RMS occupancy error   :  0.000000 (Ne1=   7234.0000)
               Final occupancy bounds   : [  0.0000,  1.0000]
================================================================================

    6        -1.160355039757E+04     6.4754E-05     5.8613E-05    -6.8263E-02
MG BCs: +ve charge blocks (gridpoints):     30741 (   17031752).
MG BCs: -ve charge blocks (gridpoints):      8269 (    1095448).
MG BCs:     Elided blocks (gridpoints):    179300 (  188092625).
MG BCs: Computational effort saved:  99.9811%.
MG BCs: Charge after coarse-graining:           -9.0009502.
MG DL_MG: Calling solver with defect correction order = 8
MG DL_MG: Solver finished
MG Hartree energy from (\int phi*rho dr):              1436.594654
MG Hartree energy from (\int eps (grad phi)^2 dr):     1435.943307
MG Discrepancy due to finite box and discretization:     -0.651347 (  -0.04534%)
MG Correction to account for finite box:                  0.467212
MG Remaining discrepancy, due to discretization:         -0.184135 (  -0.01282%)
      ideal mu1:      -0.774762563653
             Q0:  -11603.638232951285
             G0:      -0.302841509811
   RMS gradient:       0.000084042513
MG BCs: +ve charge blocks (gridpoints):     30746 (   17034047).
MG BCs: -ve charge blocks (gridpoints):      8258 (    1094230).
MG BCs:     Elided blocks (gridpoints):    179295 (  188091548).
MG BCs: Computational effort saved:  99.9811%.
MG BCs: Charge after coarse-graining:           -9.0009509.
MG DL_MG: Calling solver with defect correction order = 8
MG DL_MG: Solver finished
MG Hartree energy from (\int phi*rho dr):              1439.793999
MG Hartree energy from (\int eps (grad phi)^2 dr):     1439.143066
MG Discrepancy due to finite box and discretization:     -0.650933 (  -0.04521%)
MG Correction to account for finite box:                  0.466956
MG Remaining discrepancy, due to discretization:         -0.183977 (  -0.01278%)
     Trial step:       0.829076945841
             Q1:  -11603.716926264227
 Quadratic coef:       0.172385601087
 Linear coef   :      -0.251078914028
           Qmin:  -11603.729656800888
Quadratic minimum step length (  0.603773568950) accepted
    Initial Ne1:    7233.99999887
      Final Ne1:    7234.00000000

=================== Penalty functional idempotency correction ==================
 RMS occupancy error at iteration   1:  0.000129 (step -0.4927 Ne1=   7234.0000)
 RMS occupancy error at iteration   2:  0.000001 (step -0.5000 Ne1=   7234.0000)
            Final RMS occupancy error   :  0.000000 (Ne1=   7234.0000)
               Final occupancy bounds   : [  0.0000,  1.0000]
================================================================================

    7        -1.160363823295E+04     8.4043E-05     7.6073E-05    -8.7835E-02
MG BCs: +ve charge blocks (gridpoints):     30746 (   17033463).
MG BCs: -ve charge blocks (gridpoints):      8258 (    1094550).
MG BCs:     Elided blocks (gridpoints):    179295 (  188091812).
MG BCs: Computational effort saved:  99.9811%.
MG BCs: Charge after coarse-graining:           -9.0009507.
MG DL_MG: Calling solver with defect correction order = 8
MG DL_MG: Solver finished
MG Hartree energy from (\int phi*rho dr):              1438.920862
MG Hartree energy from (\int eps (grad phi)^2 dr):     1438.269816
MG Discrepancy due to finite box and discretization:     -0.651046 (  -0.04525%)
MG Correction to account for finite box:                  0.467028
MG Remaining discrepancy, due to discretization:         -0.184019 (  -0.01279%)
      ideal mu1:      -0.775858967084
             Q0:  -11603.729784329422
             G0:      -0.195197285396
   RMS gradient:       0.000067422016
MG BCs: +ve charge blocks (gridpoints):     30745 (   17033368).
MG BCs: -ve charge blocks (gridpoints):      8259 (    1094542).
MG BCs:     Elided blocks (gridpoints):    179296 (  188091915).
MG BCs: Computational effort saved:  99.9811%.
MG BCs: Charge after coarse-graining:           -9.0009508.
MG DL_MG: Calling solver with defect correction order = 8
MG DL_MG: Solver finished
MG Hartree energy from (\int phi*rho dr):              1438.745622
MG Hartree energy from (\int eps (grad phi)^2 dr):     1438.095020
MG Discrepancy due to finite box and discretization:     -0.650602 (  -0.04522%)
MG Correction to account for finite box:                  0.466725
MG Remaining discrepancy, due to discretization:         -0.183877 (  -0.01278%)
     Trial step:       0.707513071628
             Q1:  -11603.809601129615
 Quadratic coef:       0.058287830770
 Linear coef   :      -0.138104630964
           Qmin:  -11603.811589093992
Quadratic minimum step length (  0.838175227727) accepted
    Initial Ne1:    7233.99999895
      Final Ne1:    7234.00000000

=================== Penalty functional idempotency correction ==================
 RMS occupancy error at iteration   1:  0.000933 (step -0.4500 Ne1=   7234.0000)
 RMS occupancy error at iteration   2:  0.000012 (step -0.4999 Ne1=   7234.0000)
            Final RMS occupancy error   :  0.000000 (Ne1=   7234.0000)
               Final occupancy bounds   : [ -0.0000,  1.0000]
================================================================================

    8        -1.160372978433E+04     6.7422E-05     6.1028E-05    -9.1551E-02
MG BCs: +ve charge blocks (gridpoints):     30745 (   17033397).
MG BCs: -ve charge blocks (gridpoints):      8260 (    1094550).
MG BCs:     Elided blocks (gridpoints):    179296 (  188091878).
MG BCs: Computational effort saved:  99.9811%.
MG BCs: Charge after coarse-graining:           -9.0009508.
MG DL_MG: Calling solver with defect correction order = 8
MG DL_MG: Solver finished
MG Hartree energy from (\int phi*rho dr):              1438.714770
MG Hartree energy from (\int eps (grad phi)^2 dr):     1438.064248
MG Discrepancy due to finite box and discretization:     -0.650522 (  -0.04522%)
MG Correction to account for finite box:                  0.466672
MG Remaining discrepancy, due to discretization:         -0.183851 (  -0.01278%)
      ideal mu1:      -0.775816295464
             Q0:  -11603.810900233802
             G0:      -0.190300913702
   RMS gradient:       0.000066809254
MG BCs: +ve charge blocks (gridpoints):     30743 (   17032542).
MG BCs: -ve charge blocks (gridpoints):      8260 (    1095047).
MG BCs:     Elided blocks (gridpoints):    179298 (  188092236).
MG BCs: Computational effort saved:  99.9811%.
MG BCs: Charge after coarse-graining:           -9.0009505.
MG DL_MG: Calling solver with defect correction order = 8
MG DL_MG: Solver finished
MG Hartree energy from (\int phi*rho dr):              1437.473019
MG Hartree energy from (\int eps (grad phi)^2 dr):     1436.822954
MG Discrepancy due to finite box and discretization:     -0.650065 (  -0.04522%)
MG Correction to account for finite box:                  0.466286
MG Remaining discrepancy, due to discretization:         -0.183779 (  -0.01278%)
     Trial step:       0.770077872641
             Q1:  -11603.880097996211
 Quadratic coef:       0.077348760376
 Linear coef   :      -0.146546522785
           Qmin:  -11603.880312733872
Quadratic minimum step length (  0.729502541219) accepted
    Initial Ne1:    7234.00000998
      Final Ne1:    7234.00000000

=================== Penalty functional idempotency correction ==================
 RMS occupancy error at iteration   1:  0.002501 (step -0.3865 Ne1=   7234.0000)
 RMS occupancy error at iteration   2:  0.000048 (step -0.4994 Ne1=   7234.0000)
            Final RMS occupancy error   :  0.000000 (Ne1=   7234.0000)
               Final occupancy bounds   : [ -0.0000,  1.0000]
================================================================================

    9        -1.160381090023E+04     6.6809E-05     6.0474E-05    -8.1116E-02
MG BCs: +ve charge blocks (gridpoints):     30743 (   17032600).
MG BCs: -ve charge blocks (gridpoints):      8260 (    1094998).
MG BCs:     Elided blocks (gridpoints):    179298 (  188092227).
MG BCs: Computational effort saved:  99.9811%.
MG BCs: Charge after coarse-graining:           -9.0009506.
MG DL_MG: Calling solver with defect correction order = 8
MG DL_MG: Solver finished
MG Hartree energy from (\int phi*rho dr):              1437.543055
MG Hartree energy from (\int eps (grad phi)^2 dr):     1436.892964
MG Discrepancy due to finite box and discretization:     -0.650091 (  -0.04522%)
MG Correction to account for finite box:                  0.466308
MG Remaining discrepancy, due to discretization:         -0.183783 (  -0.01278%)
      ideal mu1:      -0.775098416404
   10        -1.160388290357E+04     5.8210E-05     5.2690E-05    -7.2003E-02
Finished density kernel iterations (  10)

Writing density kernel to file "complex_32401.vacuum_dkn" ... done


>>> Density kernel optimised for the current NGWF basis:
     ~~~~~~~~~~~~~~~~~~~~~~~~~~~~~~~~~~~~~~~~~~~~~~~~~~~~~~~~~~~
     Total energy                =  -1.16038829035700E+04  Eh
     Estimated bandgap           =  -4.8512E-01  Eh
     RMS occupancy error         =   9.8132E-08
     [H,K] commutator            =   5.2690E-05
     Occupancy bounds            = [ -0.000:  1.000]
     ~~~~~~~~~~~~~~~~~~~~~~~~~~~~~~~~~~~~~~~~~~~~~~~~~~~~~~~~~~~




################################################################################
########################### NGWF CG iteration  001 #############################
################################################################################
****** Reciprocal space K.E. preconditioning with k_zero =  3.5000 a0^-1 *******

>>> Checking for convergence of NGWFs:   NOT CONVERGED
  ========================================================================
         NGWF RMS gradient =  1.6006E-03 >  2.0000E-06  | above tolerance
  ========================================================================

>>> Improving NGWFs using line search:
============ Calculation of NGWF S^-1 using Hotelling algorithm ================ 
         Iteration  |  Frobenius norm and Maximum abs value    (of I-S*S_n^-1)   
               1       0.20051469E+00     0.52829810E-02
               2       0.93698274E-03     0.40015485E-04
               3       0.35383450E-07     0.24279749E-08
               4       0.13958305E-12     0.59952043E-14
================================================================================
MG BCs: +ve charge blocks (gridpoints):     30303 (   16971723).
MG BCs: -ve charge blocks (gridpoints):      8285 (    1095020).
MG BCs:     Elided blocks (gridpoints):    179738 (  188153082).
MG BCs: Computational effort saved:  99.9813%.
MG BCs: Charge after coarse-graining:           -9.0009540.
MG DL_MG: Calling solver with defect correction order = 8
MG DL_MG: Solver finished
MG Hartree energy from (\int phi*rho dr):              1405.543163
MG Hartree energy from (\int eps (grad phi)^2 dr):     1404.893937
MG Discrepancy due to finite box and discretization:     -0.649226 (  -0.04619%)
MG Correction to account for finite box:                  0.466232
MG Remaining discrepancy, due to discretization:         -0.182993 (  -0.01302%)
============ Calculation of NGWF S^-1 using Hotelling algorithm ================ 
         Iteration  |  Frobenius norm and Maximum abs value    (of I-S*S_n^-1)   
               1       0.18512617E+01     0.40247255E-01
               2       0.71344733E-01     0.21664556E-02
               3       0.14584113E-03     0.79634499E-05
               4       0.11257128E-08     0.11789247E-09
               5       0.11723046E-12     0.64392935E-14
================================================================================
------------------------------- NGWF line search -------------------------------
RMS gradient                =       0.00160057825937
Trial step length           =               0.122474
Gradient along search dir.  =       -279.02924572809
Functional at step 0        =  -11603.88290356996004
Functional at step 1        =  -11635.42712233588099
Functional predicted        =  -11714.90695713109199
Selected quadratic step     =               0.795788
--------------------------- NGWF line search finished --------------------------
                                               
Writing NGWFs to file "complex_32401.vacuum_tightbox_ngwfs"....  done

>>> Optimising kernel for current NGWFs:
   Initial electron number for spin 1:    7268.71656078
     Final electron number for spin 1:    7234.00000000

=================== Penalty functional idempotency correction ==================
 RMS occupancy error at iteration   1:  0.004295 (step -0.4859 Ne1=   7234.0000)
 RMS occupancy error at iteration   2:  0.000072 (step -0.5003 Ne1=   7234.0000)
            Final RMS occupancy error   :  0.000000 (Ne1=   7234.0000)
               Final occupancy bounds   : [  0.0000,  1.0000]
================================================================================

................................................................................
<<<<<<<<<<<<<< LNV (Original version) density kernel optimisation >>>>>>>>>>>>>>
~~~~~~~~~~~~~~~~~~~~~~~~~~~~~~~~~~~~~~~~~~~~~~~~~~~~~~~~~~~~~~~~~~~~~~~~~~~~~~~~
   iter  |      energy (Eh)       | rms gradient |  commutator  |   dE (Eh)
MG BCs: +ve charge blocks (gridpoints):     24423 (   16620637).
MG BCs: -ve charge blocks (gridpoints):      8416 (    1078816).
MG BCs:     Elided blocks (gridpoints):    185622 (  188520372).
MG BCs: Computational effort saved:  99.9841%.
MG BCs: Charge after coarse-graining:           -9.0006574.
MG DL_MG: Calling solver with defect correction order = 8
MG DL_MG: Solver finished
MG Hartree energy from (\int phi*rho dr):              1251.675652
MG Hartree energy from (\int eps (grad phi)^2 dr):     1251.026426
MG Discrepancy due to finite box and discretization:     -0.649225 (  -0.05187%)
MG Correction to account for finite box:                  0.465903
MG Remaining discrepancy, due to discretization:         -0.183322 (  -0.01465%)
      ideal mu1:      -0.715342217126
             Q0:  -11714.116163992672
             G0:      -9.910675438964
   RMS gradient:       0.000480776195
MG BCs: +ve charge blocks (gridpoints):     24488 (   16636117).
MG BCs: -ve charge blocks (gridpoints):      8412 (    1075179).
MG BCs:     Elided blocks (gridpoints):    185557 (  188508529).
MG BCs: Computational effort saved:  99.9840%.
MG BCs: Charge after coarse-graining:           -9.0006528.
MG DL_MG: Calling solver with defect correction order = 8
MG DL_MG: Solver finished
MG Hartree energy from (\int phi*rho dr):              1268.081730
MG Hartree energy from (\int eps (grad phi)^2 dr):     1267.427748
MG Discrepancy due to finite box and discretization:     -0.653982 (  -0.05157%)
MG Correction to account for finite box:                  0.464368
MG Remaining discrepancy, due to discretization:         -0.189614 (  -0.01495%)
     Trial step:       0.749515686979
             Q1:  -11713.148057070910
 Quadratic coef:       8.396313631827
 Linear coef   :      -7.428206710065
           Qmin:  -11715.759094966519
Quadratic minimum step length (  0.331547730317) accepted
    Initial Ne1:    7233.99956979
      Final Ne1:    7234.00000000

=================== Penalty functional idempotency correction ==================
 RMS occupancy error at iteration   1:  0.000357 (step -0.4986 Ne1=   7234.0000)
 RMS occupancy error at iteration   2:  0.000000 (step -0.5000 Ne1=   7234.0000)
            Final RMS occupancy error   :  0.000000 (Ne1=   7234.0000)
               Final occupancy bounds   : [  0.0000,  1.0000]
================================================================================

    1        -1.171411616399E+04     4.8078E-04     4.3518E-04
MG BCs: +ve charge blocks (gridpoints):     24455 (   16627603).
MG BCs: -ve charge blocks (gridpoints):      8409 (    1077110).
MG BCs:     Elided blocks (gridpoints):    185590 (  188515112).
MG BCs: Computational effort saved:  99.9841%.
MG BCs: Charge after coarse-graining:           -9.0006554.
MG DL_MG: Calling solver with defect correction order = 8
MG DL_MG: Solver finished
MG Hartree energy from (\int phi*rho dr):              1257.924172
MG Hartree energy from (\int eps (grad phi)^2 dr):     1257.272966
MG Discrepancy due to finite box and discretization:     -0.651205 (  -0.05177%)
MG Correction to account for finite box:                  0.465182
MG Remaining discrepancy, due to discretization:         -0.186024 (  -0.01479%)
      ideal mu1:      -0.722000430313
             Q0:  -11715.731630909257
             G0:      -1.021098277502
   RMS gradient:       0.000155073762
MG BCs: +ve charge blocks (gridpoints):     24461 (   16627303).
MG BCs: -ve charge blocks (gridpoints):      8406 (    1077955).
MG BCs:     Elided blocks (gridpoints):    185584 (  188514567).
MG BCs: Computational effort saved:  99.9841%.
MG BCs: Charge after coarse-graining:           -9.0006552.
MG DL_MG: Calling solver with defect correction order = 8
MG DL_MG: Solver finished
MG Hartree energy from (\int phi*rho dr):              1258.984784
MG Hartree energy from (\int eps (grad phi)^2 dr):     1258.333395
MG Discrepancy due to finite box and discretization:     -0.651389 (  -0.05174%)
MG Correction to account for finite box:                  0.464958
MG Remaining discrepancy, due to discretization:         -0.186431 (  -0.01481%)
     Trial step:       0.498497968757
             Q1:  -11715.944055271451
 Quadratic coef:       0.296591055041
 Linear coef   :      -0.509015417236
           Qmin:  -11715.950026483382
Quadratic minimum step length (  0.427766022011) accepted
    Initial Ne1:    7233.99994224
      Final Ne1:    7234.00000000

=================== Penalty functional idempotency correction ==================
 RMS occupancy error at iteration   1:  0.000153 (step -0.4992 Ne1=   7234.0000)
 RMS occupancy error at iteration   2:  0.000000 (step -0.5000 Ne1=   7234.0000)
            Final RMS occupancy error   :  0.000000 (Ne1=   7234.0000)
               Final occupancy bounds   : [  0.0000,  1.0000]
================================================================================

    2        -1.171573163091E+04     1.5507E-04     1.4037E-04    -1.6155E+00
MG BCs: +ve charge blocks (gridpoints):     24459 (   16627289).
MG BCs: -ve charge blocks (gridpoints):      8407 (    1077866).
MG BCs:     Elided blocks (gridpoints):    185586 (  188514670).
MG BCs: Computational effort saved:  99.9841%.
MG BCs: Charge after coarse-graining:           -9.0006553.
MG DL_MG: Calling solver with defect correction order = 8
MG DL_MG: Solver finished
MG Hartree energy from (\int phi*rho dr):              1258.834007
MG Hartree energy from (\int eps (grad phi)^2 dr):     1258.182646
MG Discrepancy due to finite box and discretization:     -0.651361 (  -0.05174%)
MG Correction to account for finite box:                  0.464989
MG Remaining discrepancy, due to discretization:         -0.186371 (  -0.01481%)
      ideal mu1:      -0.722789750378
             Q0:  -11715.950510725146
             G0:      -0.174185427083
   RMS gradient:       0.000063668330
MG BCs: +ve charge blocks (gridpoints):     24458 (   16626578).
MG BCs: -ve charge blocks (gridpoints):      8409 (    1078269).
MG BCs:     Elided blocks (gridpoints):    185587 (  188514978).
MG BCs: Computational effort saved:  99.9841%.
MG BCs: Charge after coarse-graining:           -9.0006554.
MG DL_MG: Calling solver with defect correction order = 8
MG DL_MG: Solver finished
MG Hartree energy from (\int phi*rho dr):              1258.318119
MG Hartree energy from (\int eps (grad phi)^2 dr):     1257.666939
MG Discrepancy due to finite box and discretization:     -0.651180 (  -0.05175%)
MG Correction to account for finite box:                  0.464823
MG Remaining discrepancy, due to discretization:         -0.186356 (  -0.01481%)
     Trial step:       0.461779701888
             Q1:  -11716.006168632768
 Quadratic coef:       0.024777386969
 Linear coef   :      -0.080435294591
           Qmin:  -11716.015790375339
Quadratic minimum step length (  0.749542040181) accepted
    Initial Ne1:    7233.99998293
      Final Ne1:    7234.00000000

=================== Penalty functional idempotency correction ==================
 RMS occupancy error at iteration   1:  0.000178 (step -0.4923 Ne1=   7234.0000)
 RMS occupancy error at iteration   2:  0.000001 (step -0.5000 Ne1=   7234.0000)
            Final RMS occupancy error   :  0.000000 (Ne1=   7234.0000)
               Final occupancy bounds   : [  0.0000,  1.0000]
================================================================================

    3        -1.171595051073E+04     6.3668E-05     5.7631E-05    -2.1888E-01
MG BCs: +ve charge blocks (gridpoints):     24460 (   16626149).
MG BCs: -ve charge blocks (gridpoints):      8409 (    1078561).
MG BCs:     Elided blocks (gridpoints):    185585 (  188515115).
MG BCs: Computational effort saved:  99.9841%.
MG BCs: Charge after coarse-graining:           -9.0006554.
MG DL_MG: Calling solver with defect correction order = 8
MG DL_MG: Solver finished
MG Hartree energy from (\int phi*rho dr):              1257.996748
MG Hartree energy from (\int eps (grad phi)^2 dr):     1257.345680
MG Discrepancy due to finite box and discretization:     -0.651068 (  -0.05175%)
MG Correction to account for finite box:                  0.464720
MG Remaining discrepancy, due to discretization:         -0.186348 (  -0.01481%)
      ideal mu1:      -0.721903164380
             Q0:  -11716.015832214616
             G0:      -0.076674893875
   RMS gradient:       0.000042252409
MG BCs: +ve charge blocks (gridpoints):     24457 (   16626077).
MG BCs: -ve charge blocks (gridpoints):      8409 (    1078579).
MG BCs:     Elided blocks (gridpoints):    185588 (  188515169).
MG BCs: Computational effort saved:  99.9841%.
MG BCs: Charge after coarse-graining:           -9.0006554.
MG DL_MG: Calling solver with defect correction order = 8
MG DL_MG: Solver finished
MG Hartree energy from (\int phi*rho dr):              1258.005902
MG Hartree energy from (\int eps (grad phi)^2 dr):     1257.355099
MG Discrepancy due to finite box and discretization:     -0.650803 (  -0.05173%)
MG Correction to account for finite box:                  0.464591
MG Remaining discrepancy, due to discretization:         -0.186211 (  -0.01480%)
     Trial step:       0.588322445490
             Q1:  -11716.044188023545
 Quadratic coef:       0.016753752143
 Linear coef   :      -0.045109561072
           Qmin:  -11716.046196644071
Quadratic minimum step length (  0.792030557057) accepted
    Initial Ne1:    7233.99999179
      Final Ne1:    7234.00000000

=================== Penalty functional idempotency correction ==================
 RMS occupancy error at iteration   1:  0.000360 (step -0.4799 Ne1=   7234.0000)
 RMS occupancy error at iteration   2:  0.000002 (step -0.5000 Ne1=   7234.0000)
            Final RMS occupancy error   :  0.000000 (Ne1=   7234.0000)
               Final occupancy bounds   : [  0.0000,  1.0000]
================================================================================

    4        -1.171601583221E+04     4.2252E-05     3.8246E-05    -6.5321E-02
MG BCs: +ve charge blocks (gridpoints):     24456 (   16626072).
MG BCs: -ve charge blocks (gridpoints):      8409 (    1078587).
MG BCs:     Elided blocks (gridpoints):    185589 (  188515166).
MG BCs: Computational effort saved:  99.9841%.
MG BCs: Charge after coarse-graining:           -9.0006554.
MG DL_MG: Calling solver with defect correction order = 8
MG DL_MG: Solver finished
MG Hartree energy from (\int phi*rho dr):              1258.010751
MG Hartree energy from (\int eps (grad phi)^2 dr):     1257.360040
MG Discrepancy due to finite box and discretization:     -0.650711 (  -0.05173%)
MG Correction to account for finite box:                  0.464547
MG Remaining discrepancy, due to discretization:         -0.186164 (  -0.01480%)
      ideal mu1:      -0.722263384065
             Q0:  -11716.046087712515
             G0:      -0.081444544419
   RMS gradient:       0.000043603746
MG BCs: +ve charge blocks (gridpoints):     24455 (   16627629).
MG BCs: -ve charge blocks (gridpoints):      8407 (    1077990).
MG BCs:     Elided blocks (gridpoints):    185590 (  188514206).
MG BCs: Computational effort saved:  99.9841%.
MG BCs: Charge after coarse-graining:           -9.0006550.
MG DL_MG: Calling solver with defect correction order = 8
MG DL_MG: Solver finished
MG Hartree energy from (\int phi*rho dr):              1258.959066
MG Hartree energy from (\int eps (grad phi)^2 dr):     1258.308683
MG Discrepancy due to finite box and discretization:     -0.650383 (  -0.05166%)
MG Correction to account for finite box:                  0.464316
MG Remaining discrepancy, due to discretization:         -0.186068 (  -0.01478%)
     Trial step:       0.682619479821
             Q1:  -11716.079715822241
 Quadratic coef:       0.021967522820
 Linear coef   :      -0.055595632546
           Qmin:  -11716.081263212087
Quadratic minimum step length (  0.863790197913) accepted
    Initial Ne1:    7233.99998959
      Final Ne1:    7234.00000000

=================== Penalty functional idempotency correction ==================
 RMS occupancy error at iteration   1:  0.001362 (step -0.4305 Ne1=   7234.0000)
 RMS occupancy error at iteration   2:  0.000013 (step -0.4999 Ne1=   7234.0000)
            Final RMS occupancy error   :  0.000000 (Ne1=   7234.0000)
               Final occupancy bounds   : [ -0.0000,  1.0000]
================================================================================

    5        -1.171604608771E+04     4.3604E-05     3.9469E-05    -3.0255E-02
MG BCs: +ve charge blocks (gridpoints):     24457 (   16628078).
MG BCs: -ve charge blocks (gridpoints):      8407 (    1077802).
MG BCs:     Elided blocks (gridpoints):    185588 (  188513945).
MG BCs: Computational effort saved:  99.9841%.
MG BCs: Charge after coarse-graining:           -9.0006549.
MG DL_MG: Calling solver with defect correction order = 8
MG DL_MG: Solver finished
MG Hartree energy from (\int phi*rho dr):              1259.213825
MG Hartree energy from (\int eps (grad phi)^2 dr):     1258.563523
MG Discrepancy due to finite box and discretization:     -0.650303 (  -0.05164%)
MG Correction to account for finite box:                  0.464261
MG Remaining discrepancy, due to discretization:         -0.186042 (  -0.01477%)
      ideal mu1:      -0.723835018780
             Q0:  -11716.081307803281
             G0:      -0.077363911786
   RMS gradient:       0.000041825468
MG BCs: +ve charge blocks (gridpoints):     24455 (   16628015).
MG BCs: -ve charge blocks (gridpoints):      8408 (    1077914).
MG BCs:     Elided blocks (gridpoints):    185590 (  188513896).
MG BCs: Computational effort saved:  99.9841%.
MG BCs: Charge after coarse-graining:           -9.0006549.
MG DL_MG: Calling solver with defect correction order = 8
MG DL_MG: Solver finished
MG Hartree energy from (\int phi*rho dr):              1258.957797
MG Hartree energy from (\int eps (grad phi)^2 dr):     1258.307725
MG Discrepancy due to finite box and discretization:     -0.650071 (  -0.05164%)
MG Correction to account for finite box:                  0.464003
MG Remaining discrepancy, due to discretization:         -0.186069 (  -0.01478%)
     Trial step:       0.767880209130
             Q1:  -11716.115723414230
 Quadratic coef:       0.024990605811
 Linear coef   :      -0.059406216761
           Qmin:  -11716.116612055372
Quadratic minimum step length (  0.912680118594) accepted
    Initial Ne1:    7234.00000896
      Final Ne1:    7234.00000000

=================== Penalty functional idempotency correction ==================
 RMS occupancy error at iteration   1:  0.002920 (step -0.3725 Ne1=   7234.0000)
 RMS occupancy error at iteration   2:  0.000034 (step -0.4997 Ne1=   7234.0000)
            Final RMS occupancy error   :  0.000000 (Ne1=   7234.0000)
               Final occupancy bounds   : [ -0.0000,  1.0000]
================================================================================

    6        -1.171608130780E+04     4.1825E-05     3.7859E-05    -3.5220E-02
MG BCs: +ve charge blocks (gridpoints):     24456 (   16627993).
MG BCs: -ve charge blocks (gridpoints):      8408 (    1077924).
MG BCs:     Elided blocks (gridpoints):    185589 (  188513908).
MG BCs: Computational effort saved:  99.9841%.
MG BCs: Charge after coarse-graining:           -9.0006550.
MG DL_MG: Calling solver with defect correction order = 8
MG DL_MG: Solver finished
MG Hartree energy from (\int phi*rho dr):              1258.911155
MG Hartree energy from (\int eps (grad phi)^2 dr):     1258.261125
[...]
MG DL_MG: Calling solver with defect correction order = 8
MG DL_MG: Solver finished
MG Hartree energy from (\int phi*rho dr):              1215.835497
MG Hartree energy from (\int eps (grad phi)^2 dr):     1215.643791
MG Discrepancy due to finite box and discretization:     -0.191706 (  -0.01577%)
MG Correction to account for finite box:                  0.006222
MG Remaining discrepancy, due to discretization:         -0.185485 (  -0.01526%)
             Q2:  -11750.844823636697
  Cubic LS coeff:       1.043797363589
Predicted energy:  -11750.844823637068
Cubic minimum step length accepted
    Initial Ne1:    7234.00000000
      Final Ne1:    7234.00000000

=================== Penalty functional idempotency correction ==================
 RMS occupancy error at iteration   1:  0.000000 (step -0.5000 Ne1=   7234.0000)
            Final RMS occupancy error   :  0.000000 (Ne1=   7234.0000)
               Final occupancy bounds   : [  0.0000,  1.0000]
================================================================================

    7        -1.175084482363E+04     8.5253E-09     7.7169E-09    -1.3970E-09

Reusing previously generated solute cavity.
MG BCs: +ve charge blocks (gridpoints):     28918 (   18771719).
MG BCs: -ve charge blocks (gridpoints):      8419 (    1047146).
MG BCs:     Elided blocks (gridpoints):    181127 (  186400960).
MG BCs: Computational effort saved:  99.9819%.
MG BCs: Charge after coarse-graining:           -9.0009435.
MG DL_MG: Calling solver with defect correction order = 8
MG DL_MG: Solver finished
MG Hartree energy from (\int phi*rho dr):              1215.835479
MG Hartree energy from (\int eps (grad phi)^2 dr):     1215.643772
MG Discrepancy due to finite box and discretization:     -0.191706 (  -0.01577%)
MG Correction to account for finite box:                  0.006222
MG Remaining discrepancy, due to discretization:         -0.185485 (  -0.01526%)
      ideal mu1:      -0.481574180016
             Q0:  -11750.844823637395
             G0:      -0.000000003307
   RMS gradient:       0.000000007876

Reusing previously generated solute cavity.
MG BCs: +ve charge blocks (gridpoints):     28918 (   18771719).
MG BCs: -ve charge blocks (gridpoints):      8419 (    1047146).
MG BCs:     Elided blocks (gridpoints):    181127 (  186400960).
MG BCs: Computational effort saved:  99.9819%.
MG BCs: Charge after coarse-graining:           -9.0009435.
MG DL_MG: Calling solver with defect correction order = 8
MG DL_MG: Solver finished
MG Hartree energy from (\int phi*rho dr):              1215.835464
MG Hartree energy from (\int eps (grad phi)^2 dr):     1215.643758
MG Discrepancy due to finite box and discretization:     -0.191706 (  -0.01577%)
MG Correction to account for finite box:                  0.006222
MG Remaining discrepancy, due to discretization:         -0.185485 (  -0.01526%)
     Trial step:       0.629490298787
             Q1:  -11750.844823637861
 Quadratic coef:       0.000000001615
 Linear coef   :      -0.000000002082
           Qmin:  -11750.844823638066
Quadratic minimum step length (  0.405637439444) accepted
    Initial Ne1:    7234.00000000
      Final Ne1:    7234.00000000

=================== Penalty functional idempotency correction ==================
 RMS occupancy error at iteration   1:  0.000000 (step -0.5000 Ne1=   7234.0000)
            Final RMS occupancy error   :  0.000000 (Ne1=   7234.0000)
               Final occupancy bounds   : [  0.0000,  1.0000]
================================================================================

    8        -1.175084482364E+04     7.8759E-09     7.1290E-09    -3.3760E-09

Reusing previously generated solute cavity.
MG BCs: +ve charge blocks (gridpoints):     28918 (   18771719).
MG BCs: -ve charge blocks (gridpoints):      8419 (    1047146).
MG BCs:     Elided blocks (gridpoints):    181127 (  186400960).
MG BCs: Computational effort saved:  99.9819%.
MG BCs: Charge after coarse-graining:           -9.0009435.
MG DL_MG: Calling solver with defect correction order = 8
MG DL_MG: Solver finished
MG Hartree energy from (\int phi*rho dr):              1215.835469
MG Hartree energy from (\int eps (grad phi)^2 dr):     1215.643763
MG Discrepancy due to finite box and discretization:     -0.191706 (  -0.01577%)
MG Correction to account for finite box:                  0.006222
MG Remaining discrepancy, due to discretization:         -0.185485 (  -0.01526%)
      ideal mu1:      -0.481574168279
             Q0:  -11750.844823637744
             G0:      -0.000000001549
   RMS gradient:       0.000000004615

Reusing previously generated solute cavity.
MG BCs: +ve charge blocks (gridpoints):     28918 (   18771719).
MG BCs: -ve charge blocks (gridpoints):      8419 (    1047146).
MG BCs:     Elided blocks (gridpoints):    181127 (  186400960).
MG BCs: Computational effort saved:  99.9819%.
MG BCs: Charge after coarse-graining:           -9.0009435.
MG DL_MG: Calling solver with defect correction order = 8
MG DL_MG: Solver finished
MG Hartree energy from (\int phi*rho dr):              1215.835486
MG Hartree energy from (\int eps (grad phi)^2 dr):     1215.643780
MG Discrepancy due to finite box and discretization:     -0.191706 (  -0.01577%)
MG Correction to account for finite box:                  0.006222
MG Remaining discrepancy, due to discretization:         -0.185485 (  -0.01526%)
     Trial step:       0.505316567070
             Q1:  -11750.844823637628
 Quadratic coef:       0.000000000899
 Linear coef   :      -0.000000000783
           Qmin:  -11750.844823637915
Quadratic minimum step length (  0.220135385986) accepted
    Initial Ne1:    7234.00000000
      Final Ne1:    7234.00000000

=================== Penalty functional idempotency correction ==================
 RMS occupancy error at iteration   1:  0.000000 (step -0.5000 Ne1=   7234.0000)
            Final RMS occupancy error   :  0.000000 (Ne1=   7234.0000)
               Final occupancy bounds   : [ -0.0000,  1.0000]
================================================================================

    9        -1.175084482364E+04     4.6147E-09     4.1771E-09    -3.4925E-10

Reusing previously generated solute cavity.
MG BCs: +ve charge blocks (gridpoints):     28918 (   18771719).
MG BCs: -ve charge blocks (gridpoints):      8419 (    1047146).
MG BCs:     Elided blocks (gridpoints):    181127 (  186400960).
MG BCs: Computational effort saved:  99.9819%.
MG BCs: Charge after coarse-graining:           -9.0009435.
MG DL_MG: Calling solver with defect correction order = 8
MG DL_MG: Solver finished
MG Hartree energy from (\int phi*rho dr):              1215.835477
MG Hartree energy from (\int eps (grad phi)^2 dr):     1215.643771
MG Discrepancy due to finite box and discretization:     -0.191706 (  -0.01577%)
MG Correction to account for finite box:                  0.006222
MG Remaining discrepancy, due to discretization:         -0.185485 (  -0.01526%)
      ideal mu1:      -0.481574171697
   10        -1.175084482364E+04     3.8187E-09     3.4566E-09     0.0000E+00
Finished density kernel iterations (  10)

Writing density kernel to file "complex_32401.dkn" ... done


>>> Density kernel optimised for the current NGWF basis:
     ~~~~~~~~~~~~~~~~~~~~~~~~~~~~~~~~~~~~~~~~~~~~~~~~~~~~~~~~~~~
     Total energy                =  -1.17508448236377E+04  Eh
     Estimated bandgap           =   1.0094E-01  Eh
     RMS occupancy error         =   5.0628E-16
     [H,K] commutator            =   3.4566E-09
     Occupancy bounds            = [ -0.000:  1.000]
     ~~~~~~~~~~~~~~~~~~~~~~~~~~~~~~~~~~~~~~~~~~~~~~~~~~~~~~~~~~~




################################################################################
########################### NGWF CG iteration  004 #############################
################################################################################
****** Reciprocal space K.E. preconditioning with k_zero =  3.5000 a0^-1 *******

>>> Checking for convergence of NGWFs: 
           ........................................................
           |         *** NGWF optimisation converged ***          |
           | RMS NGWF gradient =    0.00000197235256              |
           | Criteria satisfied:                                  |
           | -> RMS NGWF gradient lower than set threshold.       |
           ========================================================

Reusing previously generated solute cavity.
MG BCs: +ve charge blocks (gridpoints):     28918 (   18771719).
MG BCs: -ve charge blocks (gridpoints):      8419 (    1047146).
MG BCs:     Elided blocks (gridpoints):    181127 (  186400960).
MG BCs: Computational effort saved:  99.9819%.
MG BCs: Charge after coarse-graining:           -9.0009435.
MG DL_MG: Calling solver with defect correction order = 8
MG DL_MG: Solver finished
MG Hartree energy from (\int phi*rho dr):              1215.835477
MG Hartree energy from (\int eps (grad phi)^2 dr):     1215.643771
MG Discrepancy due to finite box and discretization:     -0.191706 (  -0.01577%)
MG Correction to account for finite box:                  0.006222
MG Remaining discrepancy, due to discretization:         -0.185485 (  -0.01526%)

================================================================================
           ---------------- ENERGY COMPONENTS (Eh) ----------------
           | Kinetic                    :     8582.42589176498586 |
           | Pseudo. (local,OBC,corr'd) :    -5084.82202671059440 |
           | Pseudopotential (non-local):     1412.69665190935007 |
           | Hartree (molecular)        :     1215.83547672591590 |
           | Exchange-correlation       :    -3377.84964394851431 |
           | Ion-ion (open BC)          :   840695.76877123408485 |
           | Dispersion Correction      :       -3.29366785515215 |
           | Smeared ion non-self corr. :  -840647.31563541898504 |
           | Smeared ion self corr.     :   -14544.93686558573609 |
           | Solvent cavitation energy  :        2.29911677269086 |
           | Solute-solvent dis-rep en. :       -1.65289252580678 |
           | Total                      :   -11750.84482363774805 |
           --------------------------------------------------------
           ------ LOCAL ENERGY COMPONENTS FROM MATRIX TRACES ------
           | Pseudopotential (local)    :    -5084.82202671059531 |
           | Hartree                    :    -2003.19757929132857 |
           --------------------------------------------------------
           Integrated density           :     7233.99999999737975
           Integrated density tr(KS)    :     7234.00000000000091
================================================================================


                        <<<<< CALCULATION SUMMARY >>>>>                         
|ITER|    RMS GRADIENT   |     TOTAL ENERGY    |   step   |     Epredicted              
   0     0.00003960228681 -11750.78392889350653   0.615371 -11750.83648741945763        
   1     0.00001016782342 -11750.84420543338638   0.091538 -11750.84472080723936        
   2     0.00000445160754 -11750.84480334783439   0.016450 -11750.84482110051795        
   3     0.00000197235256 -11750.84482363774441  <-- CG                                 

=================== Finished the calculation in solvent ========================
= Adjusting the following parameters: 
= read_denskern: F
= read_tightbox_ngwfs: F
= maxit_pen: 0 (restored to user-specified value)
= restart read filename prefix: ""
= restart write filename prefix: ""
================================================================================

================================================================================
IS: Calculation in solvent completed (NGWFs converged).      

Individual components of total energy in solvent:     hartree           kcal/mol
- Usual non-electrostatic DFT terms:    -12967.32652461054386    -8137120.070927
- Electrostatic fixed charge energy:      1215.83547672591590      762948.263995
- Apolar cavitation energy:                  2.29911677269086        1442.717526
- Apolar dispersion-repulsion energy:       -1.65289252580678       -1037.205697
 -------------------------------------------------------------------------------
- Total energy in solvent:              -11750.84482363774441    -7373766.295103

Components of total energy in solvent:                hartree           kcal/mol
- Usual non-electrostatic DFT terms:    -12967.32652461054386    -8137120.070927
- Electrostatic energy:                   1215.83547672591590      762948.263995
- Apolar energy terms:                       0.64622424688408         405.511828
 -------------------------------------------------------------------------------
- Total energy in solvent:              -11750.84482363774441    -7373766.295103

Calculation of free energy of solvation:              hartree           kcal/mol
- Total energy in solvent:         (+)  -11750.84482363774441    -7373766.295103
- Total energy in vacuum:          (-)  -11747.10554195742588    -7371419.860474
 -------------------------------------------------------------------------------
- Total free energy of solvation:           -3.73928168031853       -2346.434630

Components of polar term in f.e. of solvation:        hartree           kcal/mol
- Electrostatic:                            -4.61612314853755       -2896.660946
- Change in nonelectrostatic DFT terms:      0.23061722133571         144.714488
 -------------------------------------------------------------------------------
- Polar term in f.e. of solvation:          -4.38550592720185       -2751.946458

Components of free energy of solvation:               hartree           kcal/mol
- Polar term in f.e. of solvation: (+)      -4.38550592720185       -2751.946458
- Apolar (cavitation, dis., rep.): (+)       0.64622424688408         405.511828
 -------------------------------------------------------------------------------
- Total free energy of solvation:           -3.73928168031776       -2346.434630
================================================================================


------------------------------ TIMING INFORMATION ------------------------------
AVERAGE TIME:   37312.317s on     30 node(s)                                    
TOTAL TIME:     37312.319s on     30 node(s)                                    
================= AVERAGE TIMINGS FROM ALL NODES (CUMULATIVE) ==================
|| TAG                                    #calls    cpu time   %total  Gflops ||
|| work_imbalance                       :     1        0.00s   0.000%  ------ ||
|| parallel_prepare_fd_halos_request    :  2073        0.05s   0.000%  ------ ||
|| sparse_set_to_garbage                :   194        0.05s   0.000%  ------ ||
|| parallel_prepare_fd_halos_alloc      :  2073        0.06s   0.000%  ------ ||
|| ngwfs_initialise_from_radial         :     1        0.22s   0.001%  ------ ||
|| basis_extract_function_from_box      :  7639        0.30s   0.001%  ------ ||
|| parallel_prepare_fd_halos_satisfy    :  2073        0.77s   0.002%  ------ ||
|| pseudopotentials_nonlocal_mat        :    33        0.80s   0.002%  ------ ||
|| restart_ngwfs_tightbox_input         :     1        2.11s   0.006%  ------ ||
|| restart_kernel_read                  :     1        3.65s   0.010%  ------ ||
|| density_init_guess_real              :     1        4.22s   0.011%  ------ ||
|| parallel_prepare_fd_halos_comms_imbal:  2073        6.33s   0.017%  ------ ||
|| openbc_locps_radial                  :     1        8.59s   0.023%  ------ ||
|| parallel_prepare_fd_halos_clear      :  2073       14.71s   0.039%  ------ ||
|| sparse_init                          :     2       23.99s   0.064%  ------ ||
|| projectors_func_ovlp_box             :    33       29.40s   0.079%  ------ ||
|| parallel_prepare_fd_halos_comms_wait :  2073       30.39s   0.081%  ------ ||
|| restart_kernel_write                 :    18       32.10s   0.086%  ------ ||
|| function_ops_brappd_ketppd           :    33       32.43s   0.087%  ------ ||
|| projectors_init_fftbox_recip         :   271       35.97s   0.096%  ------ ||
|| palser_mano_kernel_optimise          :     1       38.29s   0.103%  ------ ||
|| parallel_prepare_fd_halos            :  2073       52.32s   0.140%  ------ ||
|| basis_copy_function_to_box           : 124.6k      53.61s   0.144%  ------ ||
|| restart_ngwfs_tightbox_output        :    15       61.53s   0.165%  ------ ||
|| fourier_apply_box_pair               : 11026       66.66s   0.179% 478.837 ||
|| ngwf_gradient_coeffs                 :    17       75.37s   0.202%  ------ ||
|| sparse_embed_hotelling_invert_embed  :    33      103.05s   0.276%  ------ ||
|| pseudo_make_structure_factor         :     2      127.08s   0.341%  ------ ||
|| finite_difference_derivative         :  2073      144.16s   0.386%  ------ ||
|| sparse_trace                         :  5801      149.11s   0.400%  ------ ||
|| integrals_kinetic                    :    33      212.43s   0.569%  ------ ||
|| projectors_gradient_batch            :   238      273.40s   0.733%  ------ ||
|| fourier_apply_cell_backward          :  1383      311.79s   0.836%  64.993 ||
|| fourier_apply_cell_forward           :  1381      312.81s   0.838%  64.687 ||
|| openbc_locps_on_grid                 :     2      325.57s   0.873%  ------ ||
|| basis_dot_function_with_box          : 19.16M     348.45s   0.934%  ------ ||
|| kernel_purify                        :   527      401.75s   1.077%  ------ ||
|| hamiltonian_energy_components        :     4      562.55s   1.508%  ------ ||
|| lnv_gradient_norm                    :   170      597.88s   1.602%  ------ ||
|| basis_add_function_to_box            : 40.02M     719.53s   1.928%  ------ ||
|| kernel_fix                           :   170      719.95s   1.930%  ------ ||
|| xc_energy_potential                  :   345      745.89s   1.999%  ------ ||
|| ngwf_gradient_build_batch            :   238     1088.88s   2.918%  ------ ||
|| cell_grid_extract_box_real           : 66218     1225.51s   3.284%  ------ ||
|| cell_grid_deposit_box_real           : 77496     1286.07s   3.447%  ------ ||
|| integrals_locpot_mat_els_batch       :  2506     1374.71s   3.684%  ------ ||
|| ngwf_gradient_batch                  :   238     1485.80s   3.982%  ------ ||
|| density_batch_row_sums               :  4816     1582.97s   4.242%  ------ ||
|| ngwf_gradient_lnv                    :    17     1765.71s   4.732%  ------ ||
|| density_fftbox_deposit_to_cell       : 75336     2505.23s   6.714%  ------ ||
|| sparse_product                       :  7156     2542.59s   6.814%  ------ ||
|| multigrid_prepare_bound_cond         :   345     3792.01s  10.163%  ------ ||
|| potential_apply_to_ngwf_batch        :  2506     4622.36s  12.388%  ------ ||
|| density_fftbox_interpolate_multiply  : 75336     5243.77s  14.054%  ------ ||
|| integrals_locpot_dbl_grid            :   179     6004.71s  16.093%  ------ ||
|| fourier_apply_box                    : 259.4k    6294.45s  16.870% 578.315 ||
|| density_batch_interp_deposit         :  4816     8460.57s  22.675%  ------ ||
|| dl_mg_solver_calls                   :   345     9144.11s  24.507%  ------ ||
|| density_on_dbl_grid                  :   344    11097.74s  29.743%  ------ ||
|| multigrid_calculate_hartree          :   345    13138.01s  35.211%  ------ ||
|| hamiltonian_lhxc_calculate           :   340    24835.53s  66.561%  ------ ||
|| lnv_denskernel_optimise_cg           :    17    31916.87s  85.540%  ------ ||
|| ngwf_cg_optimise                     :     2    36019.81s  96.536%  ------ ||
|| total_time                           :     1    37312.32s 100.000%  ------ ||
================================================================================
Overhead of generating timer report: 
- 1 ms averaging over threads,
- 5 ms ensuring consistency across MPI ranks,
- 0 ms printing in order.

Job completed: 08-01-2020 22:10 (-0000)

