 +---------------------------------------------------------------+
 |                                                               |
 |        ####### #     # ####### ####### ####### ######         |
 |        #     # ##    # #          #    #       #     #        |
 |        #     # # #   # #          #    #       #     #        |
 |        #     # #  #  # #####      #    #####   ######         |
 |        #     # #   # # #          #    #       #              |
 |        #     # #    ## #          #    #       #              |
 |        ####### #     # #######    #    ####### #              |
 |                                                               |
 |        Linear-Scaling Ab Initio Total Energy Program          |
 |                                                               |
 |          Release for academic collaborators of ODG            |
 |                                             Version 5.3.2.6.  |
 |                                                               |
 +---------------------------------------------------------------+
 |                                                               |
 |  Authors:                                                     |
 |  Jacek Dziedzic, Peter D. Haynes, Nicholas D. M. Hine,        |
 |  Arash. A. Mostofi, Mike C. Payne and Chris-Kriton Skylaris   |
 |                                                               |
 |  Contributors:                                                |
 |  J. Aarons, L. Andrinopoulos, P. W. Avraam, R. A. Bell,       |
 |  A. Bhandari, G. A. Bramley, R. J. Charlton, S. J. Clark,     |
 |  R. J. Clements, G. C. Constantinescu, F. Corsetti,           |
 |  N. Corsini, O. Dieguez, S. M. M. Dubois, K. K. B. Duff,      |
 |  J. M. Escartin, A. Greco, H. Helal, Q. O. Hill, L. P. Lee,   |
 |  J.-H. Li, E. B. Linscott, G. Moynihan, D. D. O`Regan,        |
 |  O. K. Okan, M. J. S. Phipps, C. J. Pickard,                  |
 |  J. C. A. Prentice, M. I. J. Probert, L. E. Ratcliff,         |
 |  M. Robinson, A. Ruiz Serrano, J. S. Spencer, E. W. Tait,     |
 |  G. Teobaldi, D. Turban, V. Vitale, K. A. Wilkinson,          |
 |  C. Weber, J. C. Womack, N. Yeung and T. J. Zuehlsdorff       |
 |                                                               |
 |                                   Copyright (c) 2004-2019     |
 |                                                               |
 |  Please cite:                                                 |
 |  "Introducing ONETEP: Linear-scaling density functional       |
 |   simulations on parallel computers".                         |
 |   C.-K. Skylaris, P. D. Haynes, A. A. Mostofi, M. C. Payne.   |
 |   J. Chem. Phys. 122 084119 (2005).                           |
 |                                                               |
 |          in all publications arising from your use of ONETEP. |
 |                                                               |
 +---------------------------------------------------------------+
 |                                                               |
 |   ONETEP is based on developments described in the following  |
 |   publications:                                               |
 |                                                               |
 |  "Nonorthogonal generalized Wannier function pseudopotential  |
 |   plane-wave method".                                         |
 |   C.-K. Skylaris, A. A. Mostofi, P. D. Haynes, O. Dieguez,    |
 |   M. C. Payne.                                                |
 |   Phys. Rev. B 66 035119 (2002).                              |
 |                                                               |
 |  "Preconditioned iterative minimization for linear-scaling    |
 |   electronic structure calculations".                         |
 |   A. A. Mostofi, P. D. Haynes, C.-K. Skylaris, M. C. Payne.   |
 |   J. Chem. Phys. 119(17), pp.8842-8848 (2003).                |
 |                                                               |
 |  "Total-energy calculations on a real space grid with         |
 |   localized functions and a plane-wave basis".                |
 |   A. A. Mostofi, C.-K. Skylaris, P. D. Haynes, M. C. Payne.   |
 |   Comput. Phys. Commun. 147, pp.788-802 (2002).               |
 |                                                               |
 |  "Accurate kinetic energy evaluation in electronic structure  |
 |   calculations with localized functions on real space grids"  |
 |   C.-K. Skylaris, A. A. Mostofi, P. D. Haynes, C. J. Pickard, |
 |   M. C. Payne.                                                |
 |   Comput. Phys. Commun. 140, pp.315-322 (2001).               |
 |                                                               |
 |  "Accurate ionic forces and geometry optimization in linear-  |
 |   scaling density-functional theory with local orbitals"      |
 |   N. D. M. Hine, M. Robinson, P. D. Haynes, C.-K. Skylaris,   |
 |   M. C. Payne, and A. A. Mostofi.                             |
 |   Phys. Rev. B 83 195102 (2011).                              |
 |                                                               |
 +---------------------------------------------------------------+

Job started: 02-05-2020 07:59 (+0100)
 
Reading parameters from file "complex_30501.dat" ...... done

If your calculation crashes here, before "Checking processes and threads..."
is displayed, then your stack size is insufficient.
If so, use "ulimit -s unlimited" at runtime.
You can disable this check with "check_stack_size F".

Checking processes and threads...
   Determining the default number of threads...
      No default threads set at compilation time: defaulting to 1.
      OpenMP library call suggests 4 threads.
      Hybrid MPI-OpenMP compilation detected.
      Number of MPI processes > 1.
      OMP_NUM_THREADS environment variable present and
      its value matches the one obtained from the OpenMP library call.
      Using this value as default.
      Default threads: 4
      Default applies to threads_max and threads_num_fftboxes.
      Settings in the input file override this default.
   ... done

   Running with 60 MPI processes.
   There are 6 MPI processes running on the same node as the root process.
   Each MPI process is using: 
               1 threads for simulation cell FFTs.
               1 threads for parallel FFT box operations.
               4 threads for loops over batched FFT box operations.
               4 threads in other parallel regions.
... done

Basic input checks...... done

Reading geometry and species blocks from file "complex_30501.dat" ...
  <species_atomic_set> block not found: NGWF initialisation set to SOLVE
IS: Dielectric excluded regions:
    - NONE.
    
  Number of PPD points along a3 set to 1.  This is 
  the default value, it may have been provided also in the input file.
... done
 Writing xyz coordinates to file "complex_30501.xyz" ... done


--------------------------------------------------------------------------------
---------------------------------- INPUT FILE ----------------------------------
--------------------------------------------------------------------------------

cutoff_energy       : 800 eV                                                    
xc_functional PBE                                                               
task SINGLEPOINT                                                                
write_xyz true                                                                  
output_detail VERBOSE                                                           
ngwf_threshold_orig : 0.000002                                                  
kernel_cutoff       : 1000                                                      
k_zero              : 3.5                                                       
elec_cg_max 0                                                                   
occ_mix 1.0                                                                     
dispersion 1                                                                    
maxit_ngwf_cg 40                                                                
minit_lnv 10                                                                    
maxit_lnv 10                                                                    
write_denskern T                                                                
write_tightbox_ngwfs T                                                          
charge 9                                                                        
is_implicit_solvent T                                                           
is_auto_solvation T                                                             
is_include_apolar T                                                             
is_smeared_ion_rep T                                                            
is_solvent_surf_tension 4.7624E-5 Ha/bohr**2                                    
is_apolar_scaling_factor 0.281075                                               
is_solvation_beta 1.3                                                           
is_density_threshold 0.00035                                                    
is_bulk_permittivity 78.54                                                      
is_dielectric_model fix_initial                                                 
is_smeared_ion_width 0.8                                                        
mg_defco_fd_order 8                                                             
is_bc_coarseness 10                                                             
is_bc_surface_coarseness 1                                                      
fine_grid_scale 2.0                                                             
%block species                                                                  
N   N   7 4 8.0                                                                 
H   H   1 1 8.0                                                                 
C   C   6 4 8.0                                                                 
S   S  16 9 8.0                                                                 
O   O   8 4 8.0                                                                 
F   F   9 9 8.0                                                                 
%endblock species                                                               
%block species_pot                                                              
N   N_00.recpot                                                                 
H   H_04.recpot                                                                 
C   C_01.recpot                                                                 
S   S_00.recpot                                                                 
O   O_02.recpot                                                                 
F   F_00.recpot                                                                 
%endblock species_pot                                                           
%block lattice_cart                                                             
139.898   0.000   0.000                                                         
0.000 144.87   0.000                                                            
0.000   0.000   168.12                                                          
%endblock lattice_cart                                                          
%block positions_abs                                                            
     Hash =   000005586800325513660429
%endblock positions_abs                                                         

--------------------------------------------------------------------------------
-------------------------------- END INPUT FILE --------------------------------
--------------------------------------------------------------------------------


 
 ESDF WARNING(1): "kernelcutoff" (esdf_physical) has no units. Assume "bohr".
 ESDF WARNING(2): "kzero" (esdf_physical) has no units. Assume "1/bohr".
 ESDF WARNING(3
 ): "issmearedionwidth" (esdf_physical) has no units. Assume "bohr".
<<<<<<<<<<<<<<<<<<<<<<<<<<<<<<<<< Full system >>>>>>>>>>>>>>>>>>>>>>>>>>>>>>>>>>
WARNING in pseudopotentials_read_species: string "LDA" found in pseudopotential
file "F_00.recpot", yet xc_functional = "PBE".
 
<<<<<<<<<<<<<<<<<<<<<<<<< Pseudopotential information >>>>>>>>>>>>>>>>>>>>>>>>>>
File: N_00.recpot [ 2001 points up to Gmax=  52.9 (1/bohr)]
  Atomic number:  7;  ionic charge:  5.000000
    Shell 1: l = 0; rc = 1.48 bohr
File: H_04.recpot [ 2001 points up to Gmax=  52.9 (1/bohr)]
  Atomic number:  1;  ionic charge:  1.000000
    Local potential
File: C_01.recpot [ 2001 points up to Gmax=  52.9 (1/bohr)]
  Atomic number:  6;  ionic charge:  4.000000
    Shell 1: l = 0; rc = 1.48 bohr
File: S_00.recpot [ 2001 points up to Gmax=  52.9 (1/bohr)]
  Atomic number: 16;  ionic charge:  6.000000
    Shell 1: l = 0; rc = 1.90 bohr
    Shell 2: l = 2; rc = 1.84 bohr
File: O_02.recpot [ 2001 points up to Gmax=  52.9 (1/bohr)]
  Atomic number:  8;  ionic charge:  6.000000
    Shell 1: l = 0; rc = 1.31 bohr
File: F_00.recpot [ 2001 points up to Gmax=  52.9 (1/bohr)]
  Atomic number:  9;  ionic charge:  7.000000
    Shell 1: l = 0; rc = 1.60 bohr
<<<<<<<<<<<<<<<<<<<<<<<<<<<<<<<<<<<<<<<<>>>>>>>>>>>>>>>>>>>>>>>>>>>>>>>>>>>>>>>>

-------------------------- Atom counting information ---------------------------
Symbol    Natoms    Nngwfs    Nprojs
  N        237       948       237
  H       1317      1317         0
  C        816      3264       816
  S          6        54        36
  O        239       956       239
  F          1         9         1
.......   ......    ......    ......
Totals:   2616      6548      1329
--------------------------------------------------------------------------------

=============================== PSINC grid sizes ===============================
                      Simulation cell:  275 x 286 x 336
                              FFT-box:   99 x  99 x  99
                                  PPD:    5 x  11 x   1
Grid space d1=  0.508720000000a0 (KE cutoff=  29.35259Eh = 798.72452eV)
Grid space d2=  0.506538461538a0 (KE cutoff=  29.60596Eh = 805.61916eV)
Grid space d3=  0.500357142857a0 (KE cutoff=  30.34197Eh = 825.64705eV)
================================================================================

********************* Fourier parallelisation information **********************
       Coarse grid (whole simulation cell) dimensions:    275   286   336
          Real-space ('12') slabs/node (min max mean):      5     6     5
         Recip-space ('23') slabs/node (min max mean):      2     3     2
********************************************************************************

********************* Fourier parallelisation information **********************
       Double grid (whole simulation cell) dimensions:    550   572   672
          Real-space ('12') slabs/node (min max mean):     11    12    11
         Recip-space ('23') slabs/node (min max mean):      4     5     4
********************************************************************************
ONETEP fine grid is 550 x 572 x 672 gridpoints, 139.8980 x 144.8700 x 168.1200 bohr.
FD multigrid is     545 x 569 x 665 gridpoints, 138.6262 x 144.1102 x 166.3688 bohr.


Calculating local pseudopotential in open BC on a radial grid ...
Discrepancy between calculated realspace psloc and -Z/x on [5a0,262.342a0]:
max |rel. diff| # avg |rel. diff| #  avg rel. diff #  f # pseudopotential file
 0.000258413739    0.000003708905   0.000000070960   56  'N_00.recpot'
 0.000398954828    0.000016185045  -0.000000074508   56  'H_04.recpot'
 0.000375346405    0.000017198923   0.000000144535   56  'C_01.recpot'
 0.000466850533    0.000020125278   0.000000461745   56  'S_00.recpot'
 0.000671508953    0.000026045986   0.000000155458   56  'O_02.recpot'
 0.002873965647    0.000134299806   0.000000884984   56  'F_00.recpot'
... done

Atom SCF Calculation for N  : Z (AE atom) =   7 : Z (PS atom) =   5
Config String:
Orbitals (num,occ):  2     2.00 3.00
Orbitals   (num,l):  2        0    1
Real-space Grid (nr,dr,rmax): 1203    0.0066555740    8.0000000000
Spherical Bessel Basis (nsws,lmax,cutoff):   47    1  176.3951722778
Confining potential (l,width,scale):  0    3.0000000000  100.0000000000
Confining potential (l,width,scale):  1    3.0000000000  100.0000000000
  1         -4.7312375307   -3.4155304497    7.0523828109   -1.9351020946
  2         -9.7309464766   -2.0532547791    8.2966052865   -2.2494486027
  3         -9.6627394379   -2.1124926340    8.2327997121   -2.2369778124
  4         -9.6814993499   -2.1215521045    8.2229805960   -2.2365178421
  5         -9.6843326483   -2.1250939529    8.2191374534   -2.2362718126
  6         -9.6859628709   -2.1267894855    8.2172963573   -2.2362066344
  7         -9.6867347035   -2.1276425665    8.2163697352   -2.2361903369
  8         -9.6870802100   -2.1280764625    8.2158983890   -2.2361891460
  9         -9.6872290423   -2.1282977424    8.2156580222   -2.2361920435
 10         -9.6872901988   -2.1284107021    8.2155353368   -2.2361953393
 11         -9.6873135296   -2.1284684031    8.2154726809   -2.2361979819
 12         -9.6873212476   -2.1284978948    8.2154406648   -2.2361998431
 13         -9.6873229586   -2.1285129774    8.2154242957   -2.2362010676
 14         -9.6873226456   -2.1285206957    8.2154159216   -2.2362018403
 15         -9.6873218534   -2.1285246479    8.2154116349   -2.2362023142
 16         -9.6873212599   -2.1285262679    8.2154098784   -2.2362025420
 17         -9.6873207834   -2.1285272564    8.2154088068   -2.2362026955
 18         -9.6873204210   -2.1285278596    8.2154081529   -2.2362027982
 19         -9.6873201550   -2.1285282280    8.2154077538   -2.2362028667
 20         -9.6873199645   -2.1285284529    8.2154075102   -2.2362029121
 21         -9.6873198305   -2.1285285903    8.2154073614   -2.2362029421
 22         -9.6873197377   -2.1285286742    8.2154072705   -2.2362029618
Atom SCF converged after  22 iterations to a total energy of     -9.68731974

Atom SCF Calculation for H  : Z (AE atom) =   1 : Z (PS atom) =   1
Config String:
Orbitals (num,occ):  1     1.00
Orbitals   (num,l):  1        0
Real-space Grid (nr,dr,rmax): 1203    0.0066555740    8.0000000000
Spherical Bessel Basis (nsws,lmax,cutoff):   47    0  176.3951722778
Confining potential (l,width,scale):  0    3.0000000000  100.0000000000
  1         -0.3194257691   -0.2393854593    0.2820953124   -0.2424203209
  2         -0.3951823392   -0.2377116493    0.2886404059   -0.2475147891
  3         -0.4317044583   -0.2352244387    0.2921333887   -0.2514046172
  4         -0.4470703708   -0.2341892222    0.2934391879   -0.2531009782
  5         -0.4532132900   -0.2338556667    0.2938388426   -0.2537313520
  6         -0.4556579251   -0.2337612552    0.2939448584   -0.2539550462
  7         -0.4566418315   -0.2337377355    0.2939680120   -0.2540342273
  8         -0.4570437922   -0.2337331116    0.2939708287   -0.2540627372
  9         -0.4572102946   -0.2337328328    0.2939698291   -0.2540732650
 10         -0.4572800424   -0.2337332404    0.2939687193   -0.2540772588
 11         -0.4573095100   -0.2337335791    0.2939680317   -0.2540788122
 12         -0.4573220379   -0.2337337762    0.2939676699   -0.2540794294
 13         -0.4573273880   -0.2337338775    0.2939674931   -0.2540796787
 14         -0.4573296803   -0.2337339266    0.2939674099   -0.2540797808
 15         -0.4573306647   -0.2337339495    0.2939673718   -0.2540798230
 16         -0.4573310882   -0.2337339601    0.2939673545   -0.2540798406
 17         -0.4573312706   -0.2337339649    0.2939673467   -0.2540798479
 18         -0.4573313493   -0.2337339670    0.2939673433   -0.2540798510
Atom SCF converged after  18 iterations to a total energy of     -0.45733135

Atom SCF Calculation for C  : Z (AE atom) =   6 : Z (PS atom) =   4
Config String:
Orbitals (num,occ):  2     2.00 2.00
Orbitals   (num,l):  2        0    1
Real-space Grid (nr,dr,rmax): 1203    0.0066555740    8.0000000000
Spherical Bessel Basis (nsws,lmax,cutoff):   47    1  176.3951722778
Confining potential (l,width,scale):  0    3.0000000000  100.0000000000
Confining potential (l,width,scale):  1    3.0000000000  100.0000000000
  1         -5.2976922011   -1.3069684169    4.5135249990   -1.4493313817
  2         -5.3721716256   -1.3429755895    4.4750154450   -1.4361613026
  3         -5.3809959565   -1.3617365618    4.4541655428   -1.4305930207
  4         -5.3918938866   -1.3667928461    4.4484735100   -1.4294652294
  5         -5.3956096428   -1.3688539142    4.4461376126   -1.4290734646
  6         -5.3968271862   -1.3696852393    4.4451910874   -1.4289366866
  7         -5.3972028401   -1.3700178062    4.4448112275   -1.4288900460
  8         -5.3973067903   -1.3701500158    4.4446598370   -1.4288749220
  9         -5.3973286940   -1.3702023868    4.4445997329   -1.4288704293
 10         -5.3973289850   -1.3702230869    4.4445759233   -1.4288693188
 11         -5.3973254264   -1.3702312560    4.4445665049   -1.4288691775
 12         -5.3973224003   -1.3702344755    4.4445627836   -1.4288692549
 13         -5.3973208708   -1.3702354890    4.4445616088   -1.4288693270
 14         -5.3973198783   -1.3702360102    4.4445610034   -1.4288693814
 15         -5.3973192535   -1.3702362780    4.4445606917   -1.4288694190
 16         -5.3973188684   -1.3702364155    4.4445605313   -1.4288694437
 17         -5.3973186349   -1.3702364860    4.4445604489   -1.4288694595
 18         -5.3973184951   -1.3702365221    4.4445604065   -1.4288694693
 19         -5.3973184122   -1.3702365405    4.4445603848   -1.4288694753
Atom SCF converged after  19 iterations to a total energy of     -5.39731841

Atom SCF Calculation for S  : Z (AE atom) =  16 : Z (PS atom) =   6
Config String:
Orbitals (num,occ):  3     2.00 4.00 0.00
Orbitals   (num,l):  3        0    1    2
Real-space Grid (nr,dr,rmax): 1203    0.0066555740    8.0000000000
Spherical Bessel Basis (nsws,lmax,cutoff):   47    2  176.3951722778
Confining potential (l,width,scale):  0    3.0000000000  100.0000000000
Confining potential (l,width,scale):  1    3.0000000000  100.0000000000
Confining potential (l,width,scale):  2    3.0000000000  100.0000000000
  1        -12.4735062396   -1.0328741412   10.1554312477   -2.4512393157
  2         -9.9458301913   -2.4607392455    8.3041325857   -2.0306994528
  3        -10.1450417646   -2.2931184565    8.4831893826   -2.0812538287
  4        -10.1528335592   -2.2733105793    8.5050388867   -2.0896035179
  5        -10.1571940363   -2.2633716629    8.5160794258   -2.0939370707
  6        -10.1594380571   -2.2584938667    8.5215163935   -2.0961289008
  7        -10.1605856507   -2.2561081821    8.5241804044   -2.0972291378
  8        -10.1611799191   -2.2549395235    8.5254868240   -2.0977806248
  9        -10.1614918752   -2.2543658586    8.5261285885   -2.0980571586
 10        -10.1616572884   -2.2540839121    8.5264441898   -2.0981959233
 11        -10.1617455602   -2.2539453058    8.5265994231   -2.0982656006
 12        -10.1617928447   -2.2538772062    8.5266757320   -2.0983006047
 13        -10.1618182292   -2.2538437891    8.5267131983   -2.0983181961
 14        -10.1618318741   -2.2538274201    8.5267315620   -2.0983270391
 15        -10.1618392144   -2.2538194197    8.5267405433   -2.0983314852
 16        -10.1618431651   -2.2538155200    8.5267449245   -2.0983337210
 17        -10.1618452923   -2.2538136252    8.5267470551   -2.0983348455
 18        -10.1618464380   -2.2538127080    8.5267480875   -2.0983354110
 19        -10.1618470552   -2.2538122659    8.5267485856   -2.0983356955
 20        -10.1618473878   -2.2538120540    8.5267488248   -2.0983358386
 21        -10.1618475670   -2.2538119530    8.5267489389   -2.0983359106
 22        -10.1618476637   -2.2538119053    8.5267489929   -2.0983359468
Atom SCF converged after  22 iterations to a total energy of    -10.16184766

Atom SCF Calculation for O  : Z (AE atom) =   8 : Z (PS atom) =   6
Config String:
Orbitals (num,occ):  2     2.00 4.00
Orbitals   (num,l):  2        0    1
Real-space Grid (nr,dr,rmax): 1203    0.0066555740    8.0000000000
Spherical Bessel Basis (nsws,lmax,cutoff):   47    1  176.3951722778
Confining potential (l,width,scale):  0    3.0000000000  100.0000000000
Confining potential (l,width,scale):  1    3.0000000000  100.0000000000
  1         -1.8735052164   -7.5539365035   10.1554312477   -2.4512393157
  2        -16.0318313751   -3.1285771268   13.6395848164   -3.2358799643
  3        -15.9524020423   -3.0762819706   13.6967272503   -3.2536856837
  4        -15.8521515939   -3.0781493909   13.6951909330   -3.2561700440
  5        -15.8357139793   -3.0748501933   13.6988803334   -3.2580493133
  6        -15.8246052853   -3.0740779781   13.6997881576   -3.2588327446
  7        -15.8189019501   -3.0737449687   13.7001869911   -3.2592378801
  8        -15.8159785510   -3.0736026016   13.7003615168   -3.2594475790
  9        -15.8144776168   -3.0735437994   13.7004360379   -3.2595560735
 10        -15.8137058024   -3.0735207882   13.7004667348   -3.2596122456
 11        -15.8133083127   -3.0735125946   13.7004786868   -3.2596413656
 12        -15.8131032938   -3.0735102195   13.7004828997   -3.2596564858
 13        -15.8129973902   -3.0735099286   13.7004840891   -3.2596643505
 14        -15.8129426040   -3.0735102506   13.7004842061   -3.2596684489
 15        -15.8129142203   -3.0735106556   13.7004840157   -3.2596705887
 16        -15.8128994940   -3.0735109855   13.7004837906   -3.2596717080
 17        -15.8128918425   -3.0735112169   13.7004836103   -3.2596722946
 18        -15.8128878614   -3.0735113674   13.7004834848   -3.2596726026
 19        -15.8128857871   -3.0735114608   13.7004834035   -3.2596727646
 20        -15.8128847048   -3.0735115170   13.7004833533   -3.2596728500
 21        -15.8128841394   -3.0735115501   13.7004833231   -3.2596728951
 22        -15.8128838436   -3.0735115693   13.7004833054   -3.2596729190
 23        -15.8128836887   -3.0735115802   13.7004832951   -3.2596729316
 24        -15.8128836074   -3.0735115864   13.7004832893   -3.2596729383
Atom SCF converged after  24 iterations to a total energy of    -15.81288361

Atom SCF Calculation for F  : Z (AE atom) =   9 : Z (PS atom) =   7
Config String:
Orbitals (num,occ):  5     2.00 5.00 0.00 0.00 0.00
Orbitals   (num,l):  5        0    1    0    1    2
Real-space Grid (nr,dr,rmax): 1203    0.0066555740    8.0000000000
Spherical Bessel Basis (nsws,lmax,cutoff):   47    2  176.3951722778
Confining potential (l,width,scale):  0    3.0000000000  100.0000000000
Confining potential (l,width,scale):  1    3.0000000000  100.0000000000
Confining potential (l,width,scale):  2    3.0000000000  100.0000000000
  1          2.7613408675  -14.5815130354   13.8226703094   -2.9941905181
  2        -23.6468980113   -4.9263326541   20.5563421412   -4.3754293297
  3        -24.5333043594   -4.3845963970   21.1176052958   -4.4841731563
  4        -24.3589864791   -4.3106783108   21.1950887716   -4.4997202795
  5        -24.2648391338   -4.2783243831   21.2295118026   -4.5072738146
  6        -24.2274338603   -4.2663478973   21.2423649225   -4.5102591768
  7        -24.2052315491   -4.2595041622   21.2497430410   -4.5120310941
  8        -24.1920610535   -4.2555995140   21.2539669715   -4.5130761189
  9        -24.1842594614   -4.2533726648   21.2563826077   -4.5136908004
 10        -24.1796430262   -4.2521035456   21.2577627107   -4.5140519045
 11        -24.1769128010   -4.2513811698   21.2585501121   -4.5142639028
 12        -24.1752983031   -4.2509707627   21.2589985394   -4.5143883165
 13        -24.1743434247   -4.2507381589   21.2592533437   -4.5144613128
 14        -24.1737784708   -4.2506067164   21.2593977374   -4.5145041342
 15        -24.1734440540   -4.2505326993   21.2594793047   -4.5145292513
 16        -24.1732459871   -4.2504911905   21.2595252124   -4.5145439823
 17        -24.1731286021   -4.2504680245   21.2595509400   -4.5145526212
 18        -24.1730589855   -4.2504551689   21.2595652865   -4.5145576869
 19        -24.1730176682   -4.2504480829   21.2595732399   -4.5145606573
 20        -24.1729931274   -4.2504442088   21.2595776183   -4.5145623987
 21        -24.1729785394   -4.2504421116   21.2595800086   -4.5145634196
 22        -24.1729698603   -4.2504409903   21.2595813001   -4.5145640181
 23        -24.1729646922   -4.2504404002   21.2595819890   -4.5145643688
 24        -24.1729616119   -4.2504400960   21.2595823505   -4.5145645744
 25        -24.1729597743   -4.2504399438   21.2595825360   -4.5145646948
 26        -24.1729586769   -4.2504398706   21.2595826284   -4.5145647654
 27        -24.1729580209   -4.2504398378   21.2595826723   -4.5145648067
 28        -24.1729576283   -4.2504398249   21.2595826917   -4.5145648309
 29        -24.1729573931   -4.2504398211   21.2595826991   -4.5145648451
 30        -24.1729572521   -4.2504398214   21.2595827010   -4.5145648534
 31        -24.1729571674   -4.2504398230   21.2595827006   -4.5145648582
Atom SCF converged after  31 iterations to a total energy of    -24.17295717
 
WARNING in ngwfs_initialise: Setting radial NGWF functions for species  6 (F):
Last NGWF on atom has m = -2 and does not complete set of m-values for l = 2.
This breaks symmetry and may cause unstable NGWF optimisation and poor 
convergence. Suggest increasing number of NGWFs per atom from   9 to  13.
NB: All NGWF radial function angular momenta:     0    1    0    1    2
 

========================== Calculation in vacuum ==============================
= Adjusting the following parameters: 
= is_implicit_solvent: F
= is_include_apolar: F
= write_denskern: T
= write_tightbox_ngwfs: T
= restart read filename prefix: ""
= restart write filename prefix: "vacuum_"
===============================================================================

Determining parallel strategy ...
... using space-filling curve
... NGWF load balancing: max    110;  min    109;  average    109
... Projector load balancing: max     26;  min     21;  average     22
... done
Calculating direct Ion-Ion energy ...
Ion-Ion Energy        :    838293.92558242660016
======================= Empirical dispersion information =======================
Model : Elstner
WARNING: Unoptimised dispersion parameters used for F 
Dispersion Correction Energy: -0.32595193E+01 Hartree
================================================================================
Basis initialisation ...... NGWF spheres initialised
... Projector spheres initialised
... NGWF tight boxes initialised
... Tight-boxes gathered
... NGWF basis size (local,global):    1037835  62444596
... Nonlocal pseudopotential projector initialisation
... done

========================== Sparse matrix information ===========================
                        Overlap matrix filling:   6.70%
                        Density kernel filling: 100.00%
              NGWF-Proj overlap matrix filling:   1.76%
                    Hamiltonian matrix filling:   7.57%
                  NGWF diagonal matrix filling:   0.05%
                             KS matrix filling: 100.00% 
                           KSKS matrix filling: 100.00% 
================================================================================

Sparse matrix initialisation ... done

Generating smeared ion density ... done
Smeared ion self correction:     -14544.936866
Smeared ion non-self correction: -838245.581085
NGWF initialisation ...... done
============ Calculation of NGWF S^-1 using Hotelling algorithm ================ 
         Iteration  |  Frobenius norm and Maximum abs value    (of I-S*S_n^-1)   
               1       0.78715240E+02     0.98244657E+00
               2       0.76841698E+02     0.96535913E+00
               3       0.73814871E+02     0.93249348E+00
               4       0.69524230E+02     0.87147132E+00
               5       0.64190815E+02     0.76705604E+00
               6       0.58204596E+02     0.70271501E+00
               7       0.52194346E+02     0.67105069E+00
               8       0.46639716E+02     0.64364476E+00
               9       0.40545700E+02     0.60169571E+00
              10       0.32237266E+02     0.53946371E+00
              11       0.21629722E+02     0.44835149E+00
              12       0.11023872E+02     0.32006939E+00
              13       0.36333488E+01     0.17673507E+00
              14       0.60941325E+00     0.64406668E-01
              15       0.56882439E-01     0.11514270E-01
              16       0.24606660E-02     0.50692945E-03
              17       0.60277704E-05     0.12120150E-05
              18       0.36333864E-10     0.72986062E-11
              19       0.54504286E-13     0.28865799E-14
================================================================================
Calculating local pseudopotential in open BC on the fine real space grid ...
... done

MG BCs: +ve charge blocks (gridpoints):     20254 (   15963290).
MG BCs: -ve charge blocks (gridpoints):      8056 (    1079402).
MG BCs:     Elided blocks (gridpoints):    189791 (  189177133).
MG BCs: Computational effort saved:  99.9863%.
MG BCs: Charge after coarse-graining:           -9.0002198.
MG DL_MG: Calling solver with defect correction order = 8
MG DL_MG: Solver finished
MG Hartree energy from (\int phi*rho dr):              1470.982886
MG Hartree energy from (\int eps (grad phi)^2 dr):     1470.373540
MG Discrepancy due to finite box and discretization:     -0.609346 (  -0.04142%)
MG Correction to account for finite box:                  0.454251
MG Remaining discrepancy, due to discretization:         -0.155095 (  -0.01054%)
Up spin density kernel initialisation ... 
======= Optimisation of K by Palser-Manolopoulos canonical purification ======== 
         Iteration  |  Band structure energy |    c_n   
               1       -2564.31172697535885    0.5303194
               2       -2740.05895119807246    0.5195524
               3       -2925.09803180699146    0.5153115
               4       -3085.74599664338439    0.5255286
               5       -3190.29007474018726    0.5575323
               6       -3236.79526277392506    0.6046571
               7       -3252.58178486927090    0.6232298
               8       -3259.06593302950023    0.6218895
               9       -3262.24257145971387    0.6330244
              10       -3263.59997707916591    0.6509895
              11       -3264.14651602957292    0.6631740
              12       -3264.38198210734390    0.6530689
              13       -3264.49887010002749    0.6081590
              14       -3264.56476763167211    0.5386246
              15       -3264.59778581733008    0.4899799
              16       -3264.60571521444854    0.4930697
              17       -3264.60694159103787    0.5004494
              18       -3264.60714170373558    0.5002273
              19       -3264.60717722696836    0.5000009
              20       -3264.60722253775657    0.5000000
              21       -3264.60728448691088    0.5000000
              22       -3264.60736012173538    0.5000000
              23       -3264.60743236270719    0.5000000
              24       -3264.60747378305496    0.5000000
              25       -3264.60748261782146    0.5000000
              26       -3264.60748292727385    0.5000000
Termination criterion satisfied: band energy change below threshold.
Final occupancy bounds: [    0.00000000018129:    0.99999999998147]
Closest occupancy to 0.5:     0.99999999999330
================================================================================
... done

Writing density kernel to file "complex_30501.vacuum_dkn" ... done

>>> Optimising kernel for current NGWFs:
   Initial electron number for spin 1:    7234.00000000
     Final electron number for spin 1:    7234.00000000

=================== Penalty functional idempotency correction ==================
 RMS occupancy error at iteration   1:  0.000000 (step -0.5000 Ne1=   7234.0000)
            Final RMS occupancy error   :  0.000000 (Ne1=   7234.0000)
               Final occupancy bounds   : [ -0.0000,  1.0000]
================================================================================

................................................................................
<<<<<<<<<<<<<< LNV (Original version) density kernel optimisation >>>>>>>>>>>>>>
~~~~~~~~~~~~~~~~~~~~~~~~~~~~~~~~~~~~~~~~~~~~~~~~~~~~~~~~~~~~~~~~~~~~~~~~~~~~~~~~
   iter  |      energy (Eh)       | rms gradient |  commutator  |   dE (Eh)
MG BCs: +ve charge blocks (gridpoints):     30844 (   17136975).
MG BCs: -ve charge blocks (gridpoints):      8368 (    1112528).
MG BCs:     Elided blocks (gridpoints):    179195 (  187970322).
MG BCs: Computational effort saved:  99.9810%.
MG BCs: Charge after coarse-graining:           -9.0009429.
MG DL_MG: Calling solver with defect correction order = 8
MG DL_MG: Solver finished
MG Hartree energy from (\int phi*rho dr):              1424.951813
MG Hartree energy from (\int eps (grad phi)^2 dr):     1424.289241
MG Discrepancy due to finite box and discretization:     -0.662572 (  -0.04650%)
MG Correction to account for finite box:                  0.464011
MG Remaining discrepancy, due to discretization:         -0.198561 (  -0.01393%)
      ideal mu1:      -0.701840557163
             Q0:  -11578.297698157257
             G0:    -144.363796635051
   RMS gradient:       0.001834934122
MG BCs: +ve charge blocks (gridpoints):     30851 (   17223277).
MG BCs: -ve charge blocks (gridpoints):      8281 (    1091735).
MG BCs:     Elided blocks (gridpoints):    179185 (  187904813).
MG BCs: Computational effort saved:  99.9810%.
MG BCs: Charge after coarse-graining:           -9.0009635.
MG DL_MG: Calling solver with defect correction order = 8
MG DL_MG: Solver finished
MG Hartree energy from (\int phi*rho dr):              1450.722745
MG Hartree energy from (\int eps (grad phi)^2 dr):     1450.076752
MG Discrepancy due to finite box and discretization:     -0.645993 (  -0.04453%)
MG Correction to account for finite box:                  0.463432
MG Remaining discrepancy, due to discretization:         -0.182560 (  -0.01258%)
     Trial step:       0.500000000000
             Q1:  -11589.735914292512
 Quadratic coef:      60.743682182270
 Linear coef   :     -72.181898317525
           Qmin:  -11599.741189305389
Quadratic minimum step length (  0.297075744029) accepted
    Initial Ne1:    7234.00000000
      Final Ne1:    7234.00000000

=================== Penalty functional idempotency correction ==================
 RMS occupancy error at iteration   1:  0.003371 (step -0.4885 Ne1=   7234.0000)
 RMS occupancy error at iteration   2:  0.000027 (step -0.5001 Ne1=   7234.0000)
            Final RMS occupancy error   :  0.000000 (Ne1=   7234.0000)
               Final occupancy bounds   : [  0.0000,  1.0000]
================================================================================

    1        -1.157829769816E+04     1.8349E-03     1.6609E-03
MG BCs: +ve charge blocks (gridpoints):     30846 (   17189708).
MG BCs: -ve charge blocks (gridpoints):      8306 (    1100212).
MG BCs:     Elided blocks (gridpoints):    179192 (  187929905).
MG BCs: Computational effort saved:  99.9810%.
MG BCs: Charge after coarse-graining:           -9.0009555.
MG DL_MG: Calling solver with defect correction order = 8
MG DL_MG: Solver finished
MG Hartree energy from (\int phi*rho dr):              1432.360486
MG Hartree energy from (\int eps (grad phi)^2 dr):     1431.708729
MG Discrepancy due to finite box and discretization:     -0.651757 (  -0.04550%)
MG Correction to account for finite box:                  0.463546
MG Remaining discrepancy, due to discretization:         -0.188212 (  -0.01314%)
      ideal mu1:      -0.748216958015
             Q0:  -11600.137545276433
             G0:     -12.102265591809
   RMS gradient:       0.000527733841
MG BCs: +ve charge blocks (gridpoints):     30857 (   17207051).
MG BCs: -ve charge blocks (gridpoints):      8283 (    1095158).
MG BCs:     Elided blocks (gridpoints):    179180 (  187917616).
MG BCs: Computational effort saved:  99.9810%.
MG BCs: Charge after coarse-graining:           -9.0009592.
MG DL_MG: Calling solver with defect correction order = 8
MG DL_MG: Solver finished
MG Hartree energy from (\int phi*rho dr):              1437.697547
MG Hartree energy from (\int eps (grad phi)^2 dr):     1437.049593
MG Discrepancy due to finite box and discretization:     -0.647953 (  -0.04507%)
MG Correction to account for finite box:                  0.462971
MG Remaining discrepancy, due to discretization:         -0.184982 (  -0.01287%)
     Trial step:       0.385406113100
             Q1:  -11602.968632823089
 Quadratic coef:       1.833199594785
 Linear coef   :      -4.664287141440
           Qmin:  -11603.104430960853
Quadratic minimum step length (  0.490302524253) accepted
    Initial Ne1:    7233.99985366
      Final Ne1:    7234.00000000

=================== Penalty functional idempotency correction ==================
 RMS occupancy error at iteration   1:  0.001797 (step -0.4928 Ne1=   7234.0000)
 RMS occupancy error at iteration   2:  0.000014 (step -0.5004 Ne1=   7234.0000)
            Final RMS occupancy error   :  0.000000 (Ne1=   7234.0000)
               Final occupancy bounds   : [  0.0000,  1.0000]
================================================================================

    2        -1.160013754528E+04     5.2773E-04     4.7769E-04    -2.1840E+01
MG BCs: +ve charge blocks (gridpoints):     30855 (   17211745).
MG BCs: -ve charge blocks (gridpoints):      8283 (    1093741).
MG BCs:     Elided blocks (gridpoints):    179181 (  187914339).
MG BCs: Computational effort saved:  99.9810%.
MG BCs: Charge after coarse-graining:           -9.0009603.
MG DL_MG: Calling solver with defect correction order = 8
MG DL_MG: Solver finished
MG Hartree energy from (\int phi*rho dr):              1439.199924
MG Hartree energy from (\int eps (grad phi)^2 dr):     1438.552929
MG Discrepancy due to finite box and discretization:     -0.646994 (  -0.04496%)
MG Correction to account for finite box:                  0.462828
MG Remaining discrepancy, due to discretization:         -0.184166 (  -0.01280%)
      ideal mu1:      -0.773707425238
             Q0:  -11603.141062221490
             G0:      -1.921900505168
   RMS gradient:       0.000210370468
MG BCs: +ve charge blocks (gridpoints):     30858 (   17210957).
MG BCs: -ve charge blocks (gridpoints):      8295 (    1094690).
MG BCs:     Elided blocks (gridpoints):    179178 (  187914178).
MG BCs: Computational effort saved:  99.9810%.
MG BCs: Charge after coarse-graining:           -9.0009600.
MG DL_MG: Calling solver with defect correction order = 8
MG DL_MG: Solver finished
MG Hartree energy from (\int phi*rho dr):              1436.936275
MG Hartree energy from (\int eps (grad phi)^2 dr):     1436.289705
MG Discrepancy due to finite box and discretization:     -0.646571 (  -0.04500%)
MG Correction to account for finite box:                  0.462608
MG Remaining discrepancy, due to discretization:         -0.183963 (  -0.01280%)
     Trial step:       0.434701725457
             Q1:  -11603.631247350480
 Quadratic coef:       0.345268336763
 Linear coef   :      -0.835453465753
           Qmin:  -11603.646453549856
Quadratic minimum step length (  0.525928711718) accepted
    Initial Ne1:    7233.99985366
      Final Ne1:    7234.00000000

=================== Penalty functional idempotency correction ==================
 RMS occupancy error at iteration   1:  0.000637 (step -0.4967 Ne1=   7234.0000)
 RMS occupancy error at iteration   2:  0.000004 (step -0.5000 Ne1=   7234.0000)
            Final RMS occupancy error   :  0.000000 (Ne1=   7234.0000)
               Final occupancy bounds   : [  0.0000,  1.0000]
================================================================================

    3        -1.160314106222E+04     2.1037E-04     1.9042E-04    -3.0035E+00
MG BCs: +ve charge blocks (gridpoints):     30857 (   17210686).
MG BCs: -ve charge blocks (gridpoints):      8295 (    1094940).
MG BCs:     Elided blocks (gridpoints):    179179 (  187914199).
MG BCs: Computational effort saved:  99.9810%.
MG BCs: Charge after coarse-graining:           -9.0009600.
MG DL_MG: Calling solver with defect correction order = 8
MG DL_MG: Solver finished
MG Hartree energy from (\int phi*rho dr):              1436.471012
MG Hartree energy from (\int eps (grad phi)^2 dr):     1435.824520
MG Discrepancy due to finite box and discretization:     -0.646492 (  -0.04501%)
MG Correction to account for finite box:                  0.462563
MG Remaining discrepancy, due to discretization:         -0.183930 (  -0.01280%)
      ideal mu1:      -0.774475661670
             Q0:  -11603.651120682713
             G0:      -0.491640341187
   RMS gradient:       0.000106543532
MG BCs: +ve charge blocks (gridpoints):     30858 (   17211532).
MG BCs: -ve charge blocks (gridpoints):      8295 (    1094760).
MG BCs:     Elided blocks (gridpoints):    179178 (  187913533).
MG BCs: Computational effort saved:  99.9810%.
MG BCs: Charge after coarse-graining:           -9.0009602.
MG DL_MG: Calling solver with defect correction order = 8
MG DL_MG: Solver finished
MG Hartree energy from (\int phi*rho dr):              1437.716493
MG Hartree energy from (\int eps (grad phi)^2 dr):     1437.069988
MG Discrepancy due to finite box and discretization:     -0.646505 (  -0.04497%)
MG Correction to account for finite box:                  0.462463
MG Remaining discrepancy, due to discretization:         -0.184041 (  -0.01280%)
     Trial step:       0.478144453540
             Q1:  -11603.772368234466
 Quadratic coef:       0.113827550522
 Linear coef   :      -0.235075102275
           Qmin:  -11603.772489155144
Quadratic minimum step length (  0.493728696625) accepted
    Initial Ne1:    7233.99996489
      Final Ne1:    7234.00000000

=================== Penalty functional idempotency correction ==================
 RMS occupancy error at iteration   1:  0.000276 (step -0.4954 Ne1=   7234.0000)
 RMS occupancy error at iteration   2:  0.000003 (step -0.5000 Ne1=   7234.0000)
            Final RMS occupancy error   :  0.000000 (Ne1=   7234.0000)
               Final occupancy bounds   : [  0.0000,  1.0000]
================================================================================

    4        -1.160365112068E+04     1.0654E-04     9.6440E-05    -5.1006E-01
MG BCs: +ve charge blocks (gridpoints):     30860 (   17211567).
MG BCs: -ve charge blocks (gridpoints):      8296 (    1094754).
MG BCs:     Elided blocks (gridpoints):    179176 (  187913504).
MG BCs: Computational effort saved:  99.9810%.
MG BCs: Charge after coarse-graining:           -9.0009602.
MG DL_MG: Calling solver with defect correction order = 8
MG DL_MG: Solver finished
MG Hartree energy from (\int phi*rho dr):              1437.757628
MG Hartree energy from (\int eps (grad phi)^2 dr):     1437.111123
MG Discrepancy due to finite box and discretization:     -0.646505 (  -0.04497%)
MG Correction to account for finite box:                  0.462460
MG Remaining discrepancy, due to discretization:         -0.184045 (  -0.01280%)
      ideal mu1:      -0.774874540691
             Q0:  -11603.773067561444
             G0:      -0.173463873261
   RMS gradient:       0.000063460820
MG BCs: +ve charge blocks (gridpoints):     30856 (   17211716).
MG BCs: -ve charge blocks (gridpoints):      8292 (    1094568).
MG BCs:     Elided blocks (gridpoints):    179181 (  187913541).
MG BCs: Computational effort saved:  99.9810%.
MG BCs: Charge after coarse-graining:           -9.0009602.
MG DL_MG: Calling solver with defect correction order = 8
MG DL_MG: Solver finished
MG Hartree energy from (\int phi*rho dr):              1438.169069
MG Hartree energy from (\int eps (grad phi)^2 dr):     1437.522437
MG Discrepancy due to finite box and discretization:     -0.646632 (  -0.04496%)
MG Correction to account for finite box:                  0.462431
MG Remaining discrepancy, due to discretization:         -0.184201 (  -0.01281%)
     Trial step:       0.485874096701
             Q1:  -11603.826980153797
 Quadratic coef:       0.030369010377
 Linear coef   :      -0.084281602731
           Qmin:  -11603.831543195574
Quadratic minimum step length (  0.674211096879) accepted
    Initial Ne1:    7233.99998289
      Final Ne1:    7234.00000000

=================== Penalty functional idempotency correction ==================
 RMS occupancy error at iteration   1:  0.000393 (step -0.4761 Ne1=   7234.0000)
 RMS occupancy error at iteration   2:  0.000008 (step -0.5000 Ne1=   7234.0000)
            Final RMS occupancy error   :  0.000000 (Ne1=   7234.0000)
               Final occupancy bounds   : [  0.0000,  1.0000]
================================================================================

    5        -1.160377306756E+04     6.3461E-05     5.7443E-05    -1.2195E-01
MG BCs: +ve charge blocks (gridpoints):     30854 (   17211805).
MG BCs: -ve charge blocks (gridpoints):      8289 (    1094497).
MG BCs:     Elided blocks (gridpoints):    179183 (  187913523).
MG BCs: Computational effort saved:  99.9810%.
MG BCs: Charge after coarse-graining:           -9.0009601.
MG DL_MG: Calling solver with defect correction order = 8
MG DL_MG: Solver finished
MG Hartree energy from (\int phi*rho dr):              1438.327576
MG Hartree energy from (\int eps (grad phi)^2 dr):     1437.680896
MG Discrepancy due to finite box and discretization:     -0.646680 (  -0.04496%)
MG Correction to account for finite box:                  0.462419
MG Remaining discrepancy, due to discretization:         -0.184261 (  -0.01281%)
      ideal mu1:      -0.775013196582
             Q0:  -11603.831220970489
             G0:      -0.145643941739
   RMS gradient:       0.000058479420
MG BCs: +ve charge blocks (gridpoints):     30857 (   17211156).
MG BCs: -ve charge blocks (gridpoints):      8292 (    1094877).
MG BCs:     Elided blocks (gridpoints):    179180 (  187913792).
MG BCs: Computational effort saved:  99.9810%.
MG BCs: Charge after coarse-graining:           -9.0009599.
MG DL_MG: Calling solver with defect correction order = 8
MG DL_MG: Solver finished
MG Hartree energy from (\int phi*rho dr):              1437.169073
MG Hartree energy from (\int eps (grad phi)^2 dr):     1436.522453
MG Discrepancy due to finite box and discretization:     -0.646620 (  -0.04499%)
MG Correction to account for finite box:                  0.462377
MG Remaining discrepancy, due to discretization:         -0.184243 (  -0.01282%)
     Trial step:       0.572347540994
             Q1:  -11603.895301400335
 Quadratic coef:       0.019278522070
 Linear coef   :      -0.083358951915
           Qmin:  -11603.921330508439
Quadratic minimum step length (  1.237394935557) accepted
    Initial Ne1:    7233.99995663
      Final Ne1:    7234.00000000

=================== Penalty functional idempotency correction ==================
 RMS occupancy error at iteration   1:  0.003213 (step -0.3336 Ne1=   7234.0000)
 RMS occupancy error at iteration   2:  0.000192 (step -0.4933 Ne1=   7234.0000)
 RMS occupancy error at iteration   3:  0.000002 (step -0.5000 Ne1=   7234.0000)
            Final RMS occupancy error   :  0.000000 (Ne1=   7234.0000)
               Final occupancy bounds   : [  0.0000,  1.0000]
================================================================================

    6        -1.160383122097E+04     5.8479E-05     5.2934E-05    -5.8153E-02
MG BCs: +ve charge blocks (gridpoints):     30857 (   17210366).
MG BCs: -ve charge blocks (gridpoints):      8292 (    1095382).
MG BCs:     Elided blocks (gridpoints):    179180 (  187914077).
MG BCs: Computational effort saved:  99.9810%.
MG BCs: Charge after coarse-graining:           -9.0009597.
MG DL_MG: Calling solver with defect correction order = 8
MG DL_MG: Solver finished
MG Hartree energy from (\int phi*rho dr):              1435.828569
MG Hartree energy from (\int eps (grad phi)^2 dr):     1435.182009
MG Discrepancy due to finite box and discretization:     -0.646560 (  -0.04503%)
MG Correction to account for finite box:                  0.462337
MG Remaining discrepancy, due to discretization:         -0.184223 (  -0.01283%)
      ideal mu1:      -0.775573571360
             Q0:  -11603.903853923432
             G0:      -0.277369604549
   RMS gradient:       0.000080430499
MG BCs: +ve charge blocks (gridpoints):     30855 (   17212654).
MG BCs: -ve charge blocks (gridpoints):      8290 (    1094027).
MG BCs:     Elided blocks (gridpoints):    179182 (  187913144).
MG BCs: Computational effort saved:  99.9810%.
MG BCs: Charge after coarse-graining:           -9.0009607.
MG DL_MG: Calling solver with defect correction order = 8
MG DL_MG: Solver finished
MG Hartree energy from (\int phi*rho dr):              1439.239491
MG Hartree energy from (\int eps (grad phi)^2 dr):     1438.593220
MG Discrepancy due to finite box and discretization:     -0.646271 (  -0.04490%)
MG Correction to account for finite box:                  0.462198
MG Remaining discrepancy, due to discretization:         -0.184073 (  -0.01279%)
     Trial step:       0.841558048268
             Q1:  -11603.972692963551
 Quadratic coef:       0.164583582933
 Linear coef   :      -0.233422623053
           Qmin:  -11603.986617525947
Quadratic minimum step length (  0.596774853170) accepted
    Initial Ne1:    7233.99999950
      Final Ne1:    7234.00000000

=================== Penalty functional idempotency correction ==================
 RMS occupancy error at iteration   1:  0.000154 (step -0.4883 Ne1=   7234.0000)
 RMS occupancy error at iteration   2:  0.000001 (step -0.5000 Ne1=   7234.0000)
            Final RMS occupancy error   :  0.000000 (Ne1=   7234.0000)
               Final occupancy bounds   : [  0.0000,  1.0000]
================================================================================

    7        -1.160390385392E+04     8.0430E-05     7.2803E-05    -7.2633E-02
MG BCs: +ve charge blocks (gridpoints):     30855 (   17212068).
MG BCs: -ve charge blocks (gridpoints):      8288 (    1094354).
MG BCs:     Elided blocks (gridpoints):    179182 (  187913403).
MG BCs: Computational effort saved:  99.9810%.
MG BCs: Charge after coarse-graining:           -9.0009604.
MG DL_MG: Calling solver with defect correction order = 8
MG DL_MG: Solver finished
MG Hartree energy from (\int phi*rho dr):              1438.242640
MG Hartree energy from (\int eps (grad phi)^2 dr):     1437.596285
MG Discrepancy due to finite box and discretization:     -0.646355 (  -0.04494%)
MG Correction to account for finite box:                  0.462239
MG Remaining discrepancy, due to discretization:         -0.184115 (  -0.01280%)
      ideal mu1:      -0.776578399461
             Q0:  -11603.986835256335
             G0:      -0.178757541311
   RMS gradient:       0.000064497875
MG BCs: +ve charge blocks (gridpoints):     30856 (   17211889).
MG BCs: -ve charge blocks (gridpoints):      8292 (    1094414).
MG BCs:     Elided blocks (gridpoints):    179180 (  187913522).
MG BCs: Computational effort saved:  99.9810%.
MG BCs: Charge after coarse-graining:           -9.0009604.
MG DL_MG: Calling solver with defect correction order = 8
MG DL_MG: Solver finished
MG Hartree energy from (\int phi*rho dr):              1438.065192
MG Hartree energy from (\int eps (grad phi)^2 dr):     1437.419098
MG Discrepancy due to finite box and discretization:     -0.646094 (  -0.04493%)
MG Correction to account for finite box:                  0.462140
MG Remaining discrepancy, due to discretization:         -0.183954 (  -0.01279%)
     Trial step:       0.708675299900
             Q1:  -11604.060129942605
 Quadratic coef:       0.053386367928
 Linear coef   :      -0.126681054198
           Qmin:  -11604.061985946088
Quadratic minimum step length (  0.840811405225) accepted
    Initial Ne1:    7233.99999944
      Final Ne1:    7234.00000000

=================== Penalty functional idempotency correction ==================
 RMS occupancy error at iteration   1:  0.001081 (step -0.4281 Ne1=   7234.0000)
 RMS occupancy error at iteration   2:  0.000031 (step -0.4983 Ne1=   7234.0000)
            Final RMS occupancy error   :  0.000000 (Ne1=   7234.0000)
               Final occupancy bounds   : [ -0.0000,  1.0000]
================================================================================

    8        -1.160398683526E+04     6.4498E-05     5.8382E-05    -8.2981E-02
MG BCs: +ve charge blocks (gridpoints):     30856 (   17211877).
MG BCs: -ve charge blocks (gridpoints):      8291 (    1094409).
MG BCs:     Elided blocks (gridpoints):    179180 (  187913539).
MG BCs: Computational effort saved:  99.9810%.
MG BCs: Charge after coarse-graining:           -9.0009604.
MG DL_MG: Calling solver with defect correction order = 8
MG DL_MG: Solver finished
MG Hartree energy from (\int phi*rho dr):              1438.034339
MG Hartree energy from (\int eps (grad phi)^2 dr):     1437.388292
MG Discrepancy due to finite box and discretization:     -0.646047 (  -0.04493%)
MG Correction to account for finite box:                  0.462123
MG Remaining discrepancy, due to discretization:         -0.183925 (  -0.01279%)
      ideal mu1:      -0.776679073301
             Q0:  -11604.061711844988
             G0:      -0.173303706752
   RMS gradient:       0.000063415384
MG BCs: +ve charge blocks (gridpoints):     30858 (   17211025).
MG BCs: -ve charge blocks (gridpoints):      8292 (    1094939).
MG BCs:     Elided blocks (gridpoints):    179178 (  187913861).
MG BCs: Computational effort saved:  99.9810%.
MG BCs: Charge after coarse-graining:           -9.0009601.
MG DL_MG: Calling solver with defect correction order = 8
MG DL_MG: Solver finished
MG Hartree energy from (\int phi*rho dr):              1436.766560
MG Hartree energy from (\int eps (grad phi)^2 dr):     1436.120701
MG Discrepancy due to finite box and discretization:     -0.645860 (  -0.04495%)
MG Correction to account for finite box:                  0.462022
MG Remaining discrepancy, due to discretization:         -0.183838 (  -0.01280%)
     Trial step:       0.771921158382
             Q1:  -11604.122459177976
 Quadratic coef:       0.073029465080
 Linear coef   :      -0.133776798068
           Qmin:  -11604.122975581760
Quadratic minimum step length (  0.707010114451) accepted
    Initial Ne1:    7234.00072267
      Final Ne1:    7234.00000000

=================== Penalty functional idempotency correction ==================
 RMS occupancy error at iteration   1:  0.002492 (step -0.3656 Ne1=   7234.0000)
 RMS occupancy error at iteration   2:  0.000141 (step -0.4914 Ne1=   7234.0000)
 RMS occupancy error at iteration   3:  0.000001 (step -0.5000 Ne1=   7234.0000)
            Final RMS occupancy error   :  0.000000 (Ne1=   7234.0000)
               Final occupancy bounds   : [  0.0000,  1.0000]
================================================================================

    9        -1.160406171184E+04     6.3415E-05     5.7402E-05    -7.4877E-02
MG BCs: +ve charge blocks (gridpoints):     30858 (   17211105).
MG BCs: -ve charge blocks (gridpoints):      8292 (    1094889).
MG BCs:     Elided blocks (gridpoints):    179178 (  187913831).
MG BCs: Computational effort saved:  99.9810%.
MG BCs: Charge after coarse-graining:           -9.0009602.
MG DL_MG: Calling solver with defect correction order = 8
MG DL_MG: Solver finished
MG Hartree energy from (\int phi*rho dr):              1436.877170
MG Hartree energy from (\int eps (grad phi)^2 dr):     1436.231298
MG Discrepancy due to finite box and discretization:     -0.645872 (  -0.04495%)
MG Correction to account for finite box:                  0.462031
MG Remaining discrepancy, due to discretization:         -0.183841 (  -0.01279%)
      ideal mu1:      -0.776265545519
   10        -1.160412770540E+04     5.4188E-05     4.9049E-05    -6.5994E-02
Finished density kernel iterations (  10)

Writing density kernel to file "complex_30501.vacuum_dkn" ... done


>>> Density kernel optimised for the current NGWF basis:
     ~~~~~~~~~~~~~~~~~~~~~~~~~~~~~~~~~~~~~~~~~~~~~~~~~~~~~~~~~~~
     Total energy                =  -1.16041277054026E+04  Eh
     Estimated bandgap           =  -3.5920E-01  Eh
     RMS occupancy error         =   1.5483E-10
     [H,K] commutator            =   4.9049E-05
     Occupancy bounds            = [  0.000:  1.000]
     ~~~~~~~~~~~~~~~~~~~~~~~~~~~~~~~~~~~~~~~~~~~~~~~~~~~~~~~~~~~




################################################################################
########################### NGWF CG iteration  001 #############################
################################################################################
****** Reciprocal space K.E. preconditioning with k_zero =  3.5000 a0^-1 *******

>>> Checking for convergence of NGWFs:   NOT CONVERGED
  ========================================================================
         NGWF RMS gradient =  1.6008E-03 >  2.0000E-06  | above tolerance
  ========================================================================

>>> Improving NGWFs using line search:
============ Calculation of NGWF S^-1 using Hotelling algorithm ================ 
         Iteration  |  Frobenius norm and Maximum abs value    (of I-S*S_n^-1)   
               1       0.19964615E+00     0.54793330E-02
               2       0.92782134E-03     0.44628485E-04
               3       0.35079665E-07     0.29183150E-08
               4       0.12841596E-12     0.66613381E-14
================================================================================
MG BCs: +ve charge blocks (gridpoints):     30400 (   17152871).
MG BCs: -ve charge blocks (gridpoints):      8292 (    1094647).
MG BCs:     Elided blocks (gridpoints):    179640 (  187972307).
MG BCs: Computational effort saved:  99.9812%.
MG BCs: Charge after coarse-graining:           -9.0009635.
MG DL_MG: Calling solver with defect correction order = 8
MG DL_MG: Solver finished
MG Hartree energy from (\int phi*rho dr):              1404.854492
MG Hartree energy from (\int eps (grad phi)^2 dr):     1404.209459
MG Discrepancy due to finite box and discretization:     -0.645033 (  -0.04591%)
MG Correction to account for finite box:                  0.461975
MG Remaining discrepancy, due to discretization:         -0.183058 (  -0.01303%)
============ Calculation of NGWF S^-1 using Hotelling algorithm ================ 
         Iteration  |  Frobenius norm and Maximum abs value    (of I-S*S_n^-1)   
               1       0.18489722E+01     0.43125410E-01
               2       0.71106583E-01     0.25173862E-02
               3       0.14537266E-03     0.94563406E-05
               4       0.11678275E-08     0.14894327E-09
               5       0.11098088E-12     0.53290705E-14
================================================================================
------------------------------- NGWF line search -------------------------------
RMS gradient                =       0.00160079622376
Trial step length           =               0.122474
Gradient along search dir.  =       -279.10524648571
Functional at step 0        =  -11604.12770540255588
Functional at step 1        =  -11635.68162718822714
Functional predicted        =  -11715.22892994609902
Selected quadratic step     =               0.796124
--------------------------- NGWF line search finished --------------------------
                                               
Writing NGWFs to file "complex_30501.vacuum_tightbox_ngwfs"....  done

>>> Optimising kernel for current NGWFs:
   Initial electron number for spin 1:    7268.65032321
     Final electron number for spin 1:    7234.00000000

=================== Penalty functional idempotency correction ==================
 RMS occupancy error at iteration   1:  0.004302 (step -0.4857 Ne1=   7234.0000)
 RMS occupancy error at iteration   2:  0.000072 (step -0.5003 Ne1=   7234.0000)
            Final RMS occupancy error   :  0.000000 (Ne1=   7234.0000)
               Final occupancy bounds   : [  0.0000,  1.0000]
================================================================================

................................................................................
<<<<<<<<<<<<<< LNV (Original version) density kernel optimisation >>>>>>>>>>>>>>
~~~~~~~~~~~~~~~~~~~~~~~~~~~~~~~~~~~~~~~~~~~~~~~~~~~~~~~~~~~~~~~~~~~~~~~~~~~~~~~~
   iter  |      energy (Eh)       | rms gradient |  commutator  |   dE (Eh)
MG BCs: +ve charge blocks (gridpoints):     24552 (   16833989).
MG BCs: -ve charge blocks (gridpoints):      8449 (    1078614).
MG BCs:     Elided blocks (gridpoints):    185493 (  188307222).
MG BCs: Computational effort saved:  99.9840%.
MG BCs: Charge after coarse-graining:           -9.0006632.
MG DL_MG: Calling solver with defect correction order = 8
MG DL_MG: Solver finished
MG Hartree energy from (\int phi*rho dr):              1250.791278
MG Hartree energy from (\int eps (grad phi)^2 dr):     1250.146090
MG Discrepancy due to finite box and discretization:     -0.645188 (  -0.05158%)
MG Correction to account for finite box:                  0.461725
MG Remaining discrepancy, due to discretization:         -0.183463 (  -0.01467%)
      ideal mu1:      -0.716874766197
             Q0:  -11714.439329665154
             G0:      -9.902144723279
   RMS gradient:       0.000480569234
MG BCs: +ve charge blocks (gridpoints):     24616 (   16849160).
MG BCs: -ve charge blocks (gridpoints):      8442 (    1074782).
MG BCs:     Elided blocks (gridpoints):    185429 (  188295883).
MG BCs: Computational effort saved:  99.9840%.
MG BCs: Charge after coarse-graining:           -9.0006588.
MG DL_MG: Calling solver with defect correction order = 8
MG DL_MG: Solver finished
MG Hartree energy from (\int phi*rho dr):              1267.105633
MG Hartree energy from (\int eps (grad phi)^2 dr):     1266.455057
MG Discrepancy due to finite box and discretization:     -0.650576 (  -0.05134%)
MG Correction to account for finite box:                  0.460924
MG Remaining discrepancy, due to discretization:         -0.189652 (  -0.01497%)
     Trial step:       0.738753048409
             Q1:  -11713.583856298239
 Quadratic coef:       8.170712967029
 Linear coef   :      -7.315239600114
           Qmin:  -11716.076663231484
Quadratic minimum step length (  0.330702814812) accepted
    Initial Ne1:    7233.99956113
      Final Ne1:    7234.00000000

=================== Penalty functional idempotency correction ==================
 RMS occupancy error at iteration   1:  0.000357 (step -0.4986 Ne1=   7234.0000)
 RMS occupancy error at iteration   2:  0.000000 (step -0.5000 Ne1=   7234.0000)
            Final RMS occupancy error   :  0.000000 (Ne1=   7234.0000)
               Final occupancy bounds   : [  0.0000,  1.0000]
================================================================================

    1        -1.171443932967E+04     4.8057E-04     4.3500E-04
MG BCs: +ve charge blocks (gridpoints):     24571 (   16841086).
MG BCs: -ve charge blocks (gridpoints):      8445 (    1076790).
MG BCs:     Elided blocks (gridpoints):    185474 (  188301949).
MG BCs: Computational effort saved:  99.9840%.
MG BCs: Charge after coarse-graining:           -9.0006611.
MG DL_MG: Calling solver with defect correction order = 8
MG DL_MG: Solver finished
MG Hartree energy from (\int phi*rho dr):              1257.103464
MG Hartree energy from (\int eps (grad phi)^2 dr):     1256.455970
MG Discrepancy due to finite box and discretization:     -0.647493 (  -0.05151%)
MG Correction to account for finite box:                  0.461341
MG Remaining discrepancy, due to discretization:         -0.186152 (  -0.01481%)
      ideal mu1:      -0.722935336441
             Q0:  -11716.050072622369
             G0:      -1.016665740985
   RMS gradient:       0.000154702196
MG BCs: +ve charge blocks (gridpoints):     24575 (   16840658).
MG BCs: -ve charge blocks (gridpoints):      8446 (    1077650).
MG BCs:     Elided blocks (gridpoints):    185470 (  188301517).
MG BCs: Computational effort saved:  99.9840%.
MG BCs: Charge after coarse-graining:           -9.0006611.
MG DL_MG: Calling solver with defect correction order = 8
MG DL_MG: Solver finished
MG Hartree energy from (\int phi*rho dr):              1258.198158
MG Hartree energy from (\int eps (grad phi)^2 dr):     1257.550389
MG Discrepancy due to finite box and discretization:     -0.647769 (  -0.05148%)
MG Correction to account for finite box:                  0.461208
MG Remaining discrepancy, due to discretization:         -0.186561 (  -0.01483%)
     Trial step:       0.494274936204
             Q1:  -11716.262937081279
 Quadratic coef:       0.289647935357
 Linear coef   :      -0.502512394266
           Qmin:  -11716.268025760961
Quadratic minimum step length (  0.428760663030) accepted
    Initial Ne1:    7233.99994102
      Final Ne1:    7234.00000000

=================== Penalty functional idempotency correction ==================
 RMS occupancy error at iteration   1:  0.000152 (step -0.4993 Ne1=   7234.0000)
 RMS occupancy error at iteration   2:  0.000000 (step -0.5000 Ne1=   7234.0000)
            Final RMS occupancy error   :  0.000000 (Ne1=   7234.0000)
               Final occupancy bounds   : [  0.0000,  1.0000]
================================================================================

    2        -1.171605007262E+04     1.5470E-04     1.4003E-04    -1.6107E+00
MG BCs: +ve charge blocks (gridpoints):     24576 (   16840663).
MG BCs: -ve charge blocks (gridpoints):      8446 (    1077566).
MG BCs:     Elided blocks (gridpoints):    185469 (  188301596).
MG BCs: Computational effort saved:  99.9840%.
MG BCs: Charge after coarse-graining:           -9.0006611.
MG DL_MG: Calling solver with defect correction order = 8
MG DL_MG: Solver finished
MG Hartree energy from (\int phi*rho dr):              1258.052897
MG Hartree energy from (\int eps (grad phi)^2 dr):     1257.405166
MG Discrepancy due to finite box and discretization:     -0.647731 (  -0.05149%)
MG Correction to account for finite box:                  0.461226
MG Remaining discrepancy, due to discretization:         -0.186505 (  -0.01482%)
      ideal mu1:      -0.723790911211
             Q0:  -11716.268501949031
             G0:      -0.171365834364
   RMS gradient:       0.000063151189
MG BCs: +ve charge blocks (gridpoints):     24577 (   16839999).
MG BCs: -ve charge blocks (gridpoints):      8445 (    1077938).
MG BCs:     Elided blocks (gridpoints):    185468 (  188301888).
MG BCs: Computational effort saved:  99.9840%.
MG BCs: Charge after coarse-graining:           -9.0006612.
MG DL_MG: Calling solver with defect correction order = 8
MG DL_MG: Solver finished
MG Hartree energy from (\int phi*rho dr):              1257.529542
MG Hartree energy from (\int eps (grad phi)^2 dr):     1256.881916
MG Discrepancy due to finite box and discretization:     -0.647625 (  -0.05150%)
MG Correction to account for finite box:                  0.461138
MG Remaining discrepancy, due to discretization:         -0.186487 (  -0.01483%)
     Trial step:       0.460353830620
             Q1:  -11716.322920382838
 Quadratic coef:       0.024470484481
 Linear coef   :      -0.078888918287
           Qmin:  -11716.332083254842
Quadratic minimum step length (  0.742053467622) accepted
    Initial Ne1:    7233.99998299
      Final Ne1:    7234.00000000

=================== Penalty functional idempotency correction ==================
 RMS occupancy error at iteration   1:  0.000160 (step -0.4934 Ne1=   7234.0000)
 RMS occupancy error at iteration   2:  0.000001 (step -0.5000 Ne1=   7234.0000)
            Final RMS occupancy error   :  0.000000 (Ne1=   7234.0000)
               Final occupancy bounds   : [  0.0000,  1.0000]
================================================================================

    3        -1.171626850195E+04     6.3151E-05     5.7163E-05    -2.1843E-01
MG BCs: +ve charge blocks (gridpoints):     24575 (   16839579).
MG BCs: -ve charge blocks (gridpoints):      8447 (    1078221).
MG BCs:     Elided blocks (gridpoints):    185470 (  188302025).
MG BCs: Computational effort saved:  99.9840%.
MG BCs: Charge after coarse-graining:           -9.0006612.
MG DL_MG: Calling solver with defect correction order = 8
MG DL_MG: Solver finished
MG Hartree energy from (\int phi*rho dr):              1257.209319
MG Hartree energy from (\int eps (grad phi)^2 dr):     1256.561757
MG Discrepancy due to finite box and discretization:     -0.647562 (  -0.05151%)
MG Correction to account for finite box:                  0.461084
MG Remaining discrepancy, due to discretization:         -0.186478 (  -0.01483%)
      ideal mu1:      -0.722770808915
             Q0:  -11716.332119209808
             G0:      -0.071707609190
   RMS gradient:       0.000040871675
MG BCs: +ve charge blocks (gridpoints):     24571 (   16839539).
MG BCs: -ve charge blocks (gridpoints):      8448 (    1078203).
MG BCs:     Elided blocks (gridpoints):    185474 (  188302083).
MG BCs: Computational effort saved:  99.9840%.
MG BCs: Charge after coarse-graining:           -9.0006612.
MG DL_MG: Calling solver with defect correction order = 8
MG DL_MG: Solver finished
MG Hartree energy from (\int phi*rho dr):              1257.225554
MG Hartree energy from (\int eps (grad phi)^2 dr):     1256.578185
MG Discrepancy due to finite box and discretization:     -0.647368 (  -0.05149%)
MG Correction to account for finite box:                  0.461026
MG Remaining discrepancy, due to discretization:         -0.186343 (  -0.01482%)
     Trial step:       0.584471689942
             Q1:  -11716.358168005128
 Quadratic coef:       0.015862272205
 Linear coef   :      -0.041911067525
           Qmin:  -11716.359803414794
Quadratic minimum step length (  0.772141347323) accepted
    Initial Ne1:    7233.99999241
      Final Ne1:    7234.00000000

=================== Penalty functional idempotency correction ==================
 RMS occupancy error at iteration   1:  0.000301 (step -0.4824 Ne1=   7234.0000)
 RMS occupancy error at iteration   2:  0.000003 (step -0.5000 Ne1=   7234.0000)
            Final RMS occupancy error   :  0.000000 (Ne1=   7234.0000)
               Final occupancy bounds   : [  0.0000,  1.0000]
================================================================================

    4        -1.171633211921E+04     4.0872E-05     3.6996E-05    -6.3617E-02
MG BCs: +ve charge blocks (gridpoints):     24571 (   16839566).
MG BCs: -ve charge blocks (gridpoints):      8448 (    1078200).
MG BCs:     Elided blocks (gridpoints):    185474 (  188302059).
MG BCs: Computational effort saved:  99.9840%.
MG BCs: Charge after coarse-graining:           -9.0006612.
MG DL_MG: Calling solver with defect correction order = 8
MG DL_MG: Solver finished
MG Hartree energy from (\int phi*rho dr):              1257.232169
MG Hartree energy from (\int eps (grad phi)^2 dr):     1256.584862
MG Discrepancy due to finite box and discretization:     -0.647306 (  -0.05149%)
MG Correction to account for finite box:                  0.461007
MG Remaining discrepancy, due to discretization:         -0.186300 (  -0.01482%)
      ideal mu1:      -0.722942527951
             Q0:  -11716.359695855761
             G0:      -0.071848323506
   RMS gradient:       0.000041008307
MG BCs: +ve charge blocks (gridpoints):     24571 (   16840958).
MG BCs: -ve charge blocks (gridpoints):      8447 (    1077682).
MG BCs:     Elided blocks (gridpoints):    185474 (  188301185).
MG BCs: Computational effort saved:  99.9840%.
MG BCs: Charge after coarse-graining:           -9.0006609.
MG DL_MG: Calling solver with defect correction order = 8
MG DL_MG: Solver finished
MG Hartree energy from (\int phi*rho dr):              1258.128613
MG Hartree energy from (\int eps (grad phi)^2 dr):     1257.481516
MG Discrepancy due to finite box and discretization:     -0.647097 (  -0.05143%)
MG Correction to account for finite box:                  0.460888
MG Remaining discrepancy, due to discretization:         -0.186209 (  -0.01480%)
     Trial step:       0.671784755814
             Q1:  -11716.388840451720
 Quadratic coef:       0.019122012503
 Linear coef   :      -0.048266608462
           Qmin:  -11716.390153757251
Quadratic minimum step length (  0.847838891802) accepted
    Initial Ne1:    7233.99999063
      Final Ne1:    7234.00000000

=================== Penalty functional idempotency correction ==================
 RMS occupancy error at iteration   1:  0.001097 (step -0.4382 Ne1=   7234.0000)
 RMS occupancy error at iteration   2:  0.000028 (step -0.4991 Ne1=   7234.0000)
            Final RMS occupancy error   :  0.000000 (Ne1=   7234.0000)
               Final occupancy bounds   : [ -0.0000,  1.0000]
================================================================================

    5        -1.171635969586E+04     4.1008E-05     3.7119E-05    -2.7577E-02
MG BCs: +ve charge blocks (gridpoints):     24571 (   16841326).
MG BCs: -ve charge blocks (gridpoints):      8446 (    1077550).
MG BCs:     Elided blocks (gridpoints):    185474 (  188300949).
MG BCs: Computational effort saved:  99.9840%.
MG BCs: Charge after coarse-graining:           -9.0006608.
MG DL_MG: Calling solver with defect correction order = 8
MG DL_MG: Solver finished
MG Hartree energy from (\int phi*rho dr):              1258.366264
MG Hartree energy from (\int eps (grad phi)^2 dr):     1257.719219
MG Discrepancy due to finite box and discretization:     -0.647044 (  -0.05142%)
MG Correction to account for finite box:                  0.460859
MG Remaining discrepancy, due to discretization:         -0.186185 (  -0.01480%)
      ideal mu1:      -0.723914066852
             Q0:  -11716.389980671345
             G0:      -0.064749667391
   RMS gradient:       0.000038626223
MG BCs: +ve charge blocks (gridpoints):     24573 (   16841221).
MG BCs: -ve charge blocks (gridpoints):      8447 (    1077669).
MG BCs:     Elided blocks (gridpoints):    185472 (  188300935).
MG BCs: Computational effort saved:  99.9840%.
MG BCs: Charge after coarse-graining:           -9.0006608.
MG DL_MG: Calling solver with defect correction order = 8
MG DL_MG: Solver finished
MG Hartree energy from (\int phi*rho dr):              1258.108494
MG Hartree energy from (\int eps (grad phi)^2 dr):     1257.461573
MG Discrepancy due to finite box and discretization:     -0.646921 (  -0.05142%)
MG Correction to account for finite box:                  0.460712
MG Remaining discrepancy, due to discretization:         -0.186209 (  -0.01480%)
     Trial step:       0.754695463680
             Q1:  -11716.417957786121
 Quadratic coef:       0.020889165478
 Linear coef   :      -0.048866280255
           Qmin:  -11716.418559043090
Quadratic minimum step length (  0.882734163638) accepted
    Initial Ne1:    7234.00044245
      Final Ne1:    7234.00000000

=================== Penalty functional idempotency correction ==================
 RMS occupancy error at iteration   1:  0.002251 (step -0.3864 Ne1=   7234.0000)
 RMS occupancy error at iteration   2:  0.000104 (step -0.4953 Ne1=   7234.0000)
 RMS occupancy error at iteration   3:  0.000001 (step -0.5000 Ne1=   7234.0000)
            Final RMS occupancy error   :  0.000000 (Ne1=   7234.0000)
               Final occupancy bounds   : [  0.0000,  1.0000]
================================================================================

    6        -1.171638998067E+04     3.8626E-05     3.4963E-05    -3.0285E-02
MG BCs: +ve charge blocks (gridpoints):     24573 (   16841201).
MG BCs: -ve charge blocks (gridpoints):      8448 (    1077703).
[...]
MG Correction to account for finite box:                  0.006283
MG Remaining discrepancy, due to discretization:         -0.185383 (  -0.01526%)
     Trial step:       0.240538011041
             Q1:  -11751.036488396116
 Quadratic coef:       0.000000000295
 Linear coef   :      -0.000000000179
           Qmin:  -11751.036488396259
Quadratic minimum step length (  0.072889984673) accepted
    Initial Ne1:    7234.00000000
      Final Ne1:    7234.00000000

=================== Penalty functional idempotency correction ==================
 RMS occupancy error at iteration   1:  0.000000 (step -0.5000 Ne1=   7234.0000)
            Final RMS occupancy error   :  0.000000 (Ne1=   7234.0000)
               Final occupancy bounds   : [  0.0000,  1.0000]
================================================================================

    7        -1.175103648840E+04     4.1613E-09     3.7667E-09     2.3283E-10

Reusing previously generated solute cavity.
MG BCs: +ve charge blocks (gridpoints):     29054 (   19011597).
MG BCs: -ve charge blocks (gridpoints):      8451 (    1046664).
MG BCs:     Elided blocks (gridpoints):    180991 (  186161564).
MG BCs: Computational effort saved:  99.9818%.
MG BCs: Charge after coarse-graining:           -9.0009444.
MG DL_MG: Calling solver with defect correction order = 8
MG DL_MG: Solver finished
MG Hartree energy from (\int phi*rho dr):              1215.094351
MG Hartree energy from (\int eps (grad phi)^2 dr):     1214.902686
MG Discrepancy due to finite box and discretization:     -0.191665 (  -0.01577%)
MG Correction to account for finite box:                  0.006283
MG Remaining discrepancy, due to discretization:         -0.185383 (  -0.01526%)
      ideal mu1:      -0.481272036036
             Q0:  -11751.036488396232
             G0:      -0.000000001226
   RMS gradient:       0.000000003854

Reusing previously generated solute cavity.
MG BCs: +ve charge blocks (gridpoints):     29054 (   19011597).
MG BCs: -ve charge blocks (gridpoints):      8451 (    1046664).
MG BCs:     Elided blocks (gridpoints):    180991 (  186161564).
MG BCs: Computational effort saved:  99.9818%.
MG BCs: Charge after coarse-graining:           -9.0009444.
MG DL_MG: Calling solver with defect correction order = 8
MG DL_MG: Solver finished
MG Hartree energy from (\int phi*rho dr):              1215.094343
MG Hartree energy from (\int eps (grad phi)^2 dr):     1214.902678
MG Discrepancy due to finite box and discretization:     -0.191665 (  -0.01577%)
MG Correction to account for finite box:                  0.006283
MG Remaining discrepancy, due to discretization:         -0.185383 (  -0.01526%)
     Trial step:       0.132411524945
             Q1:  -11751.036488396116
 Quadratic coef:       0.000000000278
 Linear coef   :      -0.000000000162
           Qmin:  -11751.036488396256
Quadratic minimum step length (  0.038612618159) accepted
    Initial Ne1:    7234.00000000
      Final Ne1:    7234.00000000

=================== Penalty functional idempotency correction ==================
 RMS occupancy error at iteration   1:  0.000000 (step -0.5000 Ne1=   7234.0000)
            Final RMS occupancy error   :  0.000000 (Ne1=   7234.0000)
               Final occupancy bounds   : [  0.0000,  1.0000]
================================================================================

    8        -1.175103648840E+04     3.8539E-09     3.4884E-09     0.0000E+00

Reusing previously generated solute cavity.
MG BCs: +ve charge blocks (gridpoints):     29054 (   19011597).
MG BCs: -ve charge blocks (gridpoints):      8451 (    1046664).
MG BCs:     Elided blocks (gridpoints):    180991 (  186161564).
MG BCs: Computational effort saved:  99.9818%.
MG BCs: Charge after coarse-graining:           -9.0009444.
MG DL_MG: Calling solver with defect correction order = 8
MG DL_MG: Solver finished
MG Hartree energy from (\int phi*rho dr):              1215.094349
MG Hartree energy from (\int eps (grad phi)^2 dr):     1214.902683
MG Discrepancy due to finite box and discretization:     -0.191665 (  -0.01577%)
MG Correction to account for finite box:                  0.006283
MG Remaining discrepancy, due to discretization:         -0.185383 (  -0.01526%)
      ideal mu1:      -0.481272033700
             Q0:  -11751.036488396232
             G0:      -0.000000001526
   RMS gradient:       0.000000003577

Reusing previously generated solute cavity.
MG BCs: +ve charge blocks (gridpoints):     29054 (   19011597).
MG BCs: -ve charge blocks (gridpoints):      8451 (    1046664).
MG BCs:     Elided blocks (gridpoints):    180991 (  186161564).
MG BCs: Computational effort saved:  99.9818%.
MG BCs: Charge after coarse-graining:           -9.0009444.
MG DL_MG: Calling solver with defect correction order = 8
MG DL_MG: Solver finished
MG Hartree energy from (\int phi*rho dr):              1215.094343
MG Hartree energy from (\int eps (grad phi)^2 dr):     1214.902678
MG Discrepancy due to finite box and discretization:     -0.191665 (  -0.01577%)
MG Correction to account for finite box:                  0.006283
MG Remaining discrepancy, due to discretization:         -0.185383 (  -0.01526%)
     Trial step:       0.071503535944
             Q1:  -11751.036488396116
 Quadratic coef:       0.000000000226
 Linear coef   :      -0.000000000109
           Qmin:  -11751.036488396245
Quadratic minimum step length (  0.017295012575) accepted
    Initial Ne1:    7234.00000000
      Final Ne1:    7234.00000000

=================== Penalty functional idempotency correction ==================
 RMS occupancy error at iteration   1:  0.000000 (step -0.5000 Ne1=   7234.0000)
            Final RMS occupancy error   :  0.000000 (Ne1=   7234.0000)
               Final occupancy bounds   : [  0.0000,  1.0000]
================================================================================

    9        -1.175103648840E+04     3.5766E-09     3.2375E-09     0.0000E+00

Reusing previously generated solute cavity.
MG BCs: +ve charge blocks (gridpoints):     29054 (   19011597).
MG BCs: -ve charge blocks (gridpoints):      8451 (    1046664).
MG BCs:     Elided blocks (gridpoints):    180991 (  186161564).
MG BCs: Computational effort saved:  99.9818%.
MG BCs: Charge after coarse-graining:           -9.0009444.
MG DL_MG: Calling solver with defect correction order = 8
MG DL_MG: Solver finished
MG Hartree energy from (\int phi*rho dr):              1215.094347
MG Hartree energy from (\int eps (grad phi)^2 dr):     1214.902682
MG Discrepancy due to finite box and discretization:     -0.191665 (  -0.01577%)
MG Correction to account for finite box:                  0.006283
MG Remaining discrepancy, due to discretization:         -0.185383 (  -0.01526%)
      ideal mu1:      -0.481272032288
   10        -1.175103648840E+04     3.4164E-09     3.0924E-09     0.0000E+00
Finished density kernel iterations (  10)

Writing density kernel to file "complex_30501.dkn" ... done


>>> Density kernel optimised for the current NGWF basis:
     ~~~~~~~~~~~~~~~~~~~~~~~~~~~~~~~~~~~~~~~~~~~~~~~~~~~~~~~~~~~
     Total energy                =  -1.17510364883962E+04  Eh
     Estimated bandgap           =   8.8864E-02  Eh
     RMS occupancy error         =   2.4513E-16
     [H,K] commutator            =   3.0924E-09
     Occupancy bounds            = [  0.000:  1.000]
     ~~~~~~~~~~~~~~~~~~~~~~~~~~~~~~~~~~~~~~~~~~~~~~~~~~~~~~~~~~~




################################################################################
########################### NGWF CG iteration  005 #############################
################################################################################
****** Reciprocal space K.E. preconditioning with k_zero =  3.5000 a0^-1 *******

>>> Checking for convergence of NGWFs: 
           ........................................................
           |         *** NGWF optimisation converged ***          |
           | RMS NGWF gradient =    0.00000090200324              |
           | Criteria satisfied:                                  |
           | -> RMS NGWF gradient lower than set threshold.       |
           ========================================================

Reusing previously generated solute cavity.
MG BCs: +ve charge blocks (gridpoints):     29054 (   19011597).
MG BCs: -ve charge blocks (gridpoints):      8451 (    1046664).
MG BCs:     Elided blocks (gridpoints):    180991 (  186161564).
MG BCs: Computational effort saved:  99.9818%.
MG BCs: Charge after coarse-graining:           -9.0009444.
MG DL_MG: Calling solver with defect correction order = 8
MG DL_MG: Solver finished
MG Hartree energy from (\int phi*rho dr):              1215.094347
MG Hartree energy from (\int eps (grad phi)^2 dr):     1214.902682
MG Discrepancy due to finite box and discretization:     -0.191665 (  -0.01577%)
MG Correction to account for finite box:                  0.006283
MG Remaining discrepancy, due to discretization:         -0.185383 (  -0.01526%)

================================================================================
           ---------------- ENERGY COMPONENTS (Eh) ----------------
           | Kinetic                    :     8584.18191249725714 |
           | Pseudo. (local,OBC,corr'd) :    -5085.22448634834473 |
           | Pseudopotential (non-local):     1412.41532614231437 |
           | Hartree (molecular)        :     1215.09434738873574 |
           | Exchange-correlation       :    -3378.31194715203128 |
           | Ion-ion (open BC)          :   838293.92558242660016 |
           | Dispersion Correction      :       -3.25951928532202 |
           | Smeared ion non-self corr. :  -838245.58108504826669 |
           | Smeared ion self corr.     :   -14544.93686558573609 |
           | Solvent cavitation energy  :        2.34900495797597 |
           | Solute-solvent dis-rep en. :       -1.68875838941288 |
           | Total                      :   -11751.03648839620109 |
           --------------------------------------------------------
           ------ LOCAL ENERGY COMPONENTS FROM MATRIX TRACES ------
           | Pseudopotential (local)    :    -5085.22448634835382 |
           | Hartree                    :    -2002.33736380393248 |
           --------------------------------------------------------
           Integrated density           :     7233.99999999891497
           Integrated density tr(KS)    :     7234.00000000000000
================================================================================


                        <<<<< CALCULATION SUMMARY >>>>>                         
|ITER|    RMS GRADIENT   |     TOTAL ENERGY    |   step   |     Epredicted              
   0     0.00003989236398 -11750.97435037815012   0.618340 -11751.02793899232893        
   1     0.00001027921052 -11751.03584265173413   0.093144 -11751.03637862105643        
   2     0.00000454008969 -11751.03646559268236   0.017021 -11751.03648469878863        
   3     0.00000203612194 -11751.03648747573607   0.003473 -11751.03648825982418        
   4     0.00000090200324 -11751.03648839623202  <-- CG                                 

=================== Finished the calculation in solvent ========================
= Adjusting the following parameters: 
= read_denskern: F
= read_tightbox_ngwfs: F
= maxit_pen: 0 (restored to user-specified value)
= restart read filename prefix: ""
= restart write filename prefix: ""
================================================================================

================================================================================
IS: Calculation in solvent completed (NGWFs converged).      

Individual components of total energy in solvent:     hartree           kcal/mol
- Usual non-electrostatic DFT terms:    -12966.79108235353124    -8136784.075845
- Electrostatic fixed charge energy:      1215.09434738873574      762483.198325
- Apolar cavitation energy:                  2.34900495797597        1474.022834
- Apolar dispersion-repulsion energy:       -1.68875838941288       -1059.711866
 -------------------------------------------------------------------------------
- Total energy in solvent:              -11751.03648839623202    -7373886.566553

Components of total energy in solvent:                hartree           kcal/mol
- Usual non-electrostatic DFT terms:    -12966.79108235353124    -8136784.075845
- Electrostatic energy:                   1215.09434738873574      762483.198325
- Apolar energy terms:                       0.66024656856310         414.310968
 -------------------------------------------------------------------------------
- Total energy in solvent:              -11751.03648839623202    -7373886.566553

Calculation of free energy of solvation:              hartree           kcal/mol
- Total energy in solvent:         (+)  -11751.03648839623202    -7373886.566553
- Total energy in vacuum:          (-)  -11747.28486123285256    -7371532.385016
 -------------------------------------------------------------------------------
- Total free energy of solvation:           -3.75162716337945       -2354.181537

Components of polar term in f.e. of solvation:        hartree           kcal/mol
- Electrostatic:                            -4.65259116662583       -2919.544973
- Change in nonelectrostatic DFT terms:      0.24071743468267         151.052468
 -------------------------------------------------------------------------------
- Polar term in f.e. of solvation:          -4.41187373194316       -2768.492505

Components of free energy of solvation:               hartree           kcal/mol
- Polar term in f.e. of solvation: (+)      -4.41187373194316       -2768.492505
- Apolar (cavitation, dis., rep.): (+)       0.66024656856310         414.310968
 -------------------------------------------------------------------------------
- Total free energy of solvation:           -3.75162716338006       -2354.181537
================================================================================


------------------------------ TIMING INFORMATION ------------------------------
AVERAGE TIME:   41359.488s on     60 node(s)                                    
TOTAL TIME:     41359.488s on     60 node(s)                                    
================= AVERAGE TIMINGS FROM ALL NODES (CUMULATIVE) ==================
|| TAG                                    #calls    cpu time   %total  Gflops ||
|| work_imbalance                       :     1        0.00s   0.000%  ------ ||
|| sparse_set_to_garbage                :   230        0.04s   0.000%  ------ ||
|| parallel_prepare_fd_halos_request    :  2433        0.04s   0.000%  ------ ||
|| ngwfs_initialise_from_radial         :     1        0.11s   0.000%  ------ ||
|| basis_extract_function_from_box      :  4474        0.20s   0.000%  ------ ||
|| parallel_prepare_fd_halos_satisfy    :  2433        0.85s   0.002%  ------ ||
|| parallel_prepare_fd_halos_alloc      :  2433        2.13s   0.005%  ------ ||
|| pseudopotentials_nonlocal_mat        :    39        2.78s   0.007%  ------ ||
|| openbc_locps_radial                  :     1        3.78s   0.009%  ------ ||
|| density_init_guess_real              :     1        7.88s   0.019%  ------ ||
|| restart_kernel_read                  :     1        8.70s   0.021%  ------ ||
|| parallel_prepare_fd_halos_comms_imbal:  2433       10.65s   0.026%  ------ ||
|| restart_ngwfs_tightbox_input         :     1       18.40s   0.044%  ------ ||
|| sparse_init                          :     2       22.37s   0.054%  ------ ||
|| parallel_prepare_fd_halos_clear      :  2433       24.94s   0.060%  ------ ||
|| projectors_func_ovlp_box             :    39       33.97s   0.082%  ------ ||
|| palser_mano_kernel_optimise          :     1       34.64s   0.084%  ------ ||
|| parallel_prepare_fd_halos_comms_wait :  2433       34.72s   0.084%  ------ ||
|| function_ops_brappd_ketppd           :    39       37.22s   0.090%  ------ ||
|| projectors_init_fftbox_recip         :   179       41.59s   0.101%  ------ ||
|| basis_copy_function_to_box           : 73119       52.18s   0.126%  ------ ||
|| pseudo_make_structure_factor         :     2       58.64s   0.142%  ------ ||
|| ngwf_gradient_coeffs                 :    20       62.65s   0.151%  ------ ||
|| fourier_apply_box_pair               :  6510       67.22s   0.163% 560.686 ||
|| parallel_prepare_fd_halos            :  2433       73.36s   0.177%  ------ ||
|| sparse_embed_hotelling_invert_embed  :    39       93.67s   0.226%  ------ ||
|| integrals_kinetic                    :    39      189.25s   0.458%  ------ ||
|| restart_kernel_write                 :    21      191.75s   0.464%  ------ ||
|| finite_difference_derivative         :  2433      204.25s   0.494%  ------ ||
|| projectors_gradient_batch            :   140      212.09s   0.513%  ------ ||
|| basis_dot_function_with_box          : 11.04M     222.34s   0.538%  ------ ||
|| sparse_trace                         :  6452      241.14s   0.583%  ------ ||
|| fourier_apply_cell_backward          :  1623      247.88s   0.599%  95.938 ||
|| openbc_locps_on_grid                 :     2      289.67s   0.700%  ------ ||
|| fourier_apply_cell_forward           :  1621      322.88s   0.781%  73.562 ||
|| kernel_purify                        :   620      365.23s   0.883%  ------ ||
|| hamiltonian_energy_components        :     4      492.35s   1.190%  ------ ||
|| basis_add_function_to_box            : 23.18M     527.15s   1.275%  ------ ||
|| lnv_gradient_norm                    :   200      537.09s   1.299%  ------ ||
|| kernel_fix                           :   200      623.19s   1.507%  ------ ||
|| xc_energy_potential                  :   405      661.42s   1.599%  ------ ||
|| integrals_locpot_mat_els_batch       :  1463      922.64s   2.231%  ------ ||
|| ngwf_gradient_build_batch            :   140      936.10s   2.263%  ------ ||
|| ngwf_gradient_batch                  :   140     1294.62s   3.130%  ------ ||
|| density_batch_row_sums               :  2828     1409.36s   3.408%  ------ ||
|| ngwf_gradient_lnv                    :    20     1452.50s   3.512%  ------ ||
|| cell_grid_deposit_box_real           : 46917     1749.92s   4.231%  ------ ||
|| cell_grid_extract_box_real           : 52325     2110.46s   5.103%  ------ ||
|| sparse_product                       :  8213     2239.92s   5.416%  ------ ||
|| density_fftbox_deposit_to_cell       : 44440     2647.52s   6.401%  ------ ||
|| restart_ngwfs_tightbox_output        :    18     3207.91s   7.756%  ------ ||
|| density_fftbox_interpolate_multiply  : 44440     4538.53s  10.973%  ------ ||
|| potential_apply_to_ngwf_batch        :  1463     4564.35s  11.036%  ------ ||
|| integrals_locpot_dbl_grid            :   209     5515.22s  13.335%  ------ ||
|| fourier_apply_box                    : 152.5k    5601.52s  13.543% 763.553 ||
|| multigrid_prepare_bound_cond         :   405     6016.87s  14.548%  ------ ||
|| density_batch_interp_deposit         :  2828     8341.23s  20.168%  ------ ||
|| dl_mg_solver_calls                   :   405     9721.20s  23.504%  ------ ||
|| density_on_dbl_grid                  :   404    10134.33s  24.503%  ------ ||
|| multigrid_calculate_hartree          :   405    16013.31s  38.717%  ------ ||
|| hamiltonian_lhxc_calculate           :   400    26827.99s  64.865%  ------ ||
|| lnv_denskernel_optimise_cg           :    20    33421.02s  80.806%  ------ ||
|| ngwf_cg_optimise                     :     2    40349.92s  97.559%  ------ ||
|| total_time                           :     1    41359.49s 100.000%  ------ ||
================================================================================
Overhead of generating timer report: 
- 0 ms averaging over threads,
- 15 ms ensuring consistency across MPI ranks,
- 0 ms printing in order.

Job completed: 02-05-2020 19:28 (+0100)

Application 40445189 resources: utime ~8200599s, stime ~283044s, Rss ~3743412, inblocks ~396663747, outblocks ~84243183
