 +---------------------------------------------------------------+
 |                                                               |
 |        ####### #     # ####### ####### ####### ######         |
 |        #     # ##    # #          #    #       #     #        |
 |        #     # # #   # #          #    #       #     #        |
 |        #     # #  #  # #####      #    #####   ######         |
 |        #     # #   # # #          #    #       #              |
 |        #     # #    ## #          #    #       #              |
 |        ####### #     # #######    #    ####### #              |
 |                                                               |
 |        Linear-Scaling Ab Initio Total Energy Program          |
 |                                                               |
 |          Release for academic collaborators of ODG            |
 |                                             Version 5.3.2.6.  |
 |                                                               |
 +---------------------------------------------------------------+
 |                                                               |
 |  Authors:                                                     |
 |  Jacek Dziedzic, Peter D. Haynes, Nicholas D. M. Hine,        |
 |  Arash. A. Mostofi, Mike C. Payne and Chris-Kriton Skylaris   |
 |                                                               |
 |  Contributors:                                                |
 |  J. Aarons, L. Andrinopoulos, P. W. Avraam, R. A. Bell,       |
 |  A. Bhandari, G. A. Bramley, R. J. Charlton, S. J. Clark,     |
 |  R. J. Clements, G. C. Constantinescu, F. Corsetti,           |
 |  N. Corsini, O. Dieguez, S. M. M. Dubois, K. K. B. Duff,      |
 |  J. M. Escartin, A. Greco, H. Helal, Q. O. Hill, L. P. Lee,   |
 |  J.-H. Li, E. B. Linscott, G. Moynihan, D. D. O`Regan,        |
 |  O. K. Okan, M. J. S. Phipps, C. J. Pickard,                  |
 |  J. C. A. Prentice, M. I. J. Probert, L. E. Ratcliff,         |
 |  M. Robinson, A. Ruiz Serrano, J. S. Spencer, E. W. Tait,     |
 |  G. Teobaldi, D. Turban, V. Vitale, K. A. Wilkinson,          |
 |  C. Weber, J. C. Womack, N. Yeung and T. J. Zuehlsdorff       |
 |                                                               |
 |                                   Copyright (c) 2004-2019     |
 |                                                               |
 |  Please cite:                                                 |
 |  "Introducing ONETEP: Linear-scaling density functional       |
 |   simulations on parallel computers".                         |
 |   C.-K. Skylaris, P. D. Haynes, A. A. Mostofi, M. C. Payne.   |
 |   J. Chem. Phys. 122 084119 (2005).                           |
 |                                                               |
 |          in all publications arising from your use of ONETEP. |
 |                                                               |
 +---------------------------------------------------------------+
 |                                                               |
 |   ONETEP is based on developments described in the following  |
 |   publications:                                               |
 |                                                               |
 |  "Nonorthogonal generalized Wannier function pseudopotential  |
 |   plane-wave method".                                         |
 |   C.-K. Skylaris, A. A. Mostofi, P. D. Haynes, O. Dieguez,    |
 |   M. C. Payne.                                                |
 |   Phys. Rev. B 66 035119 (2002).                              |
 |                                                               |
 |  "Preconditioned iterative minimization for linear-scaling    |
 |   electronic structure calculations".                         |
 |   A. A. Mostofi, P. D. Haynes, C.-K. Skylaris, M. C. Payne.   |
 |   J. Chem. Phys. 119(17), pp.8842-8848 (2003).                |
 |                                                               |
 |  "Total-energy calculations on a real space grid with         |
 |   localized functions and a plane-wave basis".                |
 |   A. A. Mostofi, C.-K. Skylaris, P. D. Haynes, M. C. Payne.   |
 |   Comput. Phys. Commun. 147, pp.788-802 (2002).               |
 |                                                               |
 |  "Accurate kinetic energy evaluation in electronic structure  |
 |   calculations with localized functions on real space grids"  |
 |   C.-K. Skylaris, A. A. Mostofi, P. D. Haynes, C. J. Pickard, |
 |   M. C. Payne.                                                |
 |   Comput. Phys. Commun. 140, pp.315-322 (2001).               |
 |                                                               |
 |  "Accurate ionic forces and geometry optimization in linear-  |
 |   scaling density-functional theory with local orbitals"      |
 |   N. D. M. Hine, M. Robinson, P. D. Haynes, C.-K. Skylaris,   |
 |   M. C. Payne, and A. A. Mostofi.                             |
 |   Phys. Rev. B 83 195102 (2011).                              |
 |                                                               |
 +---------------------------------------------------------------+

Job started: 31-03-2020 13:31 (+0100)
 
Reading parameters from file "complex_33161.dat" ...... done

If your calculation crashes here, before "Checking processes and threads..."
is displayed, then your stack size is insufficient.
If so, use "ulimit -s unlimited" at runtime.
You can disable this check with "check_stack_size F".

Checking processes and threads...
   Determining the default number of threads...
      No default threads set at compilation time: defaulting to 1.
      OpenMP library call suggests 4 threads.
      Hybrid MPI-OpenMP compilation detected.
      Number of MPI processes > 1.
      OMP_NUM_THREADS environment variable present and
      its value matches the one obtained from the OpenMP library call.
      Using this value as default.
      Default threads: 4
      Default applies to threads_max and threads_num_fftboxes.
      Settings in the input file override this default.
   ... done

   Running with 60 MPI processes.
   There are 6 MPI processes running on the same node as the root process.
   Each MPI process is using: 
               1 threads for simulation cell FFTs.
               1 threads for parallel FFT box operations.
               4 threads for loops over batched FFT box operations.
               4 threads in other parallel regions.
... done

Basic input checks...... done

Reading geometry and species blocks from file "complex_33161.dat" ...
  <species_atomic_set> block not found: NGWF initialisation set to SOLVE
IS: Dielectric excluded regions:
    - NONE.
    
  Number of PPD points along a3 set to 1.  This is 
  the default value, it may have been provided also in the input file.
... done
 Writing xyz coordinates to file "complex_33161.xyz" ... done


--------------------------------------------------------------------------------
---------------------------------- INPUT FILE ----------------------------------
--------------------------------------------------------------------------------

cutoff_energy       : 800 eV                                                    
xc_functional PBE                                                               
task SINGLEPOINT                                                                
write_xyz true                                                                  
output_detail VERBOSE                                                           
ngwf_threshold_orig : 0.000002                                                  
kernel_cutoff       : 1000                                                      
k_zero              : 3.5                                                       
elec_cg_max 0                                                                   
occ_mix 1.0                                                                     
dispersion 1                                                                    
maxit_ngwf_cg 40                                                                
minit_lnv 10                                                                    
maxit_lnv 10                                                                    
write_denskern T                                                                
write_tightbox_ngwfs T                                                          
charge 9                                                                        
is_implicit_solvent T                                                           
is_auto_solvation T                                                             
is_include_apolar T                                                             
is_smeared_ion_rep T                                                            
is_solvent_surf_tension 4.7624E-5 Ha/bohr**2                                    
is_apolar_scaling_factor 0.281075                                               
is_solvation_beta 1.3                                                           
is_density_threshold 0.00035                                                    
is_bulk_permittivity 78.54                                                      
is_dielectric_model fix_initial                                                 
is_smeared_ion_width 0.8                                                        
mg_defco_fd_order 8                                                             
is_bc_coarseness 10                                                             
is_bc_surface_coarseness 1                                                      
fine_grid_scale 2.0                                                             
%block species                                                                  
N   N   7 4 8.0                                                                 
H   H   1 1 8.0                                                                 
C   C   6 4 8.0                                                                 
S   S  16 9 8.0                                                                 
O   O   8 4 8.0                                                                 
F   F   9 9 8.0                                                                 
%endblock species                                                               
%block species_pot                                                              
N   N_00.recpot                                                                 
H   H_04.recpot                                                                 
C   C_01.recpot                                                                 
S   S_00.recpot                                                                 
O   O_02.recpot                                                                 
F   F_00.recpot                                                                 
%endblock species_pot                                                           
%block lattice_cart                                                             
139.898   0.000   0.000                                                         
0.000 144.87   0.000                                                            
0.000   0.000   168.12                                                          
%endblock lattice_cart                                                          
%block positions_abs                                                            
     Hash =   000006840125226981481904
%endblock positions_abs                                                         

--------------------------------------------------------------------------------
-------------------------------- END INPUT FILE --------------------------------
--------------------------------------------------------------------------------


 
 ESDF WARNING(1): "kernelcutoff" (esdf_physical) has no units. Assume "bohr".
 ESDF WARNING(2): "kzero" (esdf_physical) has no units. Assume "1/bohr".
 ESDF WARNING(3
 ): "issmearedionwidth" (esdf_physical) has no units. Assume "bohr".
<<<<<<<<<<<<<<<<<<<<<<<<<<<<<<<<< Full system >>>>>>>>>>>>>>>>>>>>>>>>>>>>>>>>>>
WARNING in pseudopotentials_read_species: string "LDA" found in pseudopotential
file "F_00.recpot", yet xc_functional = "PBE".
 
<<<<<<<<<<<<<<<<<<<<<<<<< Pseudopotential information >>>>>>>>>>>>>>>>>>>>>>>>>>
File: N_00.recpot [ 2001 points up to Gmax=  52.9 (1/bohr)]
  Atomic number:  7;  ionic charge:  5.000000
    Shell 1: l = 0; rc = 1.48 bohr
File: H_04.recpot [ 2001 points up to Gmax=  52.9 (1/bohr)]
  Atomic number:  1;  ionic charge:  1.000000
    Local potential
File: C_01.recpot [ 2001 points up to Gmax=  52.9 (1/bohr)]
  Atomic number:  6;  ionic charge:  4.000000
    Shell 1: l = 0; rc = 1.48 bohr
File: S_00.recpot [ 2001 points up to Gmax=  52.9 (1/bohr)]
  Atomic number: 16;  ionic charge:  6.000000
    Shell 1: l = 0; rc = 1.90 bohr
    Shell 2: l = 2; rc = 1.84 bohr
File: O_02.recpot [ 2001 points up to Gmax=  52.9 (1/bohr)]
  Atomic number:  8;  ionic charge:  6.000000
    Shell 1: l = 0; rc = 1.31 bohr
File: F_00.recpot [ 2001 points up to Gmax=  52.9 (1/bohr)]
  Atomic number:  9;  ionic charge:  7.000000
    Shell 1: l = 0; rc = 1.60 bohr
<<<<<<<<<<<<<<<<<<<<<<<<<<<<<<<<<<<<<<<<>>>>>>>>>>>>>>>>>>>>>>>>>>>>>>>>>>>>>>>>

-------------------------- Atom counting information ---------------------------
Symbol    Natoms    Nngwfs    Nprojs
  N        237       948       237
  H       1317      1317         0
  C        816      3264       816
  S          6        54        36
  O        239       956       239
  F          1         9         1
.......   ......    ......    ......
Totals:   2616      6548      1329
--------------------------------------------------------------------------------

=============================== PSINC grid sizes ===============================
                      Simulation cell:  275 x 286 x 336
                              FFT-box:   99 x  99 x  99
                                  PPD:    5 x  11 x   1
Grid space d1=  0.508720000000a0 (KE cutoff=  29.35259Eh = 798.72452eV)
Grid space d2=  0.506538461538a0 (KE cutoff=  29.60596Eh = 805.61916eV)
Grid space d3=  0.500357142857a0 (KE cutoff=  30.34197Eh = 825.64705eV)
================================================================================

********************* Fourier parallelisation information **********************
       Coarse grid (whole simulation cell) dimensions:    275   286   336
          Real-space ('12') slabs/node (min max mean):      5     6     5
         Recip-space ('23') slabs/node (min max mean):      2     3     2
********************************************************************************

********************* Fourier parallelisation information **********************
       Double grid (whole simulation cell) dimensions:    550   572   672
          Real-space ('12') slabs/node (min max mean):     11    12    11
         Recip-space ('23') slabs/node (min max mean):      4     5     4
********************************************************************************
ONETEP fine grid is 550 x 572 x 672 gridpoints, 139.8980 x 144.8700 x 168.1200 bohr.
FD multigrid is     545 x 569 x 665 gridpoints, 138.6262 x 144.1102 x 166.3688 bohr.


Calculating local pseudopotential in open BC on a radial grid ...
Discrepancy between calculated realspace psloc and -Z/x on [5a0,262.342a0]:
max |rel. diff| # avg |rel. diff| #  avg rel. diff #  f # pseudopotential file
 0.000258413739    0.000003708905   0.000000070960   56  'N_00.recpot'
 0.000398954828    0.000016185045  -0.000000074508   56  'H_04.recpot'
 0.000375346405    0.000017198923   0.000000144535   56  'C_01.recpot'
 0.000466850533    0.000020125278   0.000000461745   56  'S_00.recpot'
 0.000671508953    0.000026045986   0.000000155458   56  'O_02.recpot'
 0.002873965647    0.000134299806   0.000000884984   56  'F_00.recpot'
... done

Atom SCF Calculation for N  : Z (AE atom) =   7 : Z (PS atom) =   5
Config String:
Orbitals (num,occ):  2     2.00 3.00
Orbitals   (num,l):  2        0    1
Real-space Grid (nr,dr,rmax): 1203    0.0066555740    8.0000000000
Spherical Bessel Basis (nsws,lmax,cutoff):   47    1  176.3951722778
Confining potential (l,width,scale):  0    3.0000000000  100.0000000000
Confining potential (l,width,scale):  1    3.0000000000  100.0000000000
  1         -4.7312375307   -3.4155304497    7.0523828109   -1.9351020946
  2         -9.7309464766   -2.0532547791    8.2966052865   -2.2494486027
  3         -9.6627394379   -2.1124926340    8.2327997121   -2.2369778124
  4         -9.6814993499   -2.1215521045    8.2229805960   -2.2365178421
  5         -9.6843326483   -2.1250939529    8.2191374534   -2.2362718126
  6         -9.6859628709   -2.1267894855    8.2172963573   -2.2362066344
  7         -9.6867347035   -2.1276425665    8.2163697352   -2.2361903369
  8         -9.6870802100   -2.1280764625    8.2158983890   -2.2361891460
  9         -9.6872290423   -2.1282977424    8.2156580222   -2.2361920435
 10         -9.6872901988   -2.1284107021    8.2155353368   -2.2361953393
 11         -9.6873135296   -2.1284684031    8.2154726809   -2.2361979819
 12         -9.6873212476   -2.1284978948    8.2154406648   -2.2361998431
 13         -9.6873229586   -2.1285129774    8.2154242957   -2.2362010676
 14         -9.6873226456   -2.1285206957    8.2154159216   -2.2362018403
 15         -9.6873218534   -2.1285246479    8.2154116349   -2.2362023142
 16         -9.6873212599   -2.1285262679    8.2154098784   -2.2362025420
 17         -9.6873207834   -2.1285272564    8.2154088068   -2.2362026955
 18         -9.6873204210   -2.1285278596    8.2154081529   -2.2362027982
 19         -9.6873201550   -2.1285282280    8.2154077538   -2.2362028667
 20         -9.6873199645   -2.1285284529    8.2154075102   -2.2362029121
 21         -9.6873198305   -2.1285285903    8.2154073614   -2.2362029421
 22         -9.6873197377   -2.1285286742    8.2154072705   -2.2362029618
Atom SCF converged after  22 iterations to a total energy of     -9.68731974

Atom SCF Calculation for H  : Z (AE atom) =   1 : Z (PS atom) =   1
Config String:
Orbitals (num,occ):  1     1.00
Orbitals   (num,l):  1        0
Real-space Grid (nr,dr,rmax): 1203    0.0066555740    8.0000000000
Spherical Bessel Basis (nsws,lmax,cutoff):   47    0  176.3951722778
Confining potential (l,width,scale):  0    3.0000000000  100.0000000000
  1         -0.3194257691   -0.2393854593    0.2820953124   -0.2424203209
  2         -0.3951823392   -0.2377116493    0.2886404059   -0.2475147891
  3         -0.4317044583   -0.2352244387    0.2921333887   -0.2514046172
  4         -0.4470703708   -0.2341892222    0.2934391879   -0.2531009782
  5         -0.4532132900   -0.2338556667    0.2938388426   -0.2537313520
  6         -0.4556579251   -0.2337612552    0.2939448584   -0.2539550462
  7         -0.4566418315   -0.2337377355    0.2939680120   -0.2540342273
  8         -0.4570437922   -0.2337331116    0.2939708287   -0.2540627372
  9         -0.4572102946   -0.2337328328    0.2939698291   -0.2540732650
 10         -0.4572800424   -0.2337332404    0.2939687193   -0.2540772588
 11         -0.4573095100   -0.2337335791    0.2939680317   -0.2540788122
 12         -0.4573220379   -0.2337337762    0.2939676699   -0.2540794294
 13         -0.4573273880   -0.2337338775    0.2939674931   -0.2540796787
 14         -0.4573296803   -0.2337339266    0.2939674099   -0.2540797808
 15         -0.4573306647   -0.2337339495    0.2939673718   -0.2540798230
 16         -0.4573310882   -0.2337339601    0.2939673545   -0.2540798406
 17         -0.4573312706   -0.2337339649    0.2939673467   -0.2540798479
 18         -0.4573313493   -0.2337339670    0.2939673433   -0.2540798510
Atom SCF converged after  18 iterations to a total energy of     -0.45733135

Atom SCF Calculation for C  : Z (AE atom) =   6 : Z (PS atom) =   4
Config String:
Orbitals (num,occ):  2     2.00 2.00
Orbitals   (num,l):  2        0    1
Real-space Grid (nr,dr,rmax): 1203    0.0066555740    8.0000000000
Spherical Bessel Basis (nsws,lmax,cutoff):   47    1  176.3951722778
Confining potential (l,width,scale):  0    3.0000000000  100.0000000000
Confining potential (l,width,scale):  1    3.0000000000  100.0000000000
  1         -5.2976922011   -1.3069684169    4.5135249990   -1.4493313817
  2         -5.3721716256   -1.3429755895    4.4750154450   -1.4361613026
  3         -5.3809959565   -1.3617365618    4.4541655428   -1.4305930207
  4         -5.3918938866   -1.3667928461    4.4484735100   -1.4294652294
  5         -5.3956096428   -1.3688539142    4.4461376126   -1.4290734646
  6         -5.3968271862   -1.3696852393    4.4451910874   -1.4289366866
  7         -5.3972028401   -1.3700178062    4.4448112275   -1.4288900460
  8         -5.3973067903   -1.3701500158    4.4446598370   -1.4288749220
  9         -5.3973286940   -1.3702023868    4.4445997329   -1.4288704293
 10         -5.3973289850   -1.3702230869    4.4445759233   -1.4288693188
 11         -5.3973254264   -1.3702312560    4.4445665049   -1.4288691775
 12         -5.3973224003   -1.3702344755    4.4445627836   -1.4288692549
 13         -5.3973208708   -1.3702354890    4.4445616088   -1.4288693270
 14         -5.3973198783   -1.3702360102    4.4445610034   -1.4288693814
 15         -5.3973192535   -1.3702362780    4.4445606917   -1.4288694190
 16         -5.3973188684   -1.3702364155    4.4445605313   -1.4288694437
 17         -5.3973186349   -1.3702364860    4.4445604489   -1.4288694595
 18         -5.3973184951   -1.3702365221    4.4445604065   -1.4288694693
 19         -5.3973184122   -1.3702365405    4.4445603848   -1.4288694753
Atom SCF converged after  19 iterations to a total energy of     -5.39731841

Atom SCF Calculation for S  : Z (AE atom) =  16 : Z (PS atom) =   6
Config String:
Orbitals (num,occ):  3     2.00 4.00 0.00
Orbitals   (num,l):  3        0    1    2
Real-space Grid (nr,dr,rmax): 1203    0.0066555740    8.0000000000
Spherical Bessel Basis (nsws,lmax,cutoff):   47    2  176.3951722778
Confining potential (l,width,scale):  0    3.0000000000  100.0000000000
Confining potential (l,width,scale):  1    3.0000000000  100.0000000000
Confining potential (l,width,scale):  2    3.0000000000  100.0000000000
  1        -12.4735062396   -1.0328741412   10.1554312477   -2.4512393157
  2         -9.9458301913   -2.4607392455    8.3041325857   -2.0306994528
  3        -10.1450417646   -2.2931184565    8.4831893826   -2.0812538287
  4        -10.1528335592   -2.2733105793    8.5050388867   -2.0896035179
  5        -10.1571940363   -2.2633716629    8.5160794258   -2.0939370707
  6        -10.1594380571   -2.2584938667    8.5215163935   -2.0961289008
  7        -10.1605856507   -2.2561081821    8.5241804044   -2.0972291378
  8        -10.1611799191   -2.2549395235    8.5254868240   -2.0977806248
  9        -10.1614918752   -2.2543658586    8.5261285885   -2.0980571586
 10        -10.1616572884   -2.2540839121    8.5264441898   -2.0981959233
 11        -10.1617455602   -2.2539453058    8.5265994231   -2.0982656006
 12        -10.1617928447   -2.2538772062    8.5266757320   -2.0983006047
 13        -10.1618182292   -2.2538437891    8.5267131983   -2.0983181961
 14        -10.1618318741   -2.2538274201    8.5267315620   -2.0983270391
 15        -10.1618392144   -2.2538194197    8.5267405433   -2.0983314852
 16        -10.1618431651   -2.2538155200    8.5267449245   -2.0983337210
 17        -10.1618452923   -2.2538136252    8.5267470551   -2.0983348455
 18        -10.1618464380   -2.2538127080    8.5267480875   -2.0983354110
 19        -10.1618470552   -2.2538122659    8.5267485856   -2.0983356955
 20        -10.1618473878   -2.2538120540    8.5267488248   -2.0983358386
 21        -10.1618475670   -2.2538119530    8.5267489389   -2.0983359106
 22        -10.1618476637   -2.2538119053    8.5267489929   -2.0983359468
Atom SCF converged after  22 iterations to a total energy of    -10.16184766

Atom SCF Calculation for O  : Z (AE atom) =   8 : Z (PS atom) =   6
Config String:
Orbitals (num,occ):  2     2.00 4.00
Orbitals   (num,l):  2        0    1
Real-space Grid (nr,dr,rmax): 1203    0.0066555740    8.0000000000
Spherical Bessel Basis (nsws,lmax,cutoff):   47    1  176.3951722778
Confining potential (l,width,scale):  0    3.0000000000  100.0000000000
Confining potential (l,width,scale):  1    3.0000000000  100.0000000000
  1         -1.8735052164   -7.5539365035   10.1554312477   -2.4512393157
  2        -16.0318313751   -3.1285771268   13.6395848164   -3.2358799643
  3        -15.9524020423   -3.0762819706   13.6967272503   -3.2536856837
  4        -15.8521515939   -3.0781493909   13.6951909330   -3.2561700440
  5        -15.8357139793   -3.0748501933   13.6988803334   -3.2580493133
  6        -15.8246052853   -3.0740779781   13.6997881576   -3.2588327446
  7        -15.8189019501   -3.0737449687   13.7001869911   -3.2592378801
  8        -15.8159785510   -3.0736026016   13.7003615168   -3.2594475790
  9        -15.8144776168   -3.0735437994   13.7004360379   -3.2595560735
 10        -15.8137058024   -3.0735207882   13.7004667348   -3.2596122456
 11        -15.8133083127   -3.0735125946   13.7004786868   -3.2596413656
 12        -15.8131032938   -3.0735102195   13.7004828997   -3.2596564858
 13        -15.8129973902   -3.0735099286   13.7004840891   -3.2596643505
 14        -15.8129426040   -3.0735102506   13.7004842061   -3.2596684489
 15        -15.8129142203   -3.0735106556   13.7004840157   -3.2596705887
 16        -15.8128994940   -3.0735109855   13.7004837906   -3.2596717080
 17        -15.8128918425   -3.0735112169   13.7004836103   -3.2596722946
 18        -15.8128878614   -3.0735113674   13.7004834848   -3.2596726026
 19        -15.8128857871   -3.0735114608   13.7004834035   -3.2596727646
 20        -15.8128847048   -3.0735115170   13.7004833533   -3.2596728500
 21        -15.8128841394   -3.0735115501   13.7004833231   -3.2596728951
 22        -15.8128838436   -3.0735115693   13.7004833054   -3.2596729190
 23        -15.8128836887   -3.0735115802   13.7004832951   -3.2596729316
 24        -15.8128836074   -3.0735115864   13.7004832893   -3.2596729383
Atom SCF converged after  24 iterations to a total energy of    -15.81288361

Atom SCF Calculation for F  : Z (AE atom) =   9 : Z (PS atom) =   7
Config String:
Orbitals (num,occ):  5     2.00 5.00 0.00 0.00 0.00
Orbitals   (num,l):  5        0    1    0    1    2
Real-space Grid (nr,dr,rmax): 1203    0.0066555740    8.0000000000
Spherical Bessel Basis (nsws,lmax,cutoff):   47    2  176.3951722778
Confining potential (l,width,scale):  0    3.0000000000  100.0000000000
Confining potential (l,width,scale):  1    3.0000000000  100.0000000000
Confining potential (l,width,scale):  2    3.0000000000  100.0000000000
  1          2.7613408675  -14.5815130354   13.8226703094   -2.9941905181
  2        -23.6468980113   -4.9263326541   20.5563421412   -4.3754293297
  3        -24.5333043594   -4.3845963970   21.1176052958   -4.4841731563
  4        -24.3589864791   -4.3106783108   21.1950887716   -4.4997202795
  5        -24.2648391338   -4.2783243831   21.2295118026   -4.5072738146
  6        -24.2274338603   -4.2663478973   21.2423649225   -4.5102591768
  7        -24.2052315491   -4.2595041622   21.2497430410   -4.5120310941
  8        -24.1920610535   -4.2555995140   21.2539669715   -4.5130761189
  9        -24.1842594614   -4.2533726648   21.2563826077   -4.5136908004
 10        -24.1796430262   -4.2521035456   21.2577627107   -4.5140519045
 11        -24.1769128010   -4.2513811698   21.2585501121   -4.5142639028
 12        -24.1752983031   -4.2509707627   21.2589985394   -4.5143883165
 13        -24.1743434247   -4.2507381589   21.2592533437   -4.5144613128
 14        -24.1737784708   -4.2506067164   21.2593977374   -4.5145041342
 15        -24.1734440540   -4.2505326993   21.2594793047   -4.5145292513
 16        -24.1732459871   -4.2504911905   21.2595252124   -4.5145439823
 17        -24.1731286021   -4.2504680245   21.2595509400   -4.5145526212
 18        -24.1730589855   -4.2504551689   21.2595652865   -4.5145576869
 19        -24.1730176682   -4.2504480829   21.2595732399   -4.5145606573
 20        -24.1729931274   -4.2504442088   21.2595776183   -4.5145623987
 21        -24.1729785394   -4.2504421116   21.2595800086   -4.5145634196
 22        -24.1729698603   -4.2504409903   21.2595813001   -4.5145640181
 23        -24.1729646922   -4.2504404002   21.2595819890   -4.5145643688
 24        -24.1729616119   -4.2504400960   21.2595823505   -4.5145645744
 25        -24.1729597743   -4.2504399438   21.2595825360   -4.5145646948
 26        -24.1729586769   -4.2504398706   21.2595826284   -4.5145647654
 27        -24.1729580209   -4.2504398378   21.2595826723   -4.5145648067
 28        -24.1729576283   -4.2504398249   21.2595826917   -4.5145648309
 29        -24.1729573931   -4.2504398211   21.2595826991   -4.5145648451
 30        -24.1729572521   -4.2504398214   21.2595827010   -4.5145648534
 31        -24.1729571674   -4.2504398230   21.2595827006   -4.5145648582
Atom SCF converged after  31 iterations to a total energy of    -24.17295717
 
WARNING in ngwfs_initialise: Setting radial NGWF functions for species  6 (F):
Last NGWF on atom has m = -2 and does not complete set of m-values for l = 2.
This breaks symmetry and may cause unstable NGWF optimisation and poor 
convergence. Suggest increasing number of NGWFs per atom from   9 to  13.
NB: All NGWF radial function angular momenta:     0    1    0    1    2
 

========================== Calculation in vacuum ==============================
= Adjusting the following parameters: 
= is_implicit_solvent: F
= is_include_apolar: F
= write_denskern: T
= write_tightbox_ngwfs: T
= restart read filename prefix: ""
= restart write filename prefix: "vacuum_"
===============================================================================

Determining parallel strategy ...
... using space-filling curve
... NGWF load balancing: max    110;  min    109;  average    109
... Projector load balancing: max     26;  min     21;  average     22
... done
Calculating direct Ion-Ion energy ...
Ion-Ion Energy        :    827443.07215419970453
======================= Empirical dispersion information =======================
Model : Elstner
WARNING: Unoptimised dispersion parameters used for F 
Dispersion Correction Energy: -0.32402761E+01 Hartree
================================================================================
Basis initialisation ...... NGWF spheres initialised
... Projector spheres initialised
... NGWF tight boxes initialised
... Tight-boxes gathered
... NGWF basis size (local,global):    1043955  62514204
... Nonlocal pseudopotential projector initialisation
... done

========================== Sparse matrix information ===========================
                        Overlap matrix filling:   6.66%
                        Density kernel filling: 100.00%
              NGWF-Proj overlap matrix filling:   1.75%
                    Hamiltonian matrix filling:   7.53%
                  NGWF diagonal matrix filling:   0.05%
                             KS matrix filling: 100.00% 
                           KSKS matrix filling: 100.00% 
================================================================================

Sparse matrix initialisation ... done

Generating smeared ion density ... done
Smeared ion self correction:     -14544.936866
Smeared ion non-self correction: -827394.543064
NGWF initialisation ...... done
============ Calculation of NGWF S^-1 using Hotelling algorithm ================ 
         Iteration  |  Frobenius norm and Maximum abs value    (of I-S*S_n^-1)   
               1       0.78767026E+02     0.98275379E+00
               2       0.76930577E+02     0.96595287E+00
               3       0.73950987E+02     0.93360885E+00
               4       0.69705126E+02     0.87387320E+00
               5       0.64404342E+02     0.77090626E+00
               6       0.58433524E+02     0.70885344E+00
               7       0.52411236E+02     0.67099125E+00
               8       0.46844502E+02     0.64355559E+00
               9       0.40799652E+02     0.60286885E+00
              10       0.32587704E+02     0.53493701E+00
              11       0.22047730E+02     0.43398769E+00
              12       0.11393416E+02     0.29983191E+00
              13       0.38404287E+01     0.15121823E+00
              14       0.65118839E+00     0.43724570E-01
              15       0.41997249E-01     0.48057997E-02
              16       0.60709441E-03     0.87971897E-04
              17       0.27291068E-06     0.41937225E-07
              18       0.12245145E-12     0.11990409E-13
================================================================================
Calculating local pseudopotential in open BC on the fine real space grid ...
... done

MG BCs: +ve charge blocks (gridpoints):     20419 (   16080517).
MG BCs: -ve charge blocks (gridpoints):      7971 (    1080044).
MG BCs:     Elided blocks (gridpoints):    189626 (  189059264).
MG BCs: Computational effort saved:  99.9862%.
MG BCs: Charge after coarse-graining:           -9.0002248.
MG DL_MG: Calling solver with defect correction order = 8
MG DL_MG: Solver finished
MG Hartree energy from (\int phi*rho dr):              1471.077276
MG Hartree energy from (\int eps (grad phi)^2 dr):     1470.467363
MG Discrepancy due to finite box and discretization:     -0.609914 (  -0.04146%)
MG Correction to account for finite box:                  0.454799
MG Remaining discrepancy, due to discretization:         -0.155115 (  -0.01054%)
Up spin density kernel initialisation ... 
======= Optimisation of K by Palser-Manolopoulos canonical purification ======== 
         Iteration  |  Band structure energy |    c_n   
               1       -2550.23596061602348    0.5304488
               2       -2725.85634416075118    0.5196962
               3       -2910.90813830788466    0.5153249
               4       -3071.83541829094884    0.5251503
               5       -3176.93284187950121    0.5564891
               6       -3223.88844818825874    0.6028955
               7       -3239.84937171221372    0.6211498
               8       -3246.36903496509740    0.6188128
               9       -3249.54988832247182    0.6298890
              10       -3250.89609126225878    0.6529159
              11       -3251.41872573300407    0.6705818
              12       -3251.63912937557416    0.6638998
              13       -3251.75042833410680    0.6226044
              14       -3251.81541059657457    0.5528684
              15       -3251.85117219645508    0.4881508
              16       -3251.86188131413883    0.4477542
              17       -3251.86332112926902    0.4314475
              18       -3251.86377711210025    0.4623833
              19       -3251.86401410068538    0.4917122
              20       -3251.86420285116856    0.4996028
              21       -3251.86437616120020    0.4999991
              22       -3251.86449413305854    0.5000000
              23       -3251.86452934478621    0.5000000
              24       -3251.86453161649479    0.5000004
              25       -3251.86453162503994    0.5000004
Termination criterion satisfied: band energy change below threshold.
Final occupancy bounds: [    0.00000000000000:    1.00000000000000]
Closest occupancy to 0.5:     1.00000000000000
================================================================================
... done

Writing density kernel to file "complex_33161.vacuum_dkn" ... done

>>> Optimising kernel for current NGWFs:
   Initial electron number for spin 1:    7234.00000000
     Final electron number for spin 1:    7234.00000000

=================== Penalty functional idempotency correction ==================
 RMS occupancy error at iteration   1:  0.000000 (step -0.5000 Ne1=   7234.0000)
            Final RMS occupancy error   :  0.000000 (Ne1=   7234.0000)
               Final occupancy bounds   : [  0.0000,  1.0000]
================================================================================

................................................................................
<<<<<<<<<<<<<< LNV (Original version) density kernel optimisation >>>>>>>>>>>>>>
~~~~~~~~~~~~~~~~~~~~~~~~~~~~~~~~~~~~~~~~~~~~~~~~~~~~~~~~~~~~~~~~~~~~~~~~~~~~~~~~
   iter  |      energy (Eh)       | rms gradient |  commutator  |   dE (Eh)
MG BCs: +ve charge blocks (gridpoints):     30984 (   17288143).
MG BCs: -ve charge blocks (gridpoints):      8336 (    1113203).
MG BCs:     Elided blocks (gridpoints):    179052 (  187818479).
MG BCs: Computational effort saved:  99.9809%.
MG BCs: Charge after coarse-graining:           -9.0009481.
MG DL_MG: Calling solver with defect correction order = 8
MG DL_MG: Solver finished
MG Hartree energy from (\int phi*rho dr):              1424.827441
MG Hartree energy from (\int eps (grad phi)^2 dr):     1424.160294
MG Discrepancy due to finite box and discretization:     -0.667147 (  -0.04682%)
MG Correction to account for finite box:                  0.468992
MG Remaining discrepancy, due to discretization:         -0.198155 (  -0.01391%)
      ideal mu1:      -0.702685799466
             Q0:  -11577.699991562054
             G0:    -144.338445597965
   RMS gradient:       0.001834773003
MG BCs: +ve charge blocks (gridpoints):     30960 (   17370131).
MG BCs: -ve charge blocks (gridpoints):      8223 (    1092533).
MG BCs:     Elided blocks (gridpoints):    179076 (  187757161).
MG BCs: Computational effort saved:  99.9810%.
MG BCs: Charge after coarse-graining:           -9.0009706.
MG DL_MG: Calling solver with defect correction order = 8
MG DL_MG: Solver finished
MG Hartree energy from (\int phi*rho dr):              1450.971858
MG Hartree energy from (\int eps (grad phi)^2 dr):     1450.320623
MG Discrepancy due to finite box and discretization:     -0.651235 (  -0.04488%)
MG Correction to account for finite box:                  0.469081
MG Remaining discrepancy, due to discretization:         -0.182154 (  -0.01255%)
     Trial step:       0.500000000000
             Q1:  -11589.119208682678
 Quadratic coef:      60.750005678359
 Linear coef   :     -72.169222798982
           Qmin:  -11599.133720914217
Quadratic minimum step length (  0.296992658655) accepted
    Initial Ne1:    7234.00000000
      Final Ne1:    7234.00000000

=================== Penalty functional idempotency correction ==================
 RMS occupancy error at iteration   1:  0.003355 (step -0.4887 Ne1=   7234.0000)
 RMS occupancy error at iteration   2:  0.000025 (step -0.5000 Ne1=   7234.0000)
            Final RMS occupancy error   :  0.000000 (Ne1=   7234.0000)
               Final occupancy bounds   : [  0.0000,  1.0000]
================================================================================

    1        -1.157769999156E+04     1.8348E-03     1.6608E-03
MG BCs: +ve charge blocks (gridpoints):     30963 (   17338650).
MG BCs: -ve charge blocks (gridpoints):      8283 (    1100905).
MG BCs:     Elided blocks (gridpoints):    179071 (  187780270).
MG BCs: Computational effort saved:  99.9810%.
MG BCs: Charge after coarse-graining:           -9.0009615.
MG DL_MG: Calling solver with defect correction order = 8
MG DL_MG: Solver finished
MG Hartree energy from (\int phi*rho dr):              1432.443779
MG Hartree energy from (\int eps (grad phi)^2 dr):     1431.787061
MG Discrepancy due to finite box and discretization:     -0.656718 (  -0.04585%)
MG Correction to account for finite box:                  0.468907
MG Remaining discrepancy, due to discretization:         -0.187811 (  -0.01311%)
      ideal mu1:      -0.746043009492
             Q0:  -11599.527639305452
             G0:     -12.128073323505
   RMS gradient:       0.000528326341
MG BCs: +ve charge blocks (gridpoints):     30960 (   17356024).
MG BCs: -ve charge blocks (gridpoints):      8254 (    1095704).
MG BCs:     Elided blocks (gridpoints):    179073 (  187768097).
MG BCs: Computational effort saved:  99.9810%.
MG BCs: Charge after coarse-graining:           -9.0009652.
MG DL_MG: Calling solver with defect correction order = 8
MG DL_MG: Solver finished
MG Hartree energy from (\int phi*rho dr):              1437.842366
MG Hartree energy from (\int eps (grad phi)^2 dr):     1437.189527
MG Discrepancy due to finite box and discretization:     -0.652839 (  -0.04540%)
MG Correction to account for finite box:                  0.468244
MG Remaining discrepancy, due to discretization:         -0.184595 (  -0.01284%)
     Trial step:       0.385352214640
             Q1:  -11602.358309507836
 Quadratic coef:       1.842909712141
 Linear coef   :      -4.673579914525
           Qmin:  -11602.490664172265
Quadratic minimum step length (  0.488622518644) accepted
    Initial Ne1:    7233.99991729
      Final Ne1:    7234.00000000

=================== Penalty functional idempotency correction ==================
 RMS occupancy error at iteration   1:  0.001769 (step -0.4933 Ne1=   7234.0000)
 RMS occupancy error at iteration   2:  0.000010 (step -0.5001 Ne1=   7234.0000)
            Final RMS occupancy error   :  0.000000 (Ne1=   7234.0000)
               Final occupancy bounds   : [  0.0000,  1.0000]
================================================================================

    2        -1.159952763931E+04     5.2833E-04     4.7823E-04    -2.1828E+01
MG BCs: +ve charge blocks (gridpoints):     30958 (   17360661).
MG BCs: -ve charge blocks (gridpoints):      8255 (    1094331).
MG BCs:     Elided blocks (gridpoints):    179075 (  187764833).
MG BCs: Computational effort saved:  99.9810%.
MG BCs: Charge after coarse-graining:           -9.0009663.
MG DL_MG: Calling solver with defect correction order = 8
MG DL_MG: Solver finished
MG Hartree energy from (\int phi*rho dr):              1439.336793
MG Hartree energy from (\int eps (grad phi)^2 dr):     1438.684917
MG Discrepancy due to finite box and discretization:     -0.651875 (  -0.04529%)
MG Correction to account for finite box:                  0.468081
MG Remaining discrepancy, due to discretization:         -0.183794 (  -0.01277%)
      ideal mu1:      -0.770149023355
             Q0:  -11602.527017830289
             G0:      -1.905946880512
   RMS gradient:       0.000209508088
MG BCs: +ve charge blocks (gridpoints):     30955 (   17360065).
MG BCs: -ve charge blocks (gridpoints):      8254 (    1095390).
MG BCs:     Elided blocks (gridpoints):    179078 (  187764370).
MG BCs: Computational effort saved:  99.9810%.
MG BCs: Charge after coarse-graining:           -9.0009660.
MG DL_MG: Calling solver with defect correction order = 8
MG DL_MG: Solver finished
MG Hartree energy from (\int phi*rho dr):              1437.046131
MG Hartree energy from (\int eps (grad phi)^2 dr):     1436.394864
MG Discrepancy due to finite box and discretization:     -0.651268 (  -0.04532%)
MG Correction to account for finite box:                  0.467670
MG Remaining discrepancy, due to discretization:         -0.183597 (  -0.01278%)
     Trial step:       0.433925995628
             Q1:  -11603.013032376184
 Quadratic coef:       0.341025351847
 Linear coef   :      -0.827039897741
           Qmin:  -11603.028443155967
Quadratic minimum step length (  0.526169255611) accepted
    Initial Ne1:    7233.99995461
      Final Ne1:    7234.00000000

=================== Penalty functional idempotency correction ==================
 RMS occupancy error at iteration   1:  0.000616 (step -0.4973 Ne1=   7234.0000)
 RMS occupancy error at iteration   2:  0.000002 (step -0.5000 Ne1=   7234.0000)
            Final RMS occupancy error   :  0.000000 (Ne1=   7234.0000)
               Final occupancy bounds   : [  0.0000,  1.0000]
================================================================================

    3        -1.160252701783E+04     2.0951E-04     1.8964E-04    -2.9994E+00
MG BCs: +ve charge blocks (gridpoints):     30959 (   17359930).
MG BCs: -ve charge blocks (gridpoints):      8255 (    1095644).
MG BCs:     Elided blocks (gridpoints):    179074 (  187764251).
MG BCs: Computational effort saved:  99.9810%.
MG BCs: Charge after coarse-graining:           -9.0009660.
MG DL_MG: Calling solver with defect correction order = 8
MG DL_MG: Solver finished
MG Hartree energy from (\int phi*rho dr):              1436.569067
MG Hartree energy from (\int eps (grad phi)^2 dr):     1435.917918
MG Discrepancy due to finite box and discretization:     -0.651149 (  -0.04533%)
MG Correction to account for finite box:                  0.467585
MG Remaining discrepancy, due to discretization:         -0.183565 (  -0.01278%)
      ideal mu1:      -0.771068048152
             Q0:  -11603.032961747143
             G0:      -0.479103284026
   RMS gradient:       0.000105192732
MG BCs: +ve charge blocks (gridpoints):     30953 (   17360996).
MG BCs: -ve charge blocks (gridpoints):      8252 (    1095217).
MG BCs:     Elided blocks (gridpoints):    179080 (  187763612).
MG BCs: Computational effort saved:  99.9810%.
MG BCs: Charge after coarse-graining:           -9.0009662.
MG DL_MG: Calling solver with defect correction order = 8
MG DL_MG: Solver finished
MG Hartree energy from (\int phi*rho dr):              1437.921464
MG Hartree energy from (\int eps (grad phi)^2 dr):     1437.270391
MG Discrepancy due to finite box and discretization:     -0.651073 (  -0.04528%)
MG Correction to account for finite box:                  0.467392
MG Remaining discrepancy, due to discretization:         -0.183681 (  -0.01277%)
     Trial step:       0.477826870436
             Q1:  -11603.152126324363
 Quadratic coef:       0.109763845601
 Linear coef   :      -0.228928422821
           Qmin:  -11603.152327605929
Quadratic minimum step length (  0.498288626967) accepted
    Initial Ne1:    7233.99998915
      Final Ne1:    7234.00000000

=================== Penalty functional idempotency correction ==================
 RMS occupancy error at iteration   1:  0.000256 (step -0.4970 Ne1=   7234.0000)
 RMS occupancy error at iteration   2:  0.000002 (step -0.5000 Ne1=   7234.0000)
            Final RMS occupancy error   :  0.000000 (Ne1=   7234.0000)
               Final occupancy bounds   : [  0.0000,  1.0000]
================================================================================

    4        -1.160303296175E+04     1.0519E-04     9.5217E-05    -5.0594E-01
MG BCs: +ve charge blocks (gridpoints):     30953 (   17361043).
MG BCs: -ve charge blocks (gridpoints):      8252 (    1095195).
MG BCs:     Elided blocks (gridpoints):    179080 (  187763587).
MG BCs: Computational effort saved:  99.9810%.
MG BCs: Charge after coarse-graining:           -9.0009662.
MG DL_MG: Calling solver with defect correction order = 8
MG DL_MG: Solver finished
MG Hartree energy from (\int phi*rho dr):              1437.979861
MG Hartree energy from (\int eps (grad phi)^2 dr):     1437.328791
MG Discrepancy due to finite box and discretization:     -0.651070 (  -0.04528%)
MG Correction to account for finite box:                  0.467384
MG Remaining discrepancy, due to discretization:         -0.183686 (  -0.01277%)
      ideal mu1:      -0.771787924615
             Q0:  -11603.152878258727
             G0:      -0.168653915684
   RMS gradient:       0.000062582054
MG BCs: +ve charge blocks (gridpoints):     30956 (   17361187).
MG BCs: -ve charge blocks (gridpoints):      8251 (    1095067).
MG BCs:     Elided blocks (gridpoints):    179077 (  187763571).
MG BCs: Computational effort saved:  99.9810%.
MG BCs: Charge after coarse-graining:           -9.0009661.
MG DL_MG: Calling solver with defect correction order = 8
MG DL_MG: Solver finished
MG Hartree energy from (\int phi*rho dr):              1438.352313
MG Hartree energy from (\int eps (grad phi)^2 dr):     1437.701181
MG Discrepancy due to finite box and discretization:     -0.651132 (  -0.04527%)
MG Correction to account for finite box:                  0.467286
MG Remaining discrepancy, due to discretization:         -0.183846 (  -0.01278%)
     Trial step:       0.487950504864
             Q1:  -11603.205266163219
 Quadratic coef:       0.029906858814
 Linear coef   :      -0.082294763306
           Qmin:  -11603.209490924986
Quadratic minimum step length (  0.671347190834) accepted
    Initial Ne1:    7233.99999486
      Final Ne1:    7234.00000000

=================== Penalty functional idempotency correction ==================
 RMS occupancy error at iteration   1:  0.000337 (step -0.4820 Ne1=   7234.0000)
 RMS occupancy error at iteration   2:  0.000006 (step -0.5000 Ne1=   7234.0000)
            Final RMS occupancy error   :  0.000000 (Ne1=   7234.0000)
               Final occupancy bounds   : [  0.0000,  1.0000]
================================================================================

    5        -1.160315287826E+04     6.2582E-05     5.6647E-05    -1.1992E-01
MG BCs: +ve charge blocks (gridpoints):     30956 (   17361199).
MG BCs: -ve charge blocks (gridpoints):      8253 (    1095001).
MG BCs:     Elided blocks (gridpoints):    179077 (  187763625).
MG BCs: Computational effort saved:  99.9810%.
MG BCs: Charge after coarse-graining:           -9.0009661.
MG DL_MG: Calling solver with defect correction order = 8
MG DL_MG: Solver finished
MG Hartree energy from (\int phi*rho dr):              1438.491155
MG Hartree energy from (\int eps (grad phi)^2 dr):     1437.840003
MG Discrepancy due to finite box and discretization:     -0.651153 (  -0.04527%)
MG Correction to account for finite box:                  0.467247
MG Remaining discrepancy, due to discretization:         -0.183906 (  -0.01278%)
      ideal mu1:      -0.771837077962
             Q0:  -11603.209256845876
             G0:      -0.143130195217
   RMS gradient:       0.000057957950
MG BCs: +ve charge blocks (gridpoints):     30955 (   17360559).
MG BCs: -ve charge blocks (gridpoints):      8254 (    1095395).
MG BCs:     Elided blocks (gridpoints):    179078 (  187763871).
MG BCs: Computational effort saved:  99.9810%.
MG BCs: Charge after coarse-graining:           -9.0009658.
MG DL_MG: Calling solver with defect correction order = 8
MG DL_MG: Solver finished
MG Hartree energy from (\int phi*rho dr):              1437.297114
MG Hartree energy from (\int eps (grad phi)^2 dr):     1436.646130
MG Discrepancy due to finite box and discretization:     -0.650984 (  -0.04529%)
MG Correction to account for finite box:                  0.467097
MG Remaining discrepancy, due to discretization:         -0.183887 (  -0.01279%)
     Trial step:       0.572349718884
             Q1:  -11603.273989533074
 Quadratic coef:       0.017187839798
 Linear coef   :      -0.081920526996
           Qmin:  -11603.306869065071
Quadratic minimum step length (  1.363964033551) accepted
    Initial Ne1:    7233.99996447
      Final Ne1:    7234.00000000

=================== Penalty functional idempotency correction ==================
 RMS occupancy error at iteration   1:  0.003350 (step -0.3387 Ne1=   7234.0000)
 RMS occupancy error at iteration   2:  0.000257 (step -0.4893 Ne1=   7234.0000)
 RMS occupancy error at iteration   3:  0.000004 (step -0.5000 Ne1=   7234.0000)
            Final RMS occupancy error   :  0.000000 (Ne1=   7234.0000)
               Final occupancy bounds   : [  0.0000,  1.0000]
================================================================================

    6        -1.160320925685E+04     5.7958E-05     5.2462E-05    -5.6379E-02
MG BCs: +ve charge blocks (gridpoints):     30965 (   17359685).
MG BCs: -ve charge blocks (gridpoints):      8258 (    1095907).
MG BCs:     Elided blocks (gridpoints):    179069 (  187764233).
MG BCs: Computational effort saved:  99.9810%.
MG BCs: Charge after coarse-graining:           -9.0009656.
MG DL_MG: Calling solver with defect correction order = 8
MG DL_MG: Solver finished
MG Hartree energy from (\int phi*rho dr):              1435.646937
MG Hartree energy from (\int eps (grad phi)^2 dr):     1434.996196
MG Discrepancy due to finite box and discretization:     -0.650742 (  -0.04533%)
MG Correction to account for finite box:                  0.466881
MG Remaining discrepancy, due to discretization:         -0.183861 (  -0.01281%)
      ideal mu1:      -0.772050909939
             Q0:  -11603.282716615708
             G0:      -0.335761984208
   RMS gradient:       0.000088492628
MG BCs: +ve charge blocks (gridpoints):     30951 (   17362845).
MG BCs: -ve charge blocks (gridpoints):      8246 (    1094310).
MG BCs:     Elided blocks (gridpoints):    179082 (  187762670).
MG BCs: Computational effort saved:  99.9810%.
MG BCs: Charge after coarse-graining:           -9.0009665.
MG DL_MG: Calling solver with defect correction order = 8
MG DL_MG: Solver finished
MG Hartree energy from (\int phi*rho dr):              1439.924468
MG Hartree energy from (\int eps (grad phi)^2 dr):     1439.274066
MG Discrepancy due to finite box and discretization:     -0.650402 (  -0.04517%)
MG Correction to account for finite box:                  0.466664
MG Remaining discrepancy, due to discretization:         -0.183738 (  -0.01276%)
     Trial step:       0.883552166638
             Q1:  -11603.355592258158
 Quadratic coef:       0.223787586170
 Linear coef   :      -0.296663228621
           Qmin:  -11603.381034257811
Quadratic minimum step length (  0.585638915223) accepted
    Initial Ne1:    7233.99999831
      Final Ne1:    7234.00000000

=================== Penalty functional idempotency correction ==================
 RMS occupancy error at iteration   1:  0.000149 (step -0.4907 Ne1=   7234.0000)
 RMS occupancy error at iteration   2:  0.000001 (step -0.5000 Ne1=   7234.0000)
            Final RMS occupancy error   :  0.000000 (Ne1=   7234.0000)
               Final occupancy bounds   : [  0.0000,  1.0000]
================================================================================

    7        -1.160328271662E+04     8.8493E-05     8.0101E-05    -7.3460E-02
MG BCs: +ve charge blocks (gridpoints):     30953 (   17361691).
MG BCs: -ve charge blocks (gridpoints):      8249 (    1094880).
MG BCs:     Elided blocks (gridpoints):    179080 (  187763254).
MG BCs: Computational effort saved:  99.9810%.
MG BCs: Charge after coarse-graining:           -9.0009662.
MG DL_MG: Calling solver with defect correction order = 8
MG DL_MG: Solver finished
MG Hartree energy from (\int phi*rho dr):              1438.474317
MG Hartree energy from (\int eps (grad phi)^2 dr):     1437.823802
MG Discrepancy due to finite box and discretization:     -0.650515 (  -0.04522%)
MG Correction to account for finite box:                  0.466738
MG Remaining discrepancy, due to discretization:         -0.183777 (  -0.01278%)
      ideal mu1:      -0.773388484317
             Q0:  -11603.381256886525
             G0:      -0.217162538426
   RMS gradient:       0.000071088356
MG BCs: +ve charge blocks (gridpoints):     30956 (   17361729).
MG BCs: -ve charge blocks (gridpoints):      8250 (    1094867).
MG BCs:     Elided blocks (gridpoints):    179077 (  187763229).
MG BCs: Computational effort saved:  99.9810%.
MG BCs: Charge after coarse-graining:           -9.0009664.
MG DL_MG: Calling solver with defect correction order = 8
MG DL_MG: Solver finished
MG Hartree energy from (\int phi*rho dr):              1438.315065
MG Hartree energy from (\int eps (grad phi)^2 dr):     1437.664907
MG Discrepancy due to finite box and discretization:     -0.650157 (  -0.04520%)
MG Correction to account for finite box:                  0.466561
MG Remaining discrepancy, due to discretization:         -0.183596 (  -0.01276%)
     Trial step:       0.719334784654
             Q1:  -11603.476022782968
 Quadratic coef:       0.061446671371
 Linear coef   :      -0.156212567814
           Qmin:  -11603.480539588902
Quadratic minimum step length (  0.914363067374) accepted
    Initial Ne1:    7233.99999819
      Final Ne1:    7234.00000000

=================== Penalty functional idempotency correction ==================
 RMS occupancy error at iteration   1:  0.001332 (step -0.4278 Ne1=   7234.0000)
 RMS occupancy error at iteration   2:  0.000039 (step -0.4989 Ne1=   7234.0000)
            Final RMS occupancy error   :  0.000000 (Ne1=   7234.0000)
               Final occupancy bounds   : [ -0.0000,  1.0000]
================================================================================

    8        -1.160338125689E+04     7.1088E-05     6.4347E-05    -9.8540E-02
MG BCs: +ve charge blocks (gridpoints):     30955 (   17361717).
MG BCs: -ve charge blocks (gridpoints):      8250 (    1094885).
MG BCs:     Elided blocks (gridpoints):    179078 (  187763223).
MG BCs: Computational effort saved:  99.9810%.
MG BCs: Charge after coarse-graining:           -9.0009664.
MG DL_MG: Calling solver with defect correction order = 8
MG DL_MG: Solver finished
MG Hartree energy from (\int phi*rho dr):              1438.274944
MG Hartree energy from (\int eps (grad phi)^2 dr):     1437.624880
MG Discrepancy due to finite box and discretization:     -0.650064 (  -0.04520%)
MG Correction to account for finite box:                  0.466516
MG Remaining discrepancy, due to discretization:         -0.183548 (  -0.01276%)
      ideal mu1:      -0.773076721042
             Q0:  -11603.478295713547
             G0:      -0.250863618961
   RMS gradient:       0.000077293059
MG BCs: +ve charge blocks (gridpoints):     30952 (   17360552).
MG BCs: -ve charge blocks (gridpoints):      8256 (    1095566).
MG BCs:     Elided blocks (gridpoints):    179081 (  187763707).
MG BCs: Computational effort saved:  99.9810%.
MG BCs: Charge after coarse-graining:           -9.0009661.
MG DL_MG: Calling solver with defect correction order = 8
MG DL_MG: Solver finished
MG Hartree energy from (\int phi*rho dr):              1436.632933
MG Hartree energy from (\int eps (grad phi)^2 dr):     1435.983042
MG Discrepancy due to finite box and discretization:     -0.649890 (  -0.04524%)
MG Correction to account for finite box:                  0.466449
MG Remaining discrepancy, due to discretization:         -0.183442 (  -0.01277%)
     Trial step:       0.811007496984
             Q1:  -11603.552478646394
 Quadratic coef:       0.129269342851
 Linear coef   :      -0.203452275698
           Qmin:  -11603.558347231512
Quadratic minimum step length (  0.638207471431) accepted
    Initial Ne1:    7234.00047782
      Final Ne1:    7234.00000000

=================== Penalty functional idempotency correction ==================
 RMS occupancy error at iteration   1:  0.003212 (step -0.3600 Ne1=   7234.0000)
 RMS occupancy error at iteration   2:  0.000134 (step -0.4968 Ne1=   7234.0000)
 RMS occupancy error at iteration   3:  0.000002 (step -0.5000 Ne1=   7234.0000)
            Final RMS occupancy error   :  0.000000 (Ne1=   7234.0000)
               Final occupancy bounds   : [  0.0000,  1.0000]
================================================================================

    9        -1.160347829571E+04     7.7293E-05     6.9963E-05    -9.7039E-02
MG BCs: +ve charge blocks (gridpoints):     30952 (   17360754).
MG BCs: -ve charge blocks (gridpoints):      8255 (    1095458).
MG BCs:     Elided blocks (gridpoints):    179081 (  187763613).
MG BCs: Computational effort saved:  99.9810%.
MG BCs: Charge after coarse-graining:           -9.0009661.
MG DL_MG: Calling solver with defect correction order = 8
MG DL_MG: Solver finished
MG Hartree energy from (\int phi*rho dr):              1436.982152
MG Hartree energy from (\int eps (grad phi)^2 dr):     1436.332267
MG Discrepancy due to finite box and discretization:     -0.649885 (  -0.04523%)
MG Correction to account for finite box:                  0.466427
MG Remaining discrepancy, due to discretization:         -0.183458 (  -0.01277%)
      ideal mu1:      -0.771973281403
   10        -1.160356356065E+04     6.3324E-05     5.7319E-05    -8.5265E-02
Finished density kernel iterations (  10)

Writing density kernel to file "complex_33161.vacuum_dkn" ... done


>>> Density kernel optimised for the current NGWF basis:
     ~~~~~~~~~~~~~~~~~~~~~~~~~~~~~~~~~~~~~~~~~~~~~~~~~~~~~~~~~~~
     Total energy                =  -1.16035635606481E+04  Eh
     Estimated bandgap           =  -3.8638E-01  Eh
     RMS occupancy error         =   3.4677E-10
     [H,K] commutator            =   5.7319E-05
     Occupancy bounds            = [  0.000:  1.000]
     ~~~~~~~~~~~~~~~~~~~~~~~~~~~~~~~~~~~~~~~~~~~~~~~~~~~~~~~~~~~




################################################################################
########################### NGWF CG iteration  001 #############################
################################################################################
****** Reciprocal space K.E. preconditioning with k_zero =  3.5000 a0^-1 *******

>>> Checking for convergence of NGWFs:   NOT CONVERGED
  ========================================================================
         NGWF RMS gradient =  1.6024E-03 >  2.0000E-06  | above tolerance
  ========================================================================

>>> Improving NGWFs using line search:
============ Calculation of NGWF S^-1 using Hotelling algorithm ================ 
         Iteration  |  Frobenius norm and Maximum abs value    (of I-S*S_n^-1)   
               1       0.19924300E+00     0.53585628E-02
               2       0.92349212E-03     0.42181744E-04
               3       0.34495585E-07     0.26232704E-08
               4       0.12777924E-12     0.53290705E-14
================================================================================
MG BCs: +ve charge blocks (gridpoints):     30481 (   17305282).
MG BCs: -ve charge blocks (gridpoints):      8265 (    1095311).
MG BCs:     Elided blocks (gridpoints):    179557 (  187819232).
MG BCs: Computational effort saved:  99.9812%.
MG BCs: Charge after coarse-graining:           -9.0009695.
MG DL_MG: Calling solver with defect correction order = 8
MG DL_MG: Solver finished
MG Hartree energy from (\int phi*rho dr):              1404.864484
MG Hartree energy from (\int eps (grad phi)^2 dr):     1404.215399
MG Discrepancy due to finite box and discretization:     -0.649085 (  -0.04620%)
MG Correction to account for finite box:                  0.466356
MG Remaining discrepancy, due to discretization:         -0.182729 (  -0.01301%)
============ Calculation of NGWF S^-1 using Hotelling algorithm ================ 
         Iteration  |  Frobenius norm and Maximum abs value    (of I-S*S_n^-1)   
               1       0.18488589E+01     0.41524728E-01
               2       0.71016808E-01     0.23451278E-02
               3       0.14349153E-03     0.84684956E-05
               4       0.10871870E-08     0.11873293E-09
               5       0.11053826E-12     0.57731597E-14
================================================================================
------------------------------- NGWF line search -------------------------------
RMS gradient                =       0.00160239838280
Trial step length           =               0.122474
Gradient along search dir.  =       -279.66421178549
Functional at step 0        =  -11603.56356064812280
Functional at step 1        =  -11635.18064355780371
Functional predicted        =  -11714.88593372581272
Selected quadratic step     =               0.796115
--------------------------- NGWF line search finished --------------------------
                                               
Writing NGWFs to file "complex_33161.vacuum_tightbox_ngwfs"....  done

>>> Optimising kernel for current NGWFs:
   Initial electron number for spin 1:    7268.57506595
     Final electron number for spin 1:    7234.00000000

=================== Penalty functional idempotency correction ==================
 RMS occupancy error at iteration   1:  0.004283 (step -0.4858 Ne1=   7234.0000)
 RMS occupancy error at iteration   2:  0.000072 (step -0.5003 Ne1=   7234.0000)
            Final RMS occupancy error   :  0.000000 (Ne1=   7234.0000)
               Final occupancy bounds   : [  0.0000,  1.0000]
================================================================================

................................................................................
<<<<<<<<<<<<<< LNV (Original version) density kernel optimisation >>>>>>>>>>>>>>
~~~~~~~~~~~~~~~~~~~~~~~~~~~~~~~~~~~~~~~~~~~~~~~~~~~~~~~~~~~~~~~~~~~~~~~~~~~~~~~~
   iter  |      energy (Eh)       | rms gradient |  commutator  |   dE (Eh)
MG BCs: +ve charge blocks (gridpoints):     24707 (   16973463).
MG BCs: -ve charge blocks (gridpoints):      8402 (    1078997).
MG BCs:     Elided blocks (gridpoints):    185338 (  188167365).
MG BCs: Computational effort saved:  99.9839%.
MG BCs: Charge after coarse-graining:           -9.0006793.
MG DL_MG: Calling solver with defect correction order = 8
MG DL_MG: Solver finished
MG Hartree energy from (\int phi*rho dr):              1250.371376
MG Hartree energy from (\int eps (grad phi)^2 dr):     1249.721855
MG Discrepancy due to finite box and discretization:     -0.649522 (  -0.05195%)
MG Correction to account for finite box:                  0.466045
MG Remaining discrepancy, due to discretization:         -0.183476 (  -0.01467%)
      ideal mu1:      -0.712595496276
             Q0:  -11714.090980001260
             G0:      -9.925542717714
   RMS gradient:       0.000481136673
MG BCs: +ve charge blocks (gridpoints):     24762 (   16987638).
MG BCs: -ve charge blocks (gridpoints):      8383 (    1075641).
MG BCs:     Elided blocks (gridpoints):    185283 (  188156546).
MG BCs: Computational effort saved:  99.9839%.
MG BCs: Charge after coarse-graining:           -9.0006752.
MG DL_MG: Calling solver with defect correction order = 8
MG DL_MG: Solver finished
MG Hartree energy from (\int phi*rho dr):              1266.264875
MG Hartree energy from (\int eps (grad phi)^2 dr):     1265.610464
MG Discrepancy due to finite box and discretization:     -0.654411 (  -0.05168%)
MG Correction to account for finite box:                  0.464862
MG Remaining discrepancy, due to discretization:         -0.189550 (  -0.01497%)
     Trial step:       0.719438005642
             Q1:  -11713.491047494696
 Quadratic coef:       7.740745164310
 Linear coef   :      -7.140812657747
           Qmin:  -11715.737824211044
Quadratic minimum step length (  0.331839629655) accepted
    Initial Ne1:    7233.99955452
      Final Ne1:    7234.00000000

=================== Penalty functional idempotency correction ==================
 RMS occupancy error at iteration   1:  0.000359 (step -0.4986 Ne1=   7234.0000)
 RMS occupancy error at iteration   2:  0.000000 (step -0.5000 Ne1=   7234.0000)
            Final RMS occupancy error   :  0.000000 (Ne1=   7234.0000)
               Final occupancy bounds   : [  0.0000,  1.0000]
================================================================================

    1        -1.171409098000E+04     4.8114E-04     4.3551E-04
MG BCs: +ve charge blocks (gridpoints):     24731 (   16980031).
MG BCs: -ve charge blocks (gridpoints):      8394 (    1077543).
MG BCs:     Elided blocks (gridpoints):    185314 (  188162251).
MG BCs: Computational effort saved:  99.9839%.
MG BCs: Charge after coarse-graining:           -9.0006774.
MG DL_MG: Calling solver with defect correction order = 8
MG DL_MG: Solver finished
MG Hartree energy from (\int phi*rho dr):              1256.760181
MG Hartree energy from (\int eps (grad phi)^2 dr):     1256.108518
MG Discrepancy due to finite box and discretization:     -0.651664 (  -0.05185%)
MG Correction to account for finite box:                  0.465461
MG Remaining discrepancy, due to discretization:         -0.186203 (  -0.01482%)
      ideal mu1:      -0.719193003196
             Q0:  -11715.712478178903
             G0:      -1.051181581103
   RMS gradient:       0.000157232188
MG BCs: +ve charge blocks (gridpoints):     24734 (   16979176).
MG BCs: -ve charge blocks (gridpoints):      8392 (    1078533).
MG BCs:     Elided blocks (gridpoints):    185311 (  188162116).
MG BCs: Computational effort saved:  99.9839%.
MG BCs: Charge after coarse-graining:           -9.0006773.
MG DL_MG: Calling solver with defect correction order = 8
MG DL_MG: Solver finished
MG Hartree energy from (\int phi*rho dr):              1257.800956
MG Hartree energy from (\int eps (grad phi)^2 dr):     1257.148991
MG Discrepancy due to finite box and discretization:     -0.651965 (  -0.05183%)
MG Correction to account for finite box:                  0.465344
MG Remaining discrepancy, due to discretization:         -0.186621 (  -0.01484%)
     Trial step:       0.488608269836
             Q1:  -11715.933827217086
 Quadratic coef:       0.292266975443
 Linear coef   :      -0.513616013626
           Qmin:  -11715.938129237369
Quadratic minimum step length (  0.429328410091) accepted
    Initial Ne1:    7233.99993844
      Final Ne1:    7234.00000000

=================== Penalty functional idempotency correction ==================
 RMS occupancy error at iteration   1:  0.000158 (step -0.4992 Ne1=   7234.0000)
 RMS occupancy error at iteration   2:  0.000000 (step -0.5000 Ne1=   7234.0000)
            Final RMS occupancy error   :  0.000000 (Ne1=   7234.0000)
               Final occupancy bounds   : [  0.0000,  1.0000]
================================================================================

    2        -1.171571247818E+04     1.5723E-04     1.4232E-04    -1.6215E+00
MG BCs: +ve charge blocks (gridpoints):     24734 (   16979257).
MG BCs: -ve charge blocks (gridpoints):      8393 (    1078441).
MG BCs:     Elided blocks (gridpoints):    185311 (  188162127).
MG BCs: Computational effort saved:  99.9839%.
MG BCs: Charge after coarse-graining:           -9.0006773.
MG DL_MG: Calling solver with defect correction order = 8
MG DL_MG: Solver finished
MG Hartree energy from (\int phi*rho dr):              1257.674464
MG Hartree energy from (\int eps (grad phi)^2 dr):     1257.022538
MG Discrepancy due to finite box and discretization:     -0.651927 (  -0.05184%)
MG Correction to account for finite box:                  0.465358
MG Remaining discrepancy, due to discretization:         -0.186569 (  -0.01483%)
      ideal mu1:      -0.719801307235
             Q0:  -11715.938629945158
             G0:      -0.173618127542
   RMS gradient:       0.000063563655
MG BCs: +ve charge blocks (gridpoints):     24732 (   16978467).
MG BCs: -ve charge blocks (gridpoints):      8397 (    1078866).
MG BCs:     Elided blocks (gridpoints):    185313 (  188162492).
MG BCs: Computational effort saved:  99.9839%.
MG BCs: Charge after coarse-graining:           -9.0006774.
MG DL_MG: Calling solver with defect correction order = 8
MG DL_MG: Solver finished
MG Hartree energy from (\int phi*rho dr):              1257.094601
MG Hartree energy from (\int eps (grad phi)^2 dr):     1256.442787
MG Discrepancy due to finite box and discretization:     -0.651814 (  -0.05185%)
MG Correction to account for finite box:                  0.465264
MG Remaining discrepancy, due to discretization:         -0.186550 (  -0.01484%)
     Trial step:       0.458010274607
             Q1:  -11715.992983554490
 Quadratic coef:       0.025165276940
 Linear coef   :      -0.079518886272
           Qmin:  -11716.001447188230
Quadratic minimum step length (  0.723625395115) accepted
    Initial Ne1:    7233.99998304
      Final Ne1:    7234.00000000

=================== Penalty functional idempotency correction ==================
 RMS occupancy error at iteration   1:  0.000159 (step -0.4935 Ne1=   7234.0000)
 RMS occupancy error at iteration   2:  0.000001 (step -0.5000 Ne1=   7234.0000)
            Final RMS occupancy error   :  0.000000 (Ne1=   7234.0000)
               Final occupancy bounds   : [  0.0000,  1.0000]
================================================================================

    3        -1.171593862995E+04     6.3564E-05     5.7536E-05    -2.2615E-01
MG BCs: +ve charge blocks (gridpoints):     24731 (   16978045).
MG BCs: -ve charge blocks (gridpoints):      8398 (    1079081).
MG BCs:     Elided blocks (gridpoints):    185314 (  188162699).
MG BCs: Computational effort saved:  99.9839%.
MG BCs: Charge after coarse-graining:           -9.0006774.
MG DL_MG: Calling solver with defect correction order = 8
MG DL_MG: Solver finished
MG Hartree energy from (\int phi*rho dr):              1256.758597
MG Hartree energy from (\int eps (grad phi)^2 dr):     1256.106849
MG Discrepancy due to finite box and discretization:     -0.651748 (  -0.05186%)
MG Correction to account for finite box:                  0.465209
MG Remaining discrepancy, due to discretization:         -0.186539 (  -0.01484%)
      ideal mu1:      -0.718611816777
             Q0:  -11716.001512995921
             G0:      -0.065859705981
   RMS gradient:       0.000039152845
MG BCs: +ve charge blocks (gridpoints):     24729 (   16978081).
MG BCs: -ve charge blocks (gridpoints):      8398 (    1079000).
MG BCs:     Elided blocks (gridpoints):    185316 (  188162744).
MG BCs: Computational effort saved:  99.9839%.
MG BCs: Charge after coarse-graining:           -9.0006774.
MG DL_MG: Calling solver with defect correction order = 8
MG DL_MG: Solver finished
MG Hartree energy from (\int phi*rho dr):              1256.796981
MG Hartree energy from (\int eps (grad phi)^2 dr):     1256.145428
MG Discrepancy due to finite box and discretization:     -0.651553 (  -0.05184%)
MG Correction to account for finite box:                  0.465145
MG Remaining discrepancy, due to discretization:         -0.186407 (  -0.01483%)
     Trial step:       0.575697720969
             Q1:  -11716.024498381652
 Quadratic coef:       0.014929896906
 Linear coef   :      -0.037915282637
           Qmin:  -11716.025584974892
Quadratic minimum step length (  0.731007787299) accepted
    Initial Ne1:    7233.99999335
      Final Ne1:    7234.00000000

=================== Penalty functional idempotency correction ==================
 RMS occupancy error at iteration   1:  0.000236 (step -0.4866 Ne1=   7234.0000)
 RMS occupancy error at iteration   2:  0.000001 (step -0.5000 Ne1=   7234.0000)
            Final RMS occupancy error   :  0.000000 (Ne1=   7234.0000)
               Final occupancy bounds   : [  0.0000,  1.0000]
================================================================================

    4        -1.171600151300E+04     3.9153E-05     3.5440E-05    -6.2883E-02
MG BCs: +ve charge blocks (gridpoints):     24729 (   16978141).
MG BCs: -ve charge blocks (gridpoints):      8398 (    1078949).
MG BCs:     Elided blocks (gridpoints):    185316 (  188162735).
MG BCs: Computational effort saved:  99.9839%.
MG BCs: Charge after coarse-graining:           -9.0006774.
MG DL_MG: Calling solver with defect correction order = 8
MG DL_MG: Solver finished
MG Hartree energy from (\int phi*rho dr):              1256.808422
MG Hartree energy from (\int eps (grad phi)^2 dr):     1256.156923
MG Discrepancy due to finite box and discretization:     -0.651499 (  -0.05184%)
MG Correction to account for finite box:                  0.465127
MG Remaining discrepancy, due to discretization:         -0.186372 (  -0.01483%)
      ideal mu1:      -0.718724941720
             Q0:  -11716.025583097595
             G0:      -0.054968781103
   RMS gradient:       0.000035772450
MG BCs: +ve charge blocks (gridpoints):     24731 (   16979499).
MG BCs: -ve charge blocks (gridpoints):      8393 (    1078488).
MG BCs:     Elided blocks (gridpoints):    185314 (  188161838).
MG BCs: Computational effort saved:  99.9839%.
MG BCs: Charge after coarse-graining:           -9.0006771.
MG DL_MG: Calling solver with defect correction order = 8
MG DL_MG: Solver finished
MG Hartree energy from (\int phi*rho dr):              1257.660524
MG Hartree energy from (\int eps (grad phi)^2 dr):     1257.009226
MG Discrepancy due to finite box and discretization:     -0.651298 (  -0.05179%)
MG Correction to account for finite box:                  0.464998
MG Remaining discrepancy, due to discretization:         -0.186300 (  -0.01481%)
     Trial step:       0.648721448049
             Q1:  -11716.046520782053
 Quadratic coef:       0.014721742817
 Linear coef   :      -0.035659427275
           Qmin:  -11716.047176919219
Quadratic minimum step length (  0.785675839686) accepted
    Initial Ne1:    7233.99999377
      Final Ne1:    7234.00000000

=================== Penalty functional idempotency correction ==================
 RMS occupancy error at iteration   1:  0.000620 (step -0.4649 Ne1=   7234.0000)
 RMS occupancy error at iteration   2:  0.000007 (step -0.5000 Ne1=   7234.0000)
            Final RMS occupancy error   :  0.000000 (Ne1=   7234.0000)
               Final occupancy bounds   : [ -0.0000,  1.0000]
================================================================================

    5        -1.171602558310E+04     3.5772E-05     3.2380E-05    -2.4070E-02
MG BCs: +ve charge blocks (gridpoints):     24731 (   16979755).
MG BCs: -ve charge blocks (gridpoints):      8391 (    1078405).
MG BCs:     Elided blocks (gridpoints):    185314 (  188161665).
MG BCs: Computational effort saved:  99.9839%.
MG BCs: Charge after coarse-graining:           -9.0006770.
MG DL_MG: Calling solver with defect correction order = 8
MG DL_MG: Solver finished
MG Hartree energy from (\int phi*rho dr):              1257.841537
MG Hartree energy from (\int eps (grad phi)^2 dr):     1257.190282
MG Discrepancy due to finite box and discretization:     -0.651255 (  -0.05178%)
MG Correction to account for finite box:                  0.464970
MG Remaining discrepancy, due to discretization:         -0.186285 (  -0.01481%)
      ideal mu1:      -0.719819100100
             Q0:  -11716.047286337824
             G0:      -0.043181529043
   RMS gradient:       0.000031437978
MG BCs: +ve charge blocks (gridpoints):     24732 (   16979724).
MG BCs: -ve charge blocks (gridpoints):      8392 (    1078530).
MG BCs:     Elided blocks (gridpoints):    185313 (  188161571).
MG BCs: Computational effort saved:  99.9839%.
MG BCs: Charge after coarse-graining:           -9.0006770.
MG DL_MG: Calling solver with defect correction order = 8
MG DL_MG: Solver finished
MG Hartree energy from (\int phi*rho dr):              1257.589356
MG Hartree energy from (\int eps (grad phi)^2 dr):     1256.938273
MG Discrepancy due to finite box and discretization:     -0.651084 (  -0.05177%)
MG Correction to account for finite box:                  0.464784
MG Remaining discrepancy, due to discretization:         -0.186300 (  -0.01481%)
     Trial step:       0.713922102486
             Q1:  -11716.067603724427
 Quadratic coef:       0.010510861401
 Linear coef   :      -0.030828248003
           Qmin:  -11716.069891071125
Quadratic minimum step length (  1.046963079009) accepted
    Initial Ne1:    7233.99999918
      Final Ne1:    7234.00000000

=================== Penalty functional idempotency correction ==================
 RMS occupancy error at iteration   1:  0.001501 (step -0.4229 Ne1=   7234.0000)
 RMS occupancy error at iteration   2:  0.000030 (step -0.4996 Ne1=   7234.0000)
            Final RMS occupancy error   :  0.000000 (Ne1=   7234.0000)
               Final occupancy bounds   : [ -0.0000,  1.0000]
================================================================================

    6        -1.171604728634E+04     3.1438E-05     2.8457E-05    -2.1703E-02
MG BCs: +ve charge blocks (gridpoints):     24731 (   16979697).
MG BCs: -ve charge blocks (gridpoints):      8393 (    1078587).
MG BCs:     Elided blocks (gridpoints):    185314 (  188161541).
MG BCs: Computational effort saved:  99.9839%.
MG BCs: Charge after coarse-graining:           -9.0006770.
[...]
MG Correction to account for finite box:                  0.006251
MG Remaining discrepancy, due to discretization:         -0.185379 (  -0.01526%)
     Trial step:       0.342109614537
             Q1:  -11750.904395105084
 Quadratic coef:       0.000000000769
 Linear coef   :      -0.000000000421
           Qmin:  -11750.904395105492
Quadratic minimum step length (  0.093568654613) accepted
    Initial Ne1:    7234.00000000
      Final Ne1:    7234.00000000

=================== Penalty functional idempotency correction ==================
 RMS occupancy error at iteration   1:  0.000000 (step -0.5000 Ne1=   7234.0000)
            Final RMS occupancy error   :  0.000000 (Ne1=   7234.0000)
               Final occupancy bounds   : [  0.0000,  1.0000]
================================================================================

    7        -1.175090439511E+04     5.3566E-09     4.8487E-09     2.3283E-10

Reusing previously generated solute cavity.
MG BCs: +ve charge blocks (gridpoints):     29172 (   19197869).
MG BCs: -ve charge blocks (gridpoints):      8385 (    1048039).
MG BCs:     Elided blocks (gridpoints):    180873 (  185973917).
MG BCs: Computational effort saved:  99.9818%.
MG BCs: Charge after coarse-graining:           -9.0009533.
MG DL_MG: Calling solver with defect correction order = 8
MG DL_MG: Solver finished
MG Hartree energy from (\int phi*rho dr):              1214.687554
MG Hartree energy from (\int eps (grad phi)^2 dr):     1214.495923
MG Discrepancy due to finite box and discretization:     -0.191630 (  -0.01578%)
MG Correction to account for finite box:                  0.006251
MG Remaining discrepancy, due to discretization:         -0.185379 (  -0.01526%)
      ideal mu1:      -0.481392004860
             Q0:  -11750.904395105434
             G0:      -0.000000001627
   RMS gradient:       0.000000004539

Reusing previously generated solute cavity.
MG BCs: +ve charge blocks (gridpoints):     29172 (   19197869).
MG BCs: -ve charge blocks (gridpoints):      8385 (    1048039).
MG BCs:     Elided blocks (gridpoints):    180873 (  185973917).
MG BCs: Computational effort saved:  99.9818%.
MG BCs: Charge after coarse-graining:           -9.0009533.
MG DL_MG: Calling solver with defect correction order = 8
MG DL_MG: Solver finished
MG Hartree energy from (\int phi*rho dr):              1214.687569
MG Hartree energy from (\int eps (grad phi)^2 dr):     1214.495938
MG Discrepancy due to finite box and discretization:     -0.191630 (  -0.01578%)
MG Correction to account for finite box:                  0.006251
MG Remaining discrepancy, due to discretization:         -0.185379 (  -0.01526%)
     Trial step:       0.178915444729
             Q1:  -11750.904395105084
 Quadratic coef:       0.000000000640
 Linear coef   :      -0.000000000291
           Qmin:  -11750.904395105466
Quadratic minimum step length (  0.040680467480) accepted
    Initial Ne1:    7234.00000000
      Final Ne1:    7234.00000000

=================== Penalty functional idempotency correction ==================
 RMS occupancy error at iteration   1:  0.000000 (step -0.5000 Ne1=   7234.0000)
            Final RMS occupancy error   :  0.000000 (Ne1=   7234.0000)
               Final occupancy bounds   : [  0.0000,  1.0000]
================================================================================

    8        -1.175090439511E+04     4.5390E-09     4.1086E-09     0.0000E+00

Reusing previously generated solute cavity.
MG BCs: +ve charge blocks (gridpoints):     29172 (   19197869).
MG BCs: -ve charge blocks (gridpoints):      8385 (    1048039).
MG BCs:     Elided blocks (gridpoints):    180873 (  185973917).
MG BCs: Computational effort saved:  99.9818%.
MG BCs: Charge after coarse-graining:           -9.0009533.
MG DL_MG: Calling solver with defect correction order = 8
MG DL_MG: Solver finished
MG Hartree energy from (\int phi*rho dr):              1214.687557
MG Hartree energy from (\int eps (grad phi)^2 dr):     1214.495927
MG Discrepancy due to finite box and discretization:     -0.191630 (  -0.01578%)
MG Correction to account for finite box:                  0.006251
MG Remaining discrepancy, due to discretization:         -0.185379 (  -0.01526%)
      ideal mu1:      -0.481392005922
             Q0:  -11750.904395105317
             G0:      -0.000000001833
   RMS gradient:       0.000000004036

Reusing previously generated solute cavity.
MG BCs: +ve charge blocks (gridpoints):     29172 (   19197869).
MG BCs: -ve charge blocks (gridpoints):      8385 (    1048039).
MG BCs:     Elided blocks (gridpoints):    180873 (  185973917).
MG BCs: Computational effort saved:  99.9818%.
MG BCs: Charge after coarse-graining:           -9.0009533.
MG DL_MG: Calling solver with defect correction order = 8
MG DL_MG: Solver finished
MG Hartree energy from (\int phi*rho dr):              1214.687566
MG Hartree energy from (\int eps (grad phi)^2 dr):     1214.495936
MG Discrepancy due to finite box and discretization:     -0.191630 (  -0.01578%)
MG Correction to account for finite box:                  0.006251
MG Remaining discrepancy, due to discretization:         -0.185379 (  -0.01526%)
     Trial step:       0.085313327980
             Q1:  -11750.904395105084
 Quadratic coef:       0.000000000389
 Linear coef   :      -0.000000000156
           Qmin:  -11750.904395105334
Quadratic minimum step length (  0.017136664169) accepted
    Initial Ne1:    7234.00000000
      Final Ne1:    7234.00000000

=================== Penalty functional idempotency correction ==================
 RMS occupancy error at iteration   1:  0.000000 (step -0.5000 Ne1=   7234.0000)
            Final RMS occupancy error   :  0.000000 (Ne1=   7234.0000)
               Final occupancy bounds   : [  0.0000,  1.0000]
================================================================================

    9        -1.175090439511E+04     4.0357E-09     3.6530E-09     1.1642E-10

Reusing previously generated solute cavity.
MG BCs: +ve charge blocks (gridpoints):     29172 (   19197869).
MG BCs: -ve charge blocks (gridpoints):      8385 (    1048039).
MG BCs:     Elided blocks (gridpoints):    180873 (  185973917).
MG BCs: Computational effort saved:  99.9818%.
MG BCs: Charge after coarse-graining:           -9.0009533.
MG DL_MG: Calling solver with defect correction order = 8
MG DL_MG: Solver finished
MG Hartree energy from (\int phi*rho dr):              1214.687559
MG Hartree energy from (\int eps (grad phi)^2 dr):     1214.495928
MG Discrepancy due to finite box and discretization:     -0.191630 (  -0.01578%)
MG Correction to account for finite box:                  0.006251
MG Remaining discrepancy, due to discretization:         -0.185379 (  -0.01526%)
      ideal mu1:      -0.481392006576
   10        -1.175090439511E+04     3.7859E-09     3.4268E-09     0.0000E+00
Finished density kernel iterations (  10)

Writing density kernel to file "complex_33161.dkn" ... done


>>> Density kernel optimised for the current NGWF basis:
     ~~~~~~~~~~~~~~~~~~~~~~~~~~~~~~~~~~~~~~~~~~~~~~~~~~~~~~~~~~~
     Total energy                =  -1.17509043951053E+04  Eh
     Estimated bandgap           =   9.7708E-02  Eh
     RMS occupancy error         =   5.3989E-16
     [H,K] commutator            =   3.4268E-09
     Occupancy bounds            = [  0.000:  1.000]
     ~~~~~~~~~~~~~~~~~~~~~~~~~~~~~~~~~~~~~~~~~~~~~~~~~~~~~~~~~~~




################################################################################
########################### NGWF CG iteration  005 #############################
################################################################################
****** Reciprocal space K.E. preconditioning with k_zero =  3.5000 a0^-1 *******

>>> Checking for convergence of NGWFs: 
           ........................................................
           |         *** NGWF optimisation converged ***          |
           | RMS NGWF gradient =    0.00000090865935              |
           | Criteria satisfied:                                  |
           | -> RMS NGWF gradient lower than set threshold.       |
           ========================================================

Reusing previously generated solute cavity.
MG BCs: +ve charge blocks (gridpoints):     29172 (   19197869).
MG BCs: -ve charge blocks (gridpoints):      8385 (    1048039).
MG BCs:     Elided blocks (gridpoints):    180873 (  185973917).
MG BCs: Computational effort saved:  99.9818%.
MG BCs: Charge after coarse-graining:           -9.0009533.
MG DL_MG: Calling solver with defect correction order = 8
MG DL_MG: Solver finished
MG Hartree energy from (\int phi*rho dr):              1214.687559
MG Hartree energy from (\int eps (grad phi)^2 dr):     1214.495928
MG Discrepancy due to finite box and discretization:     -0.191630 (  -0.01578%)
MG Correction to account for finite box:                  0.006251
MG Remaining discrepancy, due to discretization:         -0.185379 (  -0.01526%)

================================================================================
           ---------------- ENERGY COMPONENTS (Eh) ----------------
           | Kinetic                    :     8586.04525381277745 |
           | Pseudo. (local,OBC,corr'd) :    -5086.62081841587315 |
           | Pseudopotential (non-local):     1412.64834028208270 |
           | Hartree (molecular)        :     1214.68755879777177 |
           | Exchange-correlation       :    -3378.68299294940607 |
           | Ion-ion (open BC)          :   827443.07215419970453 |
           | Dispersion Correction      :       -3.24027607136440 |
           | Smeared ion non-self corr. :  -827394.54306373628788 |
           | Smeared ion self corr.     :   -14544.93686558573609 |
           | Solvent cavitation energy  :        2.37059347507716 |
           | Solute-solvent dis-rep en. :       -1.70427891406985 |
           | Total                      :   -11750.90439510535180 |
           --------------------------------------------------------
           ------ LOCAL ENERGY COMPONENTS FROM MATRIX TRACES ------
           | Pseudopotential (local)    :    -5086.62081841588133 |
           | Hartree                    :    -2002.88227017480267 |
           --------------------------------------------------------
           Integrated density           :     7233.99999999889769
           Integrated density tr(KS)    :     7234.00000000000091
================================================================================


                        <<<<< CALCULATION SUMMARY >>>>>                         
|ITER|    RMS GRADIENT   |     TOTAL ENERGY    |   step   |     Epredicted              
   0     0.00004049687850 -11750.84007470693905   0.621646 -11750.89559505243778        
   1     0.00001009101228 -11750.90380148054101   0.088880 -11750.90429435852820        
   2     0.00000447963917 -11750.90437372471206   0.016432 -11750.90439168221928        
   3     0.00000201296923 -11750.90439422056079   0.003370 -11750.90439496429099        
   4     0.00000090865935 -11750.90439510531723  <-- CG                                 

=================== Finished the calculation in solvent ========================
= Adjusting the following parameters: 
= read_denskern: F
= read_tightbox_ngwfs: F
= maxit_pen: 0 (restored to user-specified value)
= restart read filename prefix: ""
= restart write filename prefix: ""
================================================================================

================================================================================
IS: Calculation in solvent completed (NGWFs converged).      

Individual components of total energy in solvent:     hartree           kcal/mol
- Usual non-electrostatic DFT terms:    -12966.25826846409655    -8136449.730089
- Electrostatic fixed charge energy:      1214.68755879777177      762227.934636
- Apolar cavitation energy:                  2.37059347507716        1487.569832
- Apolar dispersion-repulsion energy:       -1.70427891406985       -1069.451142
 -------------------------------------------------------------------------------
- Total energy in solvent:              -11750.90439510531723    -7373803.676763

Components of total energy in solvent:                hartree           kcal/mol
- Usual non-electrostatic DFT terms:    -12966.25826846409655    -8136449.730089
- Electrostatic energy:                   1214.68755879777177      762227.934636
- Apolar energy terms:                       0.66631456100731         418.118691
 -------------------------------------------------------------------------------
- Total energy in solvent:              -11750.90439510531723    -7373803.676763

Calculation of free energy of solvation:              hartree           kcal/mol
- Total energy in solvent:         (+)  -11750.90439510531723    -7373803.676763
- Total energy in vacuum:          (-)  -11747.08632501936518    -7371407.801663
 -------------------------------------------------------------------------------
- Total free energy of solvation:           -3.81807008595206       -2395.875100

Components of polar term in f.e. of solvation:        hartree           kcal/mol
- Electrostatic:                            -4.63711179477673       -2909.831520
- Change in nonelectrostatic DFT terms:      0.15272714781713          95.837730
 -------------------------------------------------------------------------------
- Polar term in f.e. of solvation:          -4.48438464695960       -2813.993790

Components of free energy of solvation:               hartree           kcal/mol
- Polar term in f.e. of solvation: (+)      -4.48438464695960       -2813.993790
- Apolar (cavitation, dis., rep.): (+)       0.66631456100731         418.118691
 -------------------------------------------------------------------------------
- Total free energy of solvation:           -3.81807008595228       -2395.875100
================================================================================


------------------------------ TIMING INFORMATION ------------------------------
AVERAGE TIME:   34245.265s on     60 node(s)                                    
TOTAL TIME:     34245.266s on     60 node(s)                                    
================= AVERAGE TIMINGS FROM ALL NODES (CUMULATIVE) ==================
|| TAG                                    #calls    cpu time   %total  Gflops ||
|| work_imbalance                       :     1        0.00s   0.000%  ------ ||
|| sparse_set_to_garbage                :   188        0.03s   0.000%  ------ ||
|| parallel_prepare_fd_halos_request    :  2067        0.03s   0.000%  ------ ||
|| ngwfs_initialise_from_radial         :     1        0.11s   0.000%  ------ ||
|| basis_extract_function_from_box      :  3819        0.17s   0.000%  ------ ||
|| parallel_prepare_fd_halos_satisfy    :  2067        0.72s   0.002%  ------ ||
|| parallel_prepare_fd_halos_alloc      :  2067        1.78s   0.005%  ------ ||
|| pseudopotentials_nonlocal_mat        :    32        2.12s   0.006%  ------ ||
|| openbc_locps_radial                  :     1        5.70s   0.017%  ------ ||
|| density_init_guess_real              :     1        8.53s   0.025%  ------ ||
|| restart_kernel_read                  :     1        8.59s   0.025%  ------ ||
|| parallel_prepare_fd_halos_comms_imbal:  2067       10.18s   0.030%  ------ ||
|| restart_ngwfs_tightbox_input         :     1       11.87s   0.035%  ------ ||
|| parallel_prepare_fd_halos_clear      :  2067       21.51s   0.063%  ------ ||
|| sparse_init                          :     2       23.12s   0.068%  ------ ||
|| projectors_func_ovlp_box             :    32       29.48s   0.086%  ------ ||
|| parallel_prepare_fd_halos_comms_wait :  2067       30.22s   0.088%  ------ ||
|| function_ops_brappd_ketppd           :    32       32.77s   0.096%  ------ ||
|| palser_mano_kernel_optimise          :     1       34.36s   0.100%  ------ ||
|| projectors_init_fftbox_recip         :   151       34.60s   0.101%  ------ ||
|| basis_copy_function_to_box           : 62096       43.19s   0.126%  ------ ||
|| ngwf_gradient_coeffs                 :    17       51.43s   0.150%  ------ ||
|| fourier_apply_box_pair               :  5470       56.12s   0.164% 564.287 ||
|| parallel_prepare_fd_halos            :  2067       64.47s   0.188%  ------ ||
|| pseudo_make_structure_factor         :     2       69.77s   0.204%  ------ ||
|| restart_kernel_write                 :    18       73.15s   0.214%  ------ ||
|| sparse_embed_hotelling_invert_embed  :    32       82.62s   0.241%  ------ ||
|| finite_difference_derivative         :  2067      154.69s   0.452%  ------ ||
|| integrals_kinetic                    :    32      159.85s   0.467%  ------ ||
|| projectors_gradient_batch            :   119      161.07s   0.470%  ------ ||
|| basis_dot_function_with_box          : 9.364M     187.90s   0.549%  ------ ||
|| fourier_apply_cell_backward          :  1379      202.92s   0.593%  99.575 ||
|| sparse_trace                         :  5801      226.31s   0.661%  ------ ||
|| fourier_apply_cell_forward           :  1377      261.78s   0.764%  77.074 ||
|| openbc_locps_on_grid                 :     2      295.55s   0.863%  ------ ||
|| kernel_purify                        :   526      310.83s   0.908%  ------ ||
|| basis_add_function_to_box            : 19.56M     450.48s   1.315%  ------ ||
|| lnv_gradient_norm                    :   170      458.67s   1.339%  ------ ||
|| hamiltonian_energy_components        :     4      493.34s   1.441%  ------ ||
|| xc_energy_potential                  :   344      537.51s   1.570%  ------ ||
|| kernel_fix                           :   170      585.34s   1.709%  ------ ||
|| integrals_locpot_mat_els_batch       :  1253      784.77s   2.292%  ------ ||
|| ngwf_gradient_build_batch            :   119      814.92s   2.380%  ------ ||
|| ngwf_gradient_batch                  :   119     1143.38s   3.339%  ------ ||
|| density_batch_row_sums               :  2401     1145.88s   3.346%  ------ ||
|| ngwf_gradient_lnv                    :    17     1303.48s   3.806%  ------ ||
|| cell_grid_deposit_box_real           : 39841     1492.88s   4.359%  ------ ||
|| restart_ngwfs_tightbox_output        :    15     1646.86s   4.809%  ------ ||
|| cell_grid_extract_box_real           : 44608     1749.41s   5.108%  ------ ||
|| sparse_product                       :  7169     1968.98s   5.750%  ------ ||
|| density_fftbox_deposit_to_cell       : 37730     2278.68s   6.654%  ------ ||
|| density_fftbox_interpolate_multiply  : 37730     3801.45s  11.101%  ------ ||
|| potential_apply_to_ngwf_batch        :  1253     3952.06s  11.540%  ------ ||
|| fourier_apply_box                    : 129.7k    4693.93s  13.707% 775.721 ||
|| integrals_locpot_dbl_grid            :   179     4759.81s  13.899%  ------ ||
|| multigrid_prepare_bound_cond         :   344     5029.27s  14.686%  ------ ||
|| density_batch_interp_deposit         :  2401     7111.10s  20.765%  ------ ||
|| dl_mg_solver_calls                   :   344     8202.30s  23.952%  ------ ||
|| density_on_dbl_grid                  :   343     8664.03s  25.300%  ------ ||
|| multigrid_calculate_hartree          :   344    13450.92s  39.278%  ------ ||
|| hamiltonian_lhxc_calculate           :   339    22614.22s  66.036%  ------ ||
|| lnv_denskernel_optimise_cg           :    17    28316.99s  82.689%  ------ ||
|| ngwf_cg_optimise                     :     2    33193.28s  96.928%  ------ ||
|| total_time                           :     1    34245.27s 100.000%  ------ ||
================================================================================
Overhead of generating timer report: 
- 0 ms averaging over threads,
- 15 ms ensuring consistency across MPI ranks,
- 0 ms printing in order.

Job completed: 31-03-2020 23:02 (+0100)

Application 40036256 resources: utime ~7059287s, stime ~240808s, Rss ~3741216, inblocks ~335080505, outblocks ~71113599
