 +---------------------------------------------------------------+
 |                                                               |
 |        ####### #     # ####### ####### ####### ######         |
 |        #     # ##    # #          #    #       #     #        |
 |        #     # # #   # #          #    #       #     #        |
 |        #     # #  #  # #####      #    #####   ######         |
 |        #     # #   # # #          #    #       #              |
 |        #     # #    ## #          #    #       #              |
 |        ####### #     # #######    #    ####### #              |
 |                                                               |
 |        Linear-Scaling Ab Initio Total Energy Program          |
 |                                                               |
 |          Release for academic collaborators of ODG            |
 |                                             Version 5.3.2.6.  |
 |                                                               |
 +---------------------------------------------------------------+
 |                                                               |
 |  Authors:                                                     |
 |  Jacek Dziedzic, Peter D. Haynes, Nicholas D. M. Hine,        |
 |  Arash. A. Mostofi, Mike C. Payne and Chris-Kriton Skylaris   |
 |                                                               |
 |  Contributors:                                                |
 |  J. Aarons, L. Andrinopoulos, P. W. Avraam, R. A. Bell,       |
 |  A. Bhandari, G. A. Bramley, R. J. Charlton, S. J. Clark,     |
 |  R. J. Clements, G. C. Constantinescu, F. Corsetti,           |
 |  N. Corsini, O. Dieguez, S. M. M. Dubois, K. K. B. Duff,      |
 |  J. M. Escartin, A. Greco, H. Helal, Q. O. Hill, L. P. Lee,   |
 |  J.-H. Li, E. B. Linscott, G. Moynihan, D. D. O`Regan,        |
 |  O. K. Okan, M. J. S. Phipps, C. J. Pickard,                  |
 |  J. C. A. Prentice, M. I. J. Probert, L. E. Ratcliff,         |
 |  M. Robinson, A. Ruiz Serrano, J. S. Spencer, E. W. Tait,     |
 |  G. Teobaldi, D. Turban, V. Vitale, K. A. Wilkinson,          |
 |  C. Weber, J. C. Womack, N. Yeung and T. J. Zuehlsdorff       |
 |                                                               |
 |                                   Copyright (c) 2004-2019     |
 |                                                               |
 |  Please cite:                                                 |
 |  "Introducing ONETEP: Linear-scaling density functional       |
 |   simulations on parallel computers".                         |
 |   C.-K. Skylaris, P. D. Haynes, A. A. Mostofi, M. C. Payne.   |
 |   J. Chem. Phys. 122 084119 (2005).                           |
 |                                                               |
 |          in all publications arising from your use of ONETEP. |
 |                                                               |
 +---------------------------------------------------------------+
 |                                                               |
 |   ONETEP is based on developments described in the following  |
 |   publications:                                               |
 |                                                               |
 |  "Nonorthogonal generalized Wannier function pseudopotential  |
 |   plane-wave method".                                         |
 |   C.-K. Skylaris, A. A. Mostofi, P. D. Haynes, O. Dieguez,    |
 |   M. C. Payne.                                                |
 |   Phys. Rev. B 66 035119 (2002).                              |
 |                                                               |
 |  "Preconditioned iterative minimization for linear-scaling    |
 |   electronic structure calculations".                         |
 |   A. A. Mostofi, P. D. Haynes, C.-K. Skylaris, M. C. Payne.   |
 |   J. Chem. Phys. 119(17), pp.8842-8848 (2003).                |
 |                                                               |
 |  "Total-energy calculations on a real space grid with         |
 |   localized functions and a plane-wave basis".                |
 |   A. A. Mostofi, C.-K. Skylaris, P. D. Haynes, M. C. Payne.   |
 |   Comput. Phys. Commun. 147, pp.788-802 (2002).               |
 |                                                               |
 |  "Accurate kinetic energy evaluation in electronic structure  |
 |   calculations with localized functions on real space grids"  |
 |   C.-K. Skylaris, A. A. Mostofi, P. D. Haynes, C. J. Pickard, |
 |   M. C. Payne.                                                |
 |   Comput. Phys. Commun. 140, pp.315-322 (2001).               |
 |                                                               |
 |  "Accurate ionic forces and geometry optimization in linear-  |
 |   scaling density-functional theory with local orbitals"      |
 |   N. D. M. Hine, M. Robinson, P. D. Haynes, C.-K. Skylaris,   |
 |   M. C. Payne, and A. A. Mostofi.                             |
 |   Phys. Rev. B 83 195102 (2011).                              |
 |                                                               |
 +---------------------------------------------------------------+

Job started: 02-05-2020 17:53 (+0100)
 
Reading parameters from file "complex_35821.dat" ...... done

If your calculation crashes here, before "Checking processes and threads..."
is displayed, then your stack size is insufficient.
If so, use "ulimit -s unlimited" at runtime.
You can disable this check with "check_stack_size F".

Checking processes and threads...
   Determining the default number of threads...
      No default threads set at compilation time: defaulting to 1.
      OpenMP library call suggests 4 threads.
      Hybrid MPI-OpenMP compilation detected.
      Number of MPI processes > 1.
      OMP_NUM_THREADS environment variable present and
      its value matches the one obtained from the OpenMP library call.
      Using this value as default.
      Default threads: 4
      Default applies to threads_max and threads_num_fftboxes.
      Settings in the input file override this default.
   ... done

   Running with 40 MPI processes.
   There are 10 MPI processes running on the same node as the root process.
   Each MPI process is using: 
               1 threads for simulation cell FFTs.
               1 threads for parallel FFT box operations.
               4 threads for loops over batched FFT box operations.
               4 threads in other parallel regions.
... done

Basic input checks...... done

Reading geometry and species blocks from file "complex_35821.dat" ...
  <species_atomic_set> block not found: NGWF initialisation set to SOLVE
IS: Dielectric excluded regions:
    - NONE.
    
  Number of PPD points along a3 set to 1.  This is 
  the default value, it may have been provided also in the input file.
... done
 Writing xyz coordinates to file "complex_35821.xyz" ... done


--------------------------------------------------------------------------------
---------------------------------- INPUT FILE ----------------------------------
--------------------------------------------------------------------------------

cutoff_energy       : 800 eV                                                    
xc_functional PBE                                                               
task SINGLEPOINT                                                                
write_xyz true                                                                  
output_detail VERBOSE                                                           
ngwf_threshold_orig : 0.000002                                                  
kernel_cutoff       : 1000                                                      
k_zero              : 3.5                                                       
elec_cg_max 0                                                                   
occ_mix 1.0                                                                     
dispersion 1                                                                    
maxit_ngwf_cg 40                                                                
minit_lnv 10                                                                    
maxit_lnv 10                                                                    
write_denskern T                                                                
write_tightbox_ngwfs T                                                          
charge 9                                                                        
is_implicit_solvent T                                                           
is_auto_solvation T                                                             
is_include_apolar T                                                             
is_smeared_ion_rep T                                                            
is_solvent_surf_tension 4.7624E-5 Ha/bohr**2                                    
is_apolar_scaling_factor 0.281075                                               
is_solvation_beta 1.3                                                           
is_density_threshold 0.00035                                                    
is_bulk_permittivity 78.54                                                      
is_dielectric_model fix_initial                                                 
is_smeared_ion_width 0.8                                                        
mg_defco_fd_order 8                                                             
is_bc_coarseness 10                                                             
is_bc_surface_coarseness 1                                                      
fine_grid_scale 2.0                                                             
%block species                                                                  
N   N   7 4 8.0                                                                 
H   H   1 1 8.0                                                                 
C   C   6 4 8.0                                                                 
S   S  16 9 8.0                                                                 
O   O   8 4 8.0                                                                 
F   F   9 9 8.0                                                                 
%endblock species                                                               
%block species_pot                                                              
N   N_00.recpot                                                                 
H   H_04.recpot                                                                 
C   C_01.recpot                                                                 
S   S_00.recpot                                                                 
O   O_02.recpot                                                                 
F   F_00.recpot                                                                 
%endblock species_pot                                                           
%block lattice_cart                                                             
139.898   0.000   0.000                                                         
0.000 144.87   0.000                                                            
0.000   0.000   168.12                                                          
%endblock lattice_cart                                                          
%block positions_abs                                                            
     Hash =  -000007252858907219303373
%endblock positions_abs                                                         

--------------------------------------------------------------------------------
-------------------------------- END INPUT FILE --------------------------------
--------------------------------------------------------------------------------


 
 ESDF WARNING(1): "kernelcutoff" (esdf_physical) has no units. Assume "bohr".
 ESDF WARNING(2): "kzero" (esdf_physical) has no units. Assume "1/bohr".
 ESDF WARNING(3
 ): "issmearedionwidth" (esdf_physical) has no units. Assume "bohr".
<<<<<<<<<<<<<<<<<<<<<<<<<<<<<<<<< Full system >>>>>>>>>>>>>>>>>>>>>>>>>>>>>>>>>>
WARNING in pseudopotentials_read_species: string "LDA" found in pseudopotential
file "F_00.recpot", yet xc_functional = "PBE".
 
<<<<<<<<<<<<<<<<<<<<<<<<< Pseudopotential information >>>>>>>>>>>>>>>>>>>>>>>>>>
File: N_00.recpot [ 2001 points up to Gmax=  52.9 (1/bohr)]
  Atomic number:  7;  ionic charge:  5.000000
    Shell 1: l = 0; rc = 1.48 bohr
File: H_04.recpot [ 2001 points up to Gmax=  52.9 (1/bohr)]
  Atomic number:  1;  ionic charge:  1.000000
    Local potential
File: C_01.recpot [ 2001 points up to Gmax=  52.9 (1/bohr)]
  Atomic number:  6;  ionic charge:  4.000000
    Shell 1: l = 0; rc = 1.48 bohr
File: S_00.recpot [ 2001 points up to Gmax=  52.9 (1/bohr)]
  Atomic number: 16;  ionic charge:  6.000000
    Shell 1: l = 0; rc = 1.90 bohr
    Shell 2: l = 2; rc = 1.84 bohr
File: O_02.recpot [ 2001 points up to Gmax=  52.9 (1/bohr)]
  Atomic number:  8;  ionic charge:  6.000000
    Shell 1: l = 0; rc = 1.31 bohr
File: F_00.recpot [ 2001 points up to Gmax=  52.9 (1/bohr)]
  Atomic number:  9;  ionic charge:  7.000000
    Shell 1: l = 0; rc = 1.60 bohr
<<<<<<<<<<<<<<<<<<<<<<<<<<<<<<<<<<<<<<<<>>>>>>>>>>>>>>>>>>>>>>>>>>>>>>>>>>>>>>>>

-------------------------- Atom counting information ---------------------------
Symbol    Natoms    Nngwfs    Nprojs
  N        237       948       237
  H       1317      1317         0
  C        816      3264       816
  S          6        54        36
  O        239       956       239
  F          1         9         1
.......   ......    ......    ......
Totals:   2616      6548      1329
--------------------------------------------------------------------------------

=============================== PSINC grid sizes ===============================
                      Simulation cell:  275 x 286 x 336
                              FFT-box:   99 x  99 x  99
                                  PPD:    5 x  11 x   1
Grid space d1=  0.508720000000a0 (KE cutoff=  29.35259Eh = 798.72452eV)
Grid space d2=  0.506538461538a0 (KE cutoff=  29.60596Eh = 805.61916eV)
Grid space d3=  0.500357142857a0 (KE cutoff=  30.34197Eh = 825.64705eV)
================================================================================

********************* Fourier parallelisation information **********************
       Coarse grid (whole simulation cell) dimensions:    275   286   336
          Real-space ('12') slabs/node (min max mean):      8     9     8
         Recip-space ('23') slabs/node (min max mean):      3     4     3
********************************************************************************

********************* Fourier parallelisation information **********************
       Double grid (whole simulation cell) dimensions:    550   572   672
          Real-space ('12') slabs/node (min max mean):     16    17    16
         Recip-space ('23') slabs/node (min max mean):      6     7     6
********************************************************************************
ONETEP fine grid is 550 x 572 x 672 gridpoints, 139.8980 x 144.8700 x 168.1200 bohr.
FD multigrid is     545 x 569 x 665 gridpoints, 138.6262 x 144.1102 x 166.3688 bohr.


Calculating local pseudopotential in open BC on a radial grid ...
Discrepancy between calculated realspace psloc and -Z/x on [5a0,262.342a0]:
max |rel. diff| # avg |rel. diff| #  avg rel. diff #  f # pseudopotential file
 0.000258413739    0.000003708905   0.000000070960   56  'N_00.recpot'
 0.000398954828    0.000016185045  -0.000000074508   56  'H_04.recpot'
 0.000375346405    0.000017198923   0.000000144535   56  'C_01.recpot'
 0.000466850533    0.000020125278   0.000000461745   56  'S_00.recpot'
 0.000671508953    0.000026045986   0.000000155458   56  'O_02.recpot'
 0.002873965647    0.000134299806   0.000000884984   56  'F_00.recpot'
... done

Atom SCF Calculation for N  : Z (AE atom) =   7 : Z (PS atom) =   5
Config String:
Orbitals (num,occ):  2     2.00 3.00
Orbitals   (num,l):  2        0    1
Real-space Grid (nr,dr,rmax): 1203    0.0066555740    8.0000000000
Spherical Bessel Basis (nsws,lmax,cutoff):   47    1  176.3951722778
Confining potential (l,width,scale):  0    3.0000000000  100.0000000000
Confining potential (l,width,scale):  1    3.0000000000  100.0000000000
  1         -4.7312375307   -3.4155304497    7.0523828109   -1.9351020946
  2         -9.7309464766   -2.0532547791    8.2966052865   -2.2494486027
  3         -9.6627394379   -2.1124926340    8.2327997121   -2.2369778124
  4         -9.6814993499   -2.1215521045    8.2229805960   -2.2365178421
  5         -9.6843326483   -2.1250939529    8.2191374534   -2.2362718126
  6         -9.6859628709   -2.1267894855    8.2172963573   -2.2362066344
  7         -9.6867347035   -2.1276425665    8.2163697352   -2.2361903369
  8         -9.6870802100   -2.1280764625    8.2158983890   -2.2361891460
  9         -9.6872290423   -2.1282977424    8.2156580222   -2.2361920435
 10         -9.6872901988   -2.1284107021    8.2155353368   -2.2361953393
 11         -9.6873135296   -2.1284684031    8.2154726809   -2.2361979819
 12         -9.6873212476   -2.1284978948    8.2154406648   -2.2361998431
 13         -9.6873229586   -2.1285129774    8.2154242957   -2.2362010676
 14         -9.6873226456   -2.1285206957    8.2154159216   -2.2362018403
 15         -9.6873218534   -2.1285246479    8.2154116349   -2.2362023142
 16         -9.6873212599   -2.1285262679    8.2154098784   -2.2362025420
 17         -9.6873207834   -2.1285272564    8.2154088068   -2.2362026955
 18         -9.6873204210   -2.1285278597    8.2154081529   -2.2362027982
 19         -9.6873201550   -2.1285282280    8.2154077538   -2.2362028667
 20         -9.6873199645   -2.1285284529    8.2154075102   -2.2362029121
 21         -9.6873198305   -2.1285285903    8.2154073614   -2.2362029421
 22         -9.6873197377   -2.1285286742    8.2154072705   -2.2362029618
Atom SCF converged after  22 iterations to a total energy of     -9.68731974

Atom SCF Calculation for H  : Z (AE atom) =   1 : Z (PS atom) =   1
Config String:
Orbitals (num,occ):  1     1.00
Orbitals   (num,l):  1        0
Real-space Grid (nr,dr,rmax): 1203    0.0066555740    8.0000000000
Spherical Bessel Basis (nsws,lmax,cutoff):   47    0  176.3951722778
Confining potential (l,width,scale):  0    3.0000000000  100.0000000000
  1         -0.3194257691   -0.2393854593    0.2820953124   -0.2424203209
  2         -0.3951823392   -0.2377116493    0.2886404059   -0.2475147891
  3         -0.4317044583   -0.2352244387    0.2921333887   -0.2514046172
  4         -0.4470703708   -0.2341892222    0.2934391879   -0.2531009782
  5         -0.4532132900   -0.2338556667    0.2938388426   -0.2537313520
  6         -0.4556579251   -0.2337612552    0.2939448584   -0.2539550462
  7         -0.4566418315   -0.2337377355    0.2939680120   -0.2540342273
  8         -0.4570437922   -0.2337331116    0.2939708287   -0.2540627372
  9         -0.4572102946   -0.2337328328    0.2939698291   -0.2540732650
 10         -0.4572800424   -0.2337332404    0.2939687193   -0.2540772588
 11         -0.4573095100   -0.2337335791    0.2939680317   -0.2540788122
 12         -0.4573220379   -0.2337337762    0.2939676699   -0.2540794294
 13         -0.4573273880   -0.2337338775    0.2939674931   -0.2540796787
 14         -0.4573296803   -0.2337339266    0.2939674099   -0.2540797808
 15         -0.4573306647   -0.2337339495    0.2939673718   -0.2540798230
 16         -0.4573310882   -0.2337339601    0.2939673545   -0.2540798406
 17         -0.4573312706   -0.2337339649    0.2939673467   -0.2540798479
 18         -0.4573313493   -0.2337339670    0.2939673433   -0.2540798510
Atom SCF converged after  18 iterations to a total energy of     -0.45733135

Atom SCF Calculation for C  : Z (AE atom) =   6 : Z (PS atom) =   4
Config String:
Orbitals (num,occ):  2     2.00 2.00
Orbitals   (num,l):  2        0    1
Real-space Grid (nr,dr,rmax): 1203    0.0066555740    8.0000000000
Spherical Bessel Basis (nsws,lmax,cutoff):   47    1  176.3951722778
Confining potential (l,width,scale):  0    3.0000000000  100.0000000000
Confining potential (l,width,scale):  1    3.0000000000  100.0000000000
  1         -5.2976922011   -1.3069684169    4.5135249990   -1.4493313817
  2         -5.3721716256   -1.3429755895    4.4750154450   -1.4361613026
  3         -5.3809959565   -1.3617365618    4.4541655428   -1.4305930207
  4         -5.3918938866   -1.3667928461    4.4484735100   -1.4294652294
  5         -5.3956096428   -1.3688539142    4.4461376126   -1.4290734646
  6         -5.3968271862   -1.3696852393    4.4451910874   -1.4289366866
  7         -5.3972028401   -1.3700178062    4.4448112275   -1.4288900460
  8         -5.3973067903   -1.3701500158    4.4446598370   -1.4288749220
  9         -5.3973286940   -1.3702023868    4.4445997329   -1.4288704293
 10         -5.3973289850   -1.3702230869    4.4445759233   -1.4288693188
 11         -5.3973254264   -1.3702312560    4.4445665049   -1.4288691775
 12         -5.3973224003   -1.3702344755    4.4445627836   -1.4288692549
 13         -5.3973208708   -1.3702354890    4.4445616088   -1.4288693270
 14         -5.3973198783   -1.3702360102    4.4445610034   -1.4288693814
 15         -5.3973192535   -1.3702362780    4.4445606917   -1.4288694190
 16         -5.3973188684   -1.3702364155    4.4445605313   -1.4288694437
 17         -5.3973186349   -1.3702364860    4.4445604489   -1.4288694595
 18         -5.3973184951   -1.3702365221    4.4445604065   -1.4288694693
 19         -5.3973184122   -1.3702365405    4.4445603848   -1.4288694753
Atom SCF converged after  19 iterations to a total energy of     -5.39731841

Atom SCF Calculation for S  : Z (AE atom) =  16 : Z (PS atom) =   6
Config String:
Orbitals (num,occ):  3     2.00 4.00 0.00
Orbitals   (num,l):  3        0    1    2
Real-space Grid (nr,dr,rmax): 1203    0.0066555740    8.0000000000
Spherical Bessel Basis (nsws,lmax,cutoff):   47    2  176.3951722778
Confining potential (l,width,scale):  0    3.0000000000  100.0000000000
Confining potential (l,width,scale):  1    3.0000000000  100.0000000000
Confining potential (l,width,scale):  2    3.0000000000  100.0000000000
  1        -12.4735062396   -1.0328741412   10.1554312477   -2.4512393157
  2         -9.9458301913   -2.4607392455    8.3041325857   -2.0306994528
  3        -10.1450417646   -2.2931184565    8.4831893826   -2.0812538287
  4        -10.1528335592   -2.2733105793    8.5050388867   -2.0896035179
  5        -10.1571940363   -2.2633716629    8.5160794258   -2.0939370707
  6        -10.1594380571   -2.2584938667    8.5215163935   -2.0961289008
  7        -10.1605856507   -2.2561081821    8.5241804044   -2.0972291378
  8        -10.1611799191   -2.2549395235    8.5254868240   -2.0977806248
  9        -10.1614918752   -2.2543658586    8.5261285885   -2.0980571586
 10        -10.1616572884   -2.2540839121    8.5264441898   -2.0981959233
 11        -10.1617455602   -2.2539453058    8.5265994231   -2.0982656006
 12        -10.1617928447   -2.2538772062    8.5266757320   -2.0983006047
 13        -10.1618182292   -2.2538437891    8.5267131983   -2.0983181961
 14        -10.1618318741   -2.2538274201    8.5267315620   -2.0983270391
 15        -10.1618392144   -2.2538194197    8.5267405433   -2.0983314852
 16        -10.1618431651   -2.2538155200    8.5267449245   -2.0983337210
 17        -10.1618452923   -2.2538136252    8.5267470551   -2.0983348455
 18        -10.1618464380   -2.2538127080    8.5267480875   -2.0983354110
 19        -10.1618470552   -2.2538122659    8.5267485856   -2.0983356955
 20        -10.1618473878   -2.2538120540    8.5267488248   -2.0983358386
 21        -10.1618475670   -2.2538119530    8.5267489389   -2.0983359106
 22        -10.1618476637   -2.2538119053    8.5267489929   -2.0983359468
Atom SCF converged after  22 iterations to a total energy of    -10.16184766

Atom SCF Calculation for O  : Z (AE atom) =   8 : Z (PS atom) =   6
Config String:
Orbitals (num,occ):  2     2.00 4.00
Orbitals   (num,l):  2        0    1
Real-space Grid (nr,dr,rmax): 1203    0.0066555740    8.0000000000
Spherical Bessel Basis (nsws,lmax,cutoff):   47    1  176.3951722778
Confining potential (l,width,scale):  0    3.0000000000  100.0000000000
Confining potential (l,width,scale):  1    3.0000000000  100.0000000000
  1         -1.8735052164   -7.5539365035   10.1554312477   -2.4512393157
  2        -16.0318313751   -3.1285771268   13.6395848164   -3.2358799643
  3        -15.9524020423   -3.0762819706   13.6967272503   -3.2536856837
  4        -15.8521515939   -3.0781493909   13.6951909330   -3.2561700440
  5        -15.8357139793   -3.0748501933   13.6988803334   -3.2580493133
  6        -15.8246052853   -3.0740779781   13.6997881576   -3.2588327446
  7        -15.8189019501   -3.0737449687   13.7001869911   -3.2592378801
  8        -15.8159785510   -3.0736026016   13.7003615168   -3.2594475790
  9        -15.8144776168   -3.0735437994   13.7004360379   -3.2595560735
 10        -15.8137058024   -3.0735207882   13.7004667348   -3.2596122456
 11        -15.8133083127   -3.0735125946   13.7004786868   -3.2596413656
 12        -15.8131032938   -3.0735102195   13.7004828997   -3.2596564858
 13        -15.8129973902   -3.0735099286   13.7004840891   -3.2596643505
 14        -15.8129426040   -3.0735102506   13.7004842061   -3.2596684489
 15        -15.8129142203   -3.0735106556   13.7004840157   -3.2596705887
 16        -15.8128994940   -3.0735109855   13.7004837906   -3.2596717080
 17        -15.8128918425   -3.0735112169   13.7004836103   -3.2596722946
 18        -15.8128878614   -3.0735113674   13.7004834848   -3.2596726026
 19        -15.8128857871   -3.0735114608   13.7004834035   -3.2596727646
 20        -15.8128847048   -3.0735115170   13.7004833533   -3.2596728500
 21        -15.8128841394   -3.0735115501   13.7004833231   -3.2596728951
 22        -15.8128838436   -3.0735115693   13.7004833054   -3.2596729190
 23        -15.8128836887   -3.0735115802   13.7004832951   -3.2596729316
 24        -15.8128836074   -3.0735115864   13.7004832893   -3.2596729383
Atom SCF converged after  24 iterations to a total energy of    -15.81288361

Atom SCF Calculation for F  : Z (AE atom) =   9 : Z (PS atom) =   7
Config String:
Orbitals (num,occ):  5     2.00 5.00 0.00 0.00 0.00
Orbitals   (num,l):  5        0    1    0    1    2
Real-space Grid (nr,dr,rmax): 1203    0.0066555740    8.0000000000
Spherical Bessel Basis (nsws,lmax,cutoff):   47    2  176.3951722778
Confining potential (l,width,scale):  0    3.0000000000  100.0000000000
Confining potential (l,width,scale):  1    3.0000000000  100.0000000000
Confining potential (l,width,scale):  2    3.0000000000  100.0000000000
  1          2.7613408675  -14.5815130354   13.8226703094   -2.9941905181
  2        -23.6468980113   -4.9263326541   20.5563421412   -4.3754293297
  3        -24.5333043594   -4.3845963970   21.1176052958   -4.4841731563
  4        -24.3589864791   -4.3106783108   21.1950887716   -4.4997202795
  5        -24.2648391338   -4.2783243831   21.2295118026   -4.5072738146
  6        -24.2274338603   -4.2663478973   21.2423649225   -4.5102591768
  7        -24.2052315491   -4.2595041622   21.2497430410   -4.5120310941
  8        -24.1920610535   -4.2555995140   21.2539669715   -4.5130761189
  9        -24.1842594614   -4.2533726648   21.2563826077   -4.5136908004
 10        -24.1796430262   -4.2521035456   21.2577627107   -4.5140519045
 11        -24.1769128010   -4.2513811698   21.2585501121   -4.5142639028
 12        -24.1752983031   -4.2509707627   21.2589985394   -4.5143883165
 13        -24.1743434247   -4.2507381589   21.2592533437   -4.5144613128
 14        -24.1737784708   -4.2506067164   21.2593977374   -4.5145041342
 15        -24.1734440540   -4.2505326993   21.2594793047   -4.5145292513
 16        -24.1732459871   -4.2504911905   21.2595252124   -4.5145439823
 17        -24.1731286021   -4.2504680245   21.2595509400   -4.5145526212
 18        -24.1730589855   -4.2504551689   21.2595652865   -4.5145576869
 19        -24.1730176682   -4.2504480829   21.2595732399   -4.5145606573
 20        -24.1729931274   -4.2504442088   21.2595776183   -4.5145623987
 21        -24.1729785394   -4.2504421116   21.2595800086   -4.5145634196
 22        -24.1729698603   -4.2504409903   21.2595813001   -4.5145640181
 23        -24.1729646922   -4.2504404002   21.2595819890   -4.5145643688
 24        -24.1729616119   -4.2504400960   21.2595823505   -4.5145645744
 25        -24.1729597743   -4.2504399438   21.2595825360   -4.5145646948
 26        -24.1729586769   -4.2504398706   21.2595826284   -4.5145647654
 27        -24.1729580209   -4.2504398378   21.2595826723   -4.5145648067
 28        -24.1729576283   -4.2504398249   21.2595826917   -4.5145648309
 29        -24.1729573931   -4.2504398211   21.2595826991   -4.5145648451
 30        -24.1729572521   -4.2504398214   21.2595827010   -4.5145648534
 31        -24.1729571674   -4.2504398230   21.2595827006   -4.5145648582
Atom SCF converged after  31 iterations to a total energy of    -24.17295717
 
WARNING in ngwfs_initialise: Setting radial NGWF functions for species  6 (F):
Last NGWF on atom has m = -2 and does not complete set of m-values for l = 2.
This breaks symmetry and may cause unstable NGWF optimisation and poor 
convergence. Suggest increasing number of NGWFs per atom from   9 to  13.
NB: All NGWF radial function angular momenta:     0    1    0    1    2
 

========================== Calculation in vacuum ==============================
= Adjusting the following parameters: 
= is_implicit_solvent: F
= is_include_apolar: F
= write_denskern: T
= write_tightbox_ngwfs: T
= restart read filename prefix: ""
= restart write filename prefix: "vacuum_"
===============================================================================

Determining parallel strategy ...
... using space-filling curve
... NGWF load balancing: max    164;  min    163;  average    164
... Projector load balancing: max     36;  min     31;  average     33
... done
Calculating direct Ion-Ion energy ...
Ion-Ion Energy        :    838529.42664793331642
======================= Empirical dispersion information =======================
Model : Elstner
WARNING: Unoptimised dispersion parameters used for F 
Dispersion Correction Energy: -0.32675740E+01 Hartree
================================================================================
Basis initialisation ...... NGWF spheres initialised
... Projector spheres initialised
... NGWF tight boxes initialised
... Tight-boxes gathered
... NGWF basis size (local,global):    1272448  51071548
... Nonlocal pseudopotential projector initialisation
... done

========================== Sparse matrix information ===========================
                        Overlap matrix filling:   6.74%
                        Density kernel filling: 100.00%
              NGWF-Proj overlap matrix filling:   1.76%
                    Hamiltonian matrix filling:   7.62%
                  NGWF diagonal matrix filling:   0.05%
                             KS matrix filling: 100.00% 
                           KSKS matrix filling: 100.00% 
================================================================================

Sparse matrix initialisation ... done

Generating smeared ion density ... done
Smeared ion self correction:     -14544.936866
Smeared ion non-self correction: -838481.199890
NGWF initialisation ...... done
============ Calculation of NGWF S^-1 using Hotelling algorithm ================ 
         Iteration  |  Frobenius norm and Maximum abs value    (of I-S*S_n^-1)   
               1       0.78717192E+02     0.98253517E+00
               2       0.76844218E+02     0.96549639E+00
               3       0.73816275E+02     0.93262980E+00
               4       0.69520652E+02     0.87133321E+00
               5       0.64178930E+02     0.76655027E+00
               6       0.58185408E+02     0.70179419E+00
               7       0.52170653E+02     0.66675881E+00
               8       0.46607507E+02     0.64132155E+00
               9       0.40495494E+02     0.59945940E+00
              10       0.32167713E+02     0.53826387E+00
              11       0.21556165E+02     0.44900252E+00
              12       0.10970095E+02     0.32542219E+00
              13       0.36136391E+01     0.18815649E+00
              14       0.63030557E+00     0.78398230E-01
              15       0.92003213E-01     0.19636635E-01
              16       0.77953768E-02     0.16656215E-02
              17       0.60746196E-04     0.12960501E-04
              18       0.36901008E-08     0.78730089E-09
              19       0.54214603E-13     0.24424907E-14
================================================================================
Calculating local pseudopotential in open BC on the fine real space grid ...
... done

MG BCs: +ve charge blocks (gridpoints):     20191 (   15932167).
MG BCs: -ve charge blocks (gridpoints):      7996 (    1080118).
MG BCs:     Elided blocks (gridpoints):    189854 (  189207540).
MG BCs: Computational effort saved:  99.9863%.
MG BCs: Charge after coarse-graining:           -9.0002207.
MG DL_MG: Calling solver with defect correction order = 8
MG DL_MG: Solver finished
MG Hartree energy from (\int phi*rho dr):              1471.601895
MG Hartree energy from (\int eps (grad phi)^2 dr):     1470.992284
MG Discrepancy due to finite box and discretization:     -0.609612 (  -0.04143%)
MG Correction to account for finite box:                  0.454640
MG Remaining discrepancy, due to discretization:         -0.154972 (  -0.01053%)
Up spin density kernel initialisation ... 
======= Optimisation of K by Palser-Manolopoulos canonical purification ======== 
         Iteration  |  Band structure energy |    c_n   
               1       -2552.86230932571834    0.5313621
               2       -2727.28611757812359    0.5204506
               3       -2912.67603287773363    0.5154323
               4       -3075.74413542363573    0.5244186
               5       -3183.90280409594106    0.5545050
               6       -3233.18039285635950    0.6011203
               7       -3250.01828951244215    0.6225827
               8       -3256.75818040696095    0.6224336
               9       -3260.03204479853366    0.6336120
              10       -3261.44341781196590    0.6524529
              11       -3262.01315788150714    0.6604579
              12       -3262.26612869317023    0.6423683
              13       -3262.39647524181328    0.5917600
              14       -3262.46790627191240    0.4908735
              15       -3262.50088210076501    0.3105766
              16       -3262.50185401812178    0.2898839
              17       -3262.50218253155890    0.3087583
              18       -3262.50248283078918    0.3406920
              19       -3262.50281403564532    0.3831177
              20       -3262.50315749899937    0.4326736
              21       -3262.50347097276062    0.4761361
              22       -3262.50369713310783    0.4969017
              23       -3262.50380078411126    0.4999486
              24       -3262.50381913045749    0.5000000
              25       -3262.50381962364281    0.5000087
              26       -3262.50381962398660    0.5000087
Termination criterion satisfied: band energy change below threshold.
Final occupancy bounds: [   -0.00000000000000:    1.00000000000000]
Closest occupancy to 0.5:     1.00000000000000
================================================================================
... done

Writing density kernel to file "complex_35821.vacuum_dkn" ... done

>>> Optimising kernel for current NGWFs:
   Initial electron number for spin 1:    7234.00000000
     Final electron number for spin 1:    7234.00000000

=================== Penalty functional idempotency correction ==================
 RMS occupancy error at iteration   1:  0.000000 (step -0.5000 Ne1=   7234.0000)
            Final RMS occupancy error   :  0.000000 (Ne1=   7234.0000)
               Final occupancy bounds   : [  0.0000,  1.0000]
================================================================================

................................................................................
<<<<<<<<<<<<<< LNV (Original version) density kernel optimisation >>>>>>>>>>>>>>
~~~~~~~~~~~~~~~~~~~~~~~~~~~~~~~~~~~~~~~~~~~~~~~~~~~~~~~~~~~~~~~~~~~~~~~~~~~~~~~~
   iter  |      energy (Eh)       | rms gradient |  commutator  |   dE (Eh)
MG BCs: +ve charge blocks (gridpoints):     30795 (   17085278).
MG BCs: -ve charge blocks (gridpoints):      8387 (    1113133).
MG BCs:     Elided blocks (gridpoints):    179241 (  188021414).
MG BCs: Computational effort saved:  99.9810%.
MG BCs: Charge after coarse-graining:           -9.0009415.
MG DL_MG: Calling solver with defect correction order = 8
MG DL_MG: Solver finished
MG Hartree energy from (\int phi*rho dr):              1427.683057
MG Hartree energy from (\int eps (grad phi)^2 dr):     1427.015613
MG Discrepancy due to finite box and discretization:     -0.667444 (  -0.04675%)
MG Correction to account for finite box:                  0.469877
MG Remaining discrepancy, due to discretization:         -0.197568 (  -0.01384%)
      ideal mu1:      -0.696678283095
             Q0:  -11578.078985523549
             G0:    -144.758614810814
   RMS gradient:       0.001837441574
MG BCs: +ve charge blocks (gridpoints):     30787 (   17168093).
MG BCs: -ve charge blocks (gridpoints):      8281 (    1093484).
MG BCs:     Elided blocks (gridpoints):    179248 (  187958248).
MG BCs: Computational effort saved:  99.9811%.
MG BCs: Charge after coarse-graining:           -9.0009632.
MG DL_MG: Calling solver with defect correction order = 8
MG DL_MG: Solver finished
MG Hartree energy from (\int phi*rho dr):              1453.074477
MG Hartree energy from (\int eps (grad phi)^2 dr):     1452.424108
MG Discrepancy due to finite box and discretization:     -0.650369 (  -0.04476%)
MG Correction to account for finite box:                  0.468590
MG Remaining discrepancy, due to discretization:         -0.181778 (  -0.01251%)
     Trial step:       0.500000000000
             Q1:  -11589.595798547496
 Quadratic coef:      60.862494381459
 Linear coef   :     -72.379307405407
           Qmin:  -11599.597837953635
Quadratic minimum step length (  0.297306691670) accepted
    Initial Ne1:    7234.00000000
      Final Ne1:    7234.00000000

=================== Penalty functional idempotency correction ==================
 RMS occupancy error at iteration   1:  0.003381 (step -0.4886 Ne1=   7234.0000)
 RMS occupancy error at iteration   2:  0.000026 (step -0.5001 Ne1=   7234.0000)
            Final RMS occupancy error   :  0.000000 (Ne1=   7234.0000)
               Final occupancy bounds   : [  0.0000,  1.0000]
================================================================================

    1        -1.157807898552E+04     1.8374E-03     1.6632E-03
MG BCs: +ve charge blocks (gridpoints):     30797 (   17135922).
MG BCs: -ve charge blocks (gridpoints):      8338 (    1101781).
MG BCs:     Elided blocks (gridpoints):    179239 (  187982122).
MG BCs: Computational effort saved:  99.9810%.
MG BCs: Charge after coarse-graining:           -9.0009546.
MG DL_MG: Calling solver with defect correction order = 8
MG DL_MG: Solver finished
MG Hartree energy from (\int phi*rho dr):              1434.857454
MG Hartree energy from (\int eps (grad phi)^2 dr):     1434.201111
MG Discrepancy due to finite box and discretization:     -0.656344 (  -0.04574%)
MG Correction to account for finite box:                  0.469003
MG Remaining discrepancy, due to discretization:         -0.187341 (  -0.01306%)
      ideal mu1:      -0.742694751946
             Q0:  -11599.994988827035
             G0:     -12.106802570021
   RMS gradient:       0.000527839428
MG BCs: +ve charge blocks (gridpoints):     30790 (   17153442).
MG BCs: -ve charge blocks (gridpoints):      8306 (    1096633).
MG BCs:     Elided blocks (gridpoints):    179244 (  187969750).
MG BCs: Computational effort saved:  99.9810%.
MG BCs: Charge after coarse-graining:           -9.0009580.
MG DL_MG: Calling solver with defect correction order = 8
MG DL_MG: Solver finished
MG Hartree energy from (\int phi*rho dr):              1440.012258
MG Hartree energy from (\int eps (grad phi)^2 dr):     1439.360186
MG Discrepancy due to finite box and discretization:     -0.652072 (  -0.04528%)
MG Correction to account for finite box:                  0.467925
MG Remaining discrepancy, due to discretization:         -0.184147 (  -0.01279%)
     Trial step:       0.385555891973
             Q1:  -11602.832671324140
 Quadratic coef:       1.830166566720
 Linear coef   :      -4.667849063826
           Qmin:  -11602.971331975094
Quadratic minimum step length (  0.491681124037) accepted
    Initial Ne1:    7233.99990260
      Final Ne1:    7234.00000000

=================== Penalty functional idempotency correction ==================
 RMS occupancy error at iteration   1:  0.001792 (step -0.4931 Ne1=   7234.0000)
 RMS occupancy error at iteration   2:  0.000011 (step -0.5001 Ne1=   7234.0000)
            Final RMS occupancy error   :  0.000000 (Ne1=   7234.0000)
               Final occupancy bounds   : [  0.0000,  1.0000]
================================================================================

    2        -1.159999498883E+04     5.2784E-04     4.7778E-04    -2.1916E+01
MG BCs: +ve charge blocks (gridpoints):     30785 (   17158239).
MG BCs: -ve charge blocks (gridpoints):      8299 (    1095166).
MG BCs:     Elided blocks (gridpoints):    179249 (  187966420).
MG BCs: Computational effort saved:  99.9810%.
MG BCs: Charge after coarse-graining:           -9.0009591.
MG DL_MG: Calling solver with defect correction order = 8
MG DL_MG: Solver finished
MG Hartree energy from (\int phi*rho dr):              1441.479019
MG Hartree energy from (\int eps (grad phi)^2 dr):     1440.828044
MG Discrepancy due to finite box and discretization:     -0.650975 (  -0.04516%)
MG Correction to account for finite box:                  0.467644
MG Remaining discrepancy, due to discretization:         -0.183331 (  -0.01272%)
      ideal mu1:      -0.767437627715
             Q0:  -11603.007880074787
             G0:      -1.914513570313
   RMS gradient:       0.000209983450
MG BCs: +ve charge blocks (gridpoints):     30792 (   17157676).
MG BCs: -ve charge blocks (gridpoints):      8309 (    1096261).
MG BCs:     Elided blocks (gridpoints):    179242 (  187965888).
MG BCs: Computational effort saved:  99.9810%.
MG BCs: Charge after coarse-graining:           -9.0009586.
MG DL_MG: Calling solver with defect correction order = 8
MG DL_MG: Solver finished
MG Hartree energy from (\int phi*rho dr):              1439.246160
MG Hartree energy from (\int eps (grad phi)^2 dr):     1438.595853
MG Discrepancy due to finite box and discretization:     -0.650307 (  -0.04518%)
MG Correction to account for finite box:                  0.467166
MG Remaining discrepancy, due to discretization:         -0.183141 (  -0.01272%)
     Trial step:       0.435397007735
             Q1:  -11603.499834083021
 Quadratic coef:       0.341619471548
 Linear coef   :      -0.833573479782
           Qmin:  -11603.516373299022
Quadratic minimum step length (  0.531198349408) accepted
    Initial Ne1:    7233.99993451
      Final Ne1:    7234.00000000

=================== Penalty functional idempotency correction ==================
 RMS occupancy error at iteration   1:  0.000635 (step -0.4970 Ne1=   7234.0000)
 RMS occupancy error at iteration   2:  0.000003 (step -0.5000 Ne1=   7234.0000)
            Final RMS occupancy error   :  0.000000 (Ne1=   7234.0000)
               Final occupancy bounds   : [  0.0000,  1.0000]
================================================================================

    3        -1.160300788007E+04     2.0998E-04     1.9007E-04    -3.0129E+00
MG BCs: +ve charge blocks (gridpoints):     30790 (   17157470).
MG BCs: -ve charge blocks (gridpoints):      8311 (    1096548).
MG BCs:     Elided blocks (gridpoints):    179244 (  187965807).
MG BCs: Computational effort saved:  99.9810%.
MG BCs: Charge after coarse-graining:           -9.0009586.
MG DL_MG: Calling solver with defect correction order = 8
MG DL_MG: Solver finished
MG Hartree energy from (\int phi*rho dr):              1438.764454
MG Hartree energy from (\int eps (grad phi)^2 dr):     1438.114282
MG Discrepancy due to finite box and discretization:     -0.650172 (  -0.04519%)
MG Correction to account for finite box:                  0.467062
MG Remaining discrepancy, due to discretization:         -0.183110 (  -0.01273%)
      ideal mu1:      -0.768069194504
             Q0:  -11603.521079550846
             G0:      -0.490385321726
   RMS gradient:       0.000106400573
MG BCs: +ve charge blocks (gridpoints):     30793 (   17158706).
MG BCs: -ve charge blocks (gridpoints):      8304 (    1096210).
MG BCs:     Elided blocks (gridpoints):    179242 (  187964909).
MG BCs: Computational effort saved:  99.9810%.
MG BCs: Charge after coarse-graining:           -9.0009586.
MG DL_MG: Calling solver with defect correction order = 8
MG DL_MG: Solver finished
MG Hartree energy from (\int phi*rho dr):              1440.093149
MG Hartree energy from (\int eps (grad phi)^2 dr):     1439.443025
MG Discrepancy due to finite box and discretization:     -0.650124 (  -0.04514%)
MG Correction to account for finite box:                  0.466902
MG Remaining discrepancy, due to discretization:         -0.183223 (  -0.01272%)
     Trial step:       0.480918051071
             Q1:  -11603.644906905014
 Quadratic coef:       0.112007799031
 Linear coef   :      -0.235835153198
           Qmin:  -11603.645218717862
Quadratic minimum step length (  0.506292344066) accepted
    Initial Ne1:    7233.99998413
      Final Ne1:    7234.00000000

=================== Penalty functional idempotency correction ==================
 RMS occupancy error at iteration   1:  0.000281 (step -0.4962 Ne1=   7234.0000)
 RMS occupancy error at iteration   2:  0.000002 (step -0.5000 Ne1=   7234.0000)
            Final RMS occupancy error   :  0.000000 (Ne1=   7234.0000)
               Final occupancy bounds   : [  0.0000,  1.0000]
================================================================================

    4        -1.160352107955E+04     1.0640E-04     9.6311E-05    -5.1320E-01
MG BCs: +ve charge blocks (gridpoints):     30793 (   17158766).
MG BCs: -ve charge blocks (gridpoints):      8304 (    1096209).
MG BCs:     Elided blocks (gridpoints):    179242 (  187964850).
MG BCs: Computational effort saved:  99.9810%.
MG BCs: Charge after coarse-graining:           -9.0009586.
MG DL_MG: Calling solver with defect correction order = 8
MG DL_MG: Solver finished
MG Hartree energy from (\int phi*rho dr):              1440.163826
MG Hartree energy from (\int eps (grad phi)^2 dr):     1439.513704
MG Discrepancy due to finite box and discretization:     -0.650122 (  -0.04514%)
MG Correction to account for finite box:                  0.466893
MG Remaining discrepancy, due to discretization:         -0.183229 (  -0.01272%)
      ideal mu1:      -0.768625009985
             Q0:  -11603.645810837508
             G0:      -0.189106477014
   RMS gradient:       0.000066259341
MG BCs: +ve charge blocks (gridpoints):     30792 (   17158897).
MG BCs: -ve charge blocks (gridpoints):      8303 (    1095989).
MG BCs:     Elided blocks (gridpoints):    179243 (  187964939).
MG BCs: Computational effort saved:  99.9810%.
MG BCs: Charge after coarse-graining:           -9.0009585.
MG DL_MG: Calling solver with defect correction order = 8
MG DL_MG: Solver finished
MG Hartree energy from (\int phi*rho dr):              1440.532900
MG Hartree energy from (\int eps (grad phi)^2 dr):     1439.882678
MG Discrepancy due to finite box and discretization:     -0.650222 (  -0.04514%)
MG Correction to account for finite box:                  0.466820
MG Remaining discrepancy, due to discretization:         -0.183402 (  -0.01273%)
     Trial step:       0.493442121611
             Q1:  -11603.707056770101
 Quadratic coef:       0.032067168635
 Linear coef   :      -0.093313101228
           Qmin:  -11603.713694402159
Quadratic minimum step length (  0.717940133230) accepted
    Initial Ne1:    7233.99999118
      Final Ne1:    7234.00000000

=================== Penalty functional idempotency correction ==================
 RMS occupancy error at iteration   1:  0.000475 (step -0.4779 Ne1=   7234.0000)
 RMS occupancy error at iteration   2:  0.000008 (step -0.5000 Ne1=   7234.0000)
            Final RMS occupancy error   :  0.000000 (Ne1=   7234.0000)
               Final occupancy bounds   : [  0.0000,  1.0000]
================================================================================

    5        -1.160364581084E+04     6.6259E-05     5.9976E-05    -1.2473E-01
MG BCs: +ve charge blocks (gridpoints):     30794 (   17158912).
MG BCs: -ve charge blocks (gridpoints):      8301 (    1095933).
MG BCs:     Elided blocks (gridpoints):    179241 (  187964980).
MG BCs: Computational effort saved:  99.9810%.
MG BCs: Charge after coarse-graining:           -9.0009584.
MG DL_MG: Calling solver with defect correction order = 8
MG DL_MG: Solver finished
MG Hartree energy from (\int phi*rho dr):              1440.699248
MG Hartree energy from (\int eps (grad phi)^2 dr):     1440.048982
MG Discrepancy due to finite box and discretization:     -0.650267 (  -0.04514%)
MG Correction to account for finite box:                  0.466786
MG Remaining discrepancy, due to discretization:         -0.183481 (  -0.01274%)
      ideal mu1:      -0.768516556318
             Q0:  -11603.713098843582
             G0:      -0.184851146657
   RMS gradient:       0.000066066768
MG BCs: +ve charge blocks (gridpoints):     30793 (   17157986).
MG BCs: -ve charge blocks (gridpoints):      8307 (    1096467).
MG BCs:     Elided blocks (gridpoints):    179241 (  187965372).
MG BCs: Computational effort saved:  99.9810%.
MG BCs: Charge after coarse-graining:           -9.0009582.
MG DL_MG: Calling solver with defect correction order = 8
MG DL_MG: Solver finished
MG Hartree energy from (\int phi*rho dr):              1439.308375
MG Hartree energy from (\int eps (grad phi)^2 dr):     1438.658171
MG Discrepancy due to finite box and discretization:     -0.650204 (  -0.04517%)
MG Correction to account for finite box:                  0.466729
MG Remaining discrepancy, due to discretization:         -0.183475 (  -0.01275%)
     Trial step:       0.595199044464
             Q1:  -11603.797321646940
 Quadratic coef:       0.025800422500
 Linear coef   :      -0.110023225858
           Qmin:  -11603.830394502484
Quadratic minimum step length (  1.269082297013) accepted
    Initial Ne1:    7233.99997163
      Final Ne1:    7234.00000000

=================== Penalty functional idempotency correction ==================
 RMS occupancy error at iteration   1:  0.004278 (step -0.3358 Ne1=   7234.0000)
 RMS occupancy error at iteration   2:  0.000164 (step -0.4990 Ne1=   7234.0000)
 RMS occupancy error at iteration   3:  0.000000 (step -0.5000 Ne1=   7234.0000)
            Final RMS occupancy error   :  0.000000 (Ne1=   7234.0000)
               Final occupancy bounds   : [  0.0000,  1.0000]
================================================================================

    6        -1.160371309884E+04     6.6067E-05     5.9802E-05    -6.7288E-02
MG BCs: +ve charge blocks (gridpoints):     30797 (   17156970).
MG BCs: -ve charge blocks (gridpoints):      8311 (    1097013).
MG BCs:     Elided blocks (gridpoints):    179237 (  187965842).
MG BCs: Computational effort saved:  99.9810%.
MG BCs: Charge after coarse-graining:           -9.0009580.
MG DL_MG: Calling solver with defect correction order = 8
MG DL_MG: Solver finished
MG Hartree energy from (\int phi*rho dr):              1437.752016
MG Hartree energy from (\int eps (grad phi)^2 dr):     1437.101868
MG Discrepancy due to finite box and discretization:     -0.650148 (  -0.04522%)
MG Correction to account for finite box:                  0.466682
MG Remaining discrepancy, due to discretization:         -0.183466 (  -0.01276%)
      ideal mu1:      -0.768098586529
             Q0:  -11603.804337988724
             G0:      -0.378737911502
   RMS gradient:       0.000093985470
MG BCs: +ve charge blocks (gridpoints):     30792 (   17160442).
MG BCs: -ve charge blocks (gridpoints):      8302 (    1095334).
MG BCs:     Elided blocks (gridpoints):    179243 (  187964049).
MG BCs: Computational effort saved:  99.9810%.
MG BCs: Charge after coarse-graining:           -9.0009590.
MG DL_MG: Calling solver with defect correction order = 8
MG DL_MG: Solver finished
MG Hartree energy from (\int phi*rho dr):              1441.837094
MG Hartree energy from (\int eps (grad phi)^2 dr):     1441.187267
MG Discrepancy due to finite box and discretization:     -0.649828 (  -0.04507%)
MG Correction to account for finite box:                  0.466556
MG Remaining discrepancy, due to discretization:         -0.183272 (  -0.01271%)
     Trial step:       0.869112518911
             Q1:  -11603.899439234054
 Quadratic coef:       0.234064614944
 Linear coef   :      -0.329165860273
           Qmin:  -11603.920064754595
Quadratic minimum step length (  0.611117938587) accepted
    Initial Ne1:    7233.99999997
      Final Ne1:    7234.00000000

=================== Penalty functional idempotency correction ==================
 RMS occupancy error at iteration   1:  0.000175 (step -0.4898 Ne1=   7234.0000)
 RMS occupancy error at iteration   2:  0.000001 (step -0.5000 Ne1=   7234.0000)
            Final RMS occupancy error   :  0.000000 (Ne1=   7234.0000)
               Final occupancy bounds   : [  0.0000,  1.0000]
================================================================================

    7        -1.160380433799E+04     9.3985E-05     8.5073E-05    -9.1239E-02
MG BCs: +ve charge blocks (gridpoints):     30795 (   17159448).
MG BCs: -ve charge blocks (gridpoints):      8303 (    1095779).
MG BCs:     Elided blocks (gridpoints):    179239 (  187964598).
MG BCs: Computational effort saved:  99.9810%.
MG BCs: Charge after coarse-graining:           -9.0009587.
MG DL_MG: Calling solver with defect correction order = 8
MG DL_MG: Solver finished
MG Hartree energy from (\int phi*rho dr):              1440.618775
MG Hartree energy from (\int eps (grad phi)^2 dr):     1439.968854
MG Discrepancy due to finite box and discretization:     -0.649921 (  -0.04511%)
MG Correction to account for finite box:                  0.466594
MG Remaining discrepancy, due to discretization:         -0.183328 (  -0.01273%)
      ideal mu1:      -0.769333514149
             Q0:  -11603.920347741572
             G0:      -0.252257153020
   RMS gradient:       0.000076625121
MG BCs: +ve charge blocks (gridpoints):     30794 (   17159116).
MG BCs: -ve charge blocks (gridpoints):      8301 (    1095908).
MG BCs:     Elided blocks (gridpoints):    179241 (  187964801).
MG BCs: Computational effort saved:  99.9810%.
MG BCs: Charge after coarse-graining:           -9.0009588.
MG DL_MG: Calling solver with defect correction order = 8
MG DL_MG: Solver finished
MG Hartree energy from (\int phi*rho dr):              1440.336208
MG Hartree energy from (\int eps (grad phi)^2 dr):     1439.686445
MG Discrepancy due to finite box and discretization:     -0.649763 (  -0.04511%)
MG Correction to account for finite box:                  0.466633
MG Remaining discrepancy, due to discretization:         -0.183130 (  -0.01271%)
     Trial step:       0.728786835060
             Q1:  -11604.024397763773
 Quadratic coef:       0.079791669970
 Linear coef   :      -0.183841692171
           Qmin:  -11604.026241526577
Quadratic minimum step length (  0.839570127051) accepted
    Initial Ne1:    7233.99999985
      Final Ne1:    7234.00000000

=================== Penalty functional idempotency correction ==================
 RMS occupancy error at iteration   1:  0.001301 (step -0.4301 Ne1=   7234.0000)
 RMS occupancy error at iteration   2:  0.000035 (step -0.4992 Ne1=   7234.0000)
            Final RMS occupancy error   :  0.000000 (Ne1=   7234.0000)
               Final occupancy bounds   : [ -0.0000,  1.0000]
================================================================================

    8        -1.160392034774E+04     7.6625E-05     6.9359E-05    -1.1601E-01
MG BCs: +ve charge blocks (gridpoints):     30794 (   17159036).
MG BCs: -ve charge blocks (gridpoints):      8300 (    1095927).
MG BCs:     Elided blocks (gridpoints):    179241 (  187964862).
MG BCs: Computational effort saved:  99.9810%.
MG BCs: Charge after coarse-graining:           -9.0009589.
MG DL_MG: Calling solver with defect correction order = 8
MG DL_MG: Solver finished
MG Hartree energy from (\int phi*rho dr):              1440.297115
MG Hartree energy from (\int eps (grad phi)^2 dr):     1439.647377
MG Discrepancy due to finite box and discretization:     -0.649739 (  -0.04511%)
MG Correction to account for finite box:                  0.466638
MG Remaining discrepancy, due to discretization:         -0.183100 (  -0.01271%)
      ideal mu1:      -0.768848062463
             Q0:  -11604.024994798936
             G0:      -0.244381095499
   RMS gradient:       0.000075881273
MG BCs: +ve charge blocks (gridpoints):     30792 (   17158035).
MG BCs: -ve charge blocks (gridpoints):      8304 (    1096465).
MG BCs:     Elided blocks (gridpoints):    179243 (  187965325).
MG BCs: Computational effort saved:  99.9810%.
MG BCs: Charge after coarse-graining:           -9.0009585.
MG DL_MG: Calling solver with defect correction order = 8
MG DL_MG: Solver finished
MG Hartree energy from (\int phi*rho dr):              1438.784449
MG Hartree energy from (\int eps (grad phi)^2 dr):     1438.134842
MG Discrepancy due to finite box and discretization:     -0.649607 (  -0.04515%)
MG Correction to account for finite box:                  0.466605
MG Remaining discrepancy, due to discretization:         -0.183002 (  -0.01272%)
     Trial step:       0.782219697850
             Q1:  -11604.099474119372
 Quadratic coef:       0.116680386245
 Linear coef   :      -0.191159706682
           Qmin:  -11604.103289949120
Quadratic minimum step length (  0.640762740052) accepted
    Initial Ne1:    7234.00033773
      Final Ne1:    7234.00000000

=================== Penalty functional idempotency correction ==================
 RMS occupancy error at iteration   1:  0.002774 (step -0.3722 Ne1=   7234.0000)
 RMS occupancy error at iteration   2:  0.000122 (step -0.4964 Ne1=   7234.0000)
 RMS occupancy error at iteration   3:  0.000001 (step -0.5000 Ne1=   7234.0000)
            Final RMS occupancy error   :  0.000000 (Ne1=   7234.0000)
               Final occupancy bounds   : [  0.0000,  1.0000]
================================================================================

    9        -1.160402499480E+04     7.5881E-05     6.8685E-05    -1.0465E-01
MG BCs: +ve charge blocks (gridpoints):     30791 (   17158222).
MG BCs: -ve charge blocks (gridpoints):      8303 (    1096330).
MG BCs:     Elided blocks (gridpoints):    179244 (  187965273).
MG BCs: Computational effort saved:  99.9810%.
MG BCs: Charge after coarse-graining:           -9.0009586.
MG DL_MG: Calling solver with defect correction order = 8
MG DL_MG: Solver finished
MG Hartree energy from (\int phi*rho dr):              1439.059455
MG Hartree energy from (\int eps (grad phi)^2 dr):     1438.409807
MG Discrepancy due to finite box and discretization:     -0.649647 (  -0.04514%)
MG Correction to account for finite box:                  0.466629
MG Remaining discrepancy, due to discretization:         -0.183018 (  -0.01272%)
      ideal mu1:      -0.767717068612
   10        -1.160410778367E+04     6.0292E-05     5.4575E-05    -8.2789E-02
Finished density kernel iterations (  10)

Writing density kernel to file "complex_35821.vacuum_dkn" ... done


>>> Density kernel optimised for the current NGWF basis:
     ~~~~~~~~~~~~~~~~~~~~~~~~~~~~~~~~~~~~~~~~~~~~~~~~~~~~~~~~~~~
     Total energy                =  -1.16041077836719E+04  Eh
     Estimated bandgap           =  -5.2936E-01  Eh
     RMS occupancy error         =   2.3957E-10
     [H,K] commutator            =   5.4575E-05
     Occupancy bounds            = [  0.000:  1.000]
     ~~~~~~~~~~~~~~~~~~~~~~~~~~~~~~~~~~~~~~~~~~~~~~~~~~~~~~~~~~~




################################################################################
########################### NGWF CG iteration  001 #############################
################################################################################
****** Reciprocal space K.E. preconditioning with k_zero =  3.5000 a0^-1 *******

>>> Checking for convergence of NGWFs:   NOT CONVERGED
  ========================================================================
         NGWF RMS gradient =  1.5985E-03 >  2.0000E-06  | above tolerance
  ========================================================================

>>> Improving NGWFs using line search:
============ Calculation of NGWF S^-1 using Hotelling algorithm ================ 
         Iteration  |  Frobenius norm and Maximum abs value    (of I-S*S_n^-1)   
               1       0.19793036E+00     0.56738688E-02
               2       0.90580544E-03     0.44900230E-04
               3       0.32693183E-07     0.28389372E-08
               4       0.13114489E-12     0.55511151E-14
================================================================================
MG BCs: +ve charge blocks (gridpoints):     30385 (   17104381).
MG BCs: -ve charge blocks (gridpoints):      8323 (    1096180).
MG BCs:     Elided blocks (gridpoints):    179651 (  188019264).
MG BCs: Computational effort saved:  99.9812%.
MG BCs: Charge after coarse-graining:           -9.0009589.
MG DL_MG: Calling solver with defect correction order = 8
MG DL_MG: Solver finished
MG Hartree energy from (\int phi*rho dr):              1407.055497
MG Hartree energy from (\int eps (grad phi)^2 dr):     1406.406607
MG Discrepancy due to finite box and discretization:     -0.648890 (  -0.04612%)
MG Correction to account for finite box:                  0.466514
MG Remaining discrepancy, due to discretization:         -0.182376 (  -0.01296%)
============ Calculation of NGWF S^-1 using Hotelling algorithm ================ 
         Iteration  |  Frobenius norm and Maximum abs value    (of I-S*S_n^-1)   
               1       0.18409426E+01     0.45223674E-01
               2       0.70317802E-01     0.26174498E-02
               3       0.13896317E-03     0.91465801E-05
               4       0.98173703E-09     0.11375556E-09
               5       0.11202778E-12     0.51070259E-14
================================================================================
------------------------------- NGWF line search -------------------------------
RMS gradient                =       0.00159852081697
Trial step length           =               0.122474
Gradient along search dir.  =       -278.31235778821
Functional at step 0        =  -11604.10778367193416
Functional at step 1        =  -11635.57440187071916
Functional predicted        =  -11714.99216334491393
Selected quadratic step     =               0.796834
--------------------------- NGWF line search finished --------------------------
                                               
Writing NGWFs to file "complex_35821.vacuum_tightbox_ngwfs"....  done

>>> Optimising kernel for current NGWFs:
   Initial electron number for spin 1:    7268.32258214
     Final electron number for spin 1:    7234.00000000

=================== Penalty functional idempotency correction ==================
 RMS occupancy error at iteration   1:  0.004240 (step -0.4861 Ne1=   7234.0000)
 RMS occupancy error at iteration   2:  0.000070 (step -0.5003 Ne1=   7234.0000)
            Final RMS occupancy error   :  0.000000 (Ne1=   7234.0000)
               Final occupancy bounds   : [  0.0000,  1.0000]
================================================================================

................................................................................
<<<<<<<<<<<<<< LNV (Original version) density kernel optimisation >>>>>>>>>>>>>>
~~~~~~~~~~~~~~~~~~~~~~~~~~~~~~~~~~~~~~~~~~~~~~~~~~~~~~~~~~~~~~~~~~~~~~~~~~~~~~~~
   iter  |      energy (Eh)       | rms gradient |  commutator  |   dE (Eh)
MG BCs: +ve charge blocks (gridpoints):     24517 (   16802435).
MG BCs: -ve charge blocks (gridpoints):      8455 (    1079971).
MG BCs:     Elided blocks (gridpoints):    185528 (  188337419).
MG BCs: Computational effort saved:  99.9840%.
MG BCs: Charge after coarse-graining:           -9.0006627.
MG DL_MG: Calling solver with defect correction order = 8
MG DL_MG: Solver finished
MG Hartree energy from (\int phi*rho dr):              1252.917767
MG Hartree energy from (\int eps (grad phi)^2 dr):     1252.268291
MG Discrepancy due to finite box and discretization:     -0.649476 (  -0.05184%)
MG Correction to account for finite box:                  0.465972
MG Remaining discrepancy, due to discretization:         -0.183504 (  -0.01465%)
      ideal mu1:      -0.708619257240
             Q0:  -11714.197164870799
             G0:      -9.924744305507
   RMS gradient:       0.000481117321
MG BCs: +ve charge blocks (gridpoints):     24578 (   16815348).
MG BCs: -ve charge blocks (gridpoints):      8443 (    1076508).
MG BCs:     Elided blocks (gridpoints):    185467 (  188327969).
MG BCs: Computational effort saved:  99.9840%.
MG BCs: Charge after coarse-graining:           -9.0006592.
MG DL_MG: Calling solver with defect correction order = 8
MG DL_MG: Solver finished
MG Hartree energy from (\int phi*rho dr):              1268.306273
MG Hartree energy from (\int eps (grad phi)^2 dr):     1267.651841
MG Discrepancy due to finite box and discretization:     -0.654432 (  -0.05160%)
MG Correction to account for finite box:                  0.464945
MG Remaining discrepancy, due to discretization:         -0.189487 (  -0.01494%)
     Trial step:       0.707966974454
             Q1:  -11713.721539416001
 Quadratic coef:       7.502016652992
 Linear coef   :      -7.026391198194
           Qmin:  -11715.842394932051
Quadratic minimum step length (  0.331541047428) accepted
    Initial Ne1:    7233.99957708
      Final Ne1:    7234.00000000

=================== Penalty functional idempotency correction ==================
 RMS occupancy error at iteration   1:  0.000359 (step -0.4986 Ne1=   7234.0000)
 RMS occupancy error at iteration   2:  0.000000 (step -0.5000 Ne1=   7234.0000)
            Final RMS occupancy error   :  0.000000 (Ne1=   7234.0000)
               Final occupancy bounds   : [  0.0000,  1.0000]
================================================================================

    1        -1.171419716487E+04     4.8112E-04     4.3549E-04
MG BCs: +ve charge blocks (gridpoints):     24542 (   16808736).
MG BCs: -ve charge blocks (gridpoints):      8451 (    1078298).
MG BCs:     Elided blocks (gridpoints):    185503 (  188332791).
MG BCs: Computational effort saved:  99.9840%.
MG BCs: Charge after coarse-graining:           -9.0006609.
MG DL_MG: Calling solver with defect correction order = 8
MG DL_MG: Solver finished
MG Hartree energy from (\int phi*rho dr):              1259.207559
MG Hartree energy from (\int eps (grad phi)^2 dr):     1258.555863
MG Discrepancy due to finite box and discretization:     -0.651696 (  -0.05175%)
MG Correction to account for finite box:                  0.465465
MG Remaining discrepancy, due to discretization:         -0.186231 (  -0.01479%)
      ideal mu1:      -0.714988352559
             Q0:  -11715.817839553230
             G0:      -1.032674487979
   RMS gradient:       0.000155803457
MG BCs: +ve charge blocks (gridpoints):     24542 (   16807887).
MG BCs: -ve charge blocks (gridpoints):      8453 (    1079210).
MG BCs:     Elided blocks (gridpoints):    185503 (  188332728).
MG BCs: Computational effort saved:  99.9840%.
MG BCs: Charge after coarse-graining:           -9.0006610.
MG DL_MG: Calling solver with defect correction order = 8
MG DL_MG: Solver finished
MG Hartree energy from (\int phi*rho dr):              1260.225750
MG Hartree energy from (\int eps (grad phi)^2 dr):     1259.573849
MG Discrepancy due to finite box and discretization:     -0.651901 (  -0.05173%)
MG Correction to account for finite box:                  0.465249
MG Remaining discrepancy, due to discretization:         -0.186651 (  -0.01481%)
     Trial step:       0.484479217568
             Q1:  -11716.036163274082
 Quadratic coef:       0.281985607086
 Linear coef   :      -0.500309327938
           Qmin:  -11716.039756396973
Quadratic minimum step length (  0.429790502867) accepted
    Initial Ne1:    7233.99994249
      Final Ne1:    7234.00000000

=================== Penalty functional idempotency correction ==================
 RMS occupancy error at iteration   1:  0.000155 (step -0.4992 Ne1=   7234.0000)
 RMS occupancy error at iteration   2:  0.000000 (step -0.5000 Ne1=   7234.0000)
            Final RMS occupancy error   :  0.000000 (Ne1=   7234.0000)
               Final occupancy bounds   : [  0.0000,  1.0000]
================================================================================

    2        -1.171581783955E+04     1.5580E-04     1.4103E-04    -1.6207E+00
MG BCs: +ve charge blocks (gridpoints):     24543 (   16807971).
MG BCs: -ve charge blocks (gridpoints):      8453 (    1079121).
MG BCs:     Elided blocks (gridpoints):    185502 (  188332733).
MG BCs: Computational effort saved:  99.9840%.
MG BCs: Charge after coarse-graining:           -9.0006610.
MG DL_MG: Calling solver with defect correction order = 8
MG DL_MG: Solver finished
MG Hartree energy from (\int phi*rho dr):              1260.110662
MG Hartree energy from (\int eps (grad phi)^2 dr):     1259.458786
MG Discrepancy due to finite box and discretization:     -0.651876 (  -0.05173%)
MG Correction to account for finite box:                  0.465274
MG Remaining discrepancy, due to discretization:         -0.186602 (  -0.01481%)
      ideal mu1:      -0.715876448487
             Q0:  -11716.040236691246
             G0:      -0.172727077710
   RMS gradient:       0.000063401368
MG BCs: +ve charge blocks (gridpoints):     24542 (   16807310).
MG BCs: -ve charge blocks (gridpoints):      8454 (    1079524).
MG BCs:     Elided blocks (gridpoints):    185503 (  188332991).
MG BCs: Computational effort saved:  99.9840%.
MG BCs: Charge after coarse-graining:           -9.0006610.
MG DL_MG: Calling solver with defect correction order = 8
MG DL_MG: Solver finished
MG Hartree energy from (\int phi*rho dr):              1259.562746
MG Hartree energy from (\int eps (grad phi)^2 dr):     1258.911075
MG Discrepancy due to finite box and discretization:     -0.651670 (  -0.05174%)
MG Correction to account for finite box:                  0.465082
MG Remaining discrepancy, due to discretization:         -0.186588 (  -0.01481%)
     Trial step:       0.456316300988
             Q1:  -11716.095123523730
 Quadratic coef:       0.023931348696
 Linear coef   :      -0.078818181181
           Qmin:  -11716.105133845222
Quadratic minimum step length (  0.751441578649) accepted
    Initial Ne1:    7233.99998335
      Final Ne1:    7234.00000000

=================== Penalty functional idempotency correction ==================
 RMS occupancy error at iteration   1:  0.000171 (step -0.4929 Ne1=   7234.0000)
 RMS occupancy error at iteration   2:  0.000001 (step -0.5000 Ne1=   7234.0000)
            Final RMS occupancy error   :  0.000000 (Ne1=   7234.0000)
               Final occupancy bounds   : [  0.0000,  1.0000]
================================================================================

    3        -1.171604023669E+04     6.3401E-05     5.7389E-05    -2.2240E-01
MG BCs: +ve charge blocks (gridpoints):     24540 (   16806826).
MG BCs: -ve charge blocks (gridpoints):      8454 (    1079832).
MG BCs:     Elided blocks (gridpoints):    185505 (  188333167).
MG BCs: Computational effort saved:  99.9840%.
MG BCs: Charge after coarse-graining:           -9.0006610.
MG DL_MG: Calling solver with defect correction order = 8
MG DL_MG: Solver finished
MG Hartree energy from (\int phi*rho dr):              1259.208375
MG Hartree energy from (\int eps (grad phi)^2 dr):     1258.556842
MG Discrepancy due to finite box and discretization:     -0.651533 (  -0.05174%)
MG Correction to account for finite box:                  0.464954
MG Remaining discrepancy, due to discretization:         -0.186579 (  -0.01482%)
      ideal mu1:      -0.715013205660
             Q0:  -11716.105170387658
             G0:      -0.075663338843
   RMS gradient:       0.000041977933
MG BCs: +ve charge blocks (gridpoints):     24542 (   16806759).
MG BCs: -ve charge blocks (gridpoints):      8454 (    1079759).
MG BCs:     Elided blocks (gridpoints):    185503 (  188333307).
MG BCs: Computational effort saved:  99.9840%.
MG BCs: Charge after coarse-graining:           -9.0006611.
MG DL_MG: Calling solver with defect correction order = 8
MG DL_MG: Solver finished
MG Hartree energy from (\int phi*rho dr):              1259.237084
MG Hartree energy from (\int eps (grad phi)^2 dr):     1258.585957
MG Discrepancy due to finite box and discretization:     -0.651127 (  -0.05171%)
MG Correction to account for finite box:                  0.464685
MG Remaining discrepancy, due to discretization:         -0.186442 (  -0.01481%)
     Trial step:       0.585572405068
             Q1:  -11716.134195268853
 Quadratic coef:       0.015281482107
 Linear coef   :      -0.044306363302
           Qmin:  -11716.137285299930
Quadratic minimum step length (  0.848889640977) accepted
    Initial Ne1:    7233.99999153
      Final Ne1:    7234.00000000

=================== Penalty functional idempotency correction ==================
 RMS occupancy error at iteration   1:  0.000394 (step -0.4780 Ne1=   7234.0000)
 RMS occupancy error at iteration   2:  0.000003 (step -0.5000 Ne1=   7234.0000)
            Final RMS occupancy error   :  0.000000 (Ne1=   7234.0000)
               Final occupancy bounds   : [  0.0000,  1.0000]
================================================================================

    4        -1.171610517039E+04     4.1978E-05     3.7997E-05    -6.4934E-02
MG BCs: +ve charge blocks (gridpoints):     24542 (   16806716).
MG BCs: -ve charge blocks (gridpoints):      8454 (    1079772).
MG BCs:     Elided blocks (gridpoints):    185503 (  188333337).
MG BCs: Computational effort saved:  99.9840%.
MG BCs: Charge after coarse-graining:           -9.0006611.
MG DL_MG: Calling solver with defect correction order = 8
MG DL_MG: Solver finished
MG Hartree energy from (\int phi*rho dr):              1259.252016
MG Hartree energy from (\int eps (grad phi)^2 dr):     1258.601077
MG Discrepancy due to finite box and discretization:     -0.650939 (  -0.05169%)
MG Correction to account for finite box:                  0.464559
MG Remaining discrepancy, due to discretization:         -0.186381 (  -0.01480%)
      ideal mu1:      -0.715574191761
             Q0:  -11716.137038238463
             G0:      -0.090426448025
   RMS gradient:       0.000046071023
MG BCs: +ve charge blocks (gridpoints):     24541 (   16808504).
MG BCs: -ve charge blocks (gridpoints):      8449 (    1079139).
MG BCs:     Elided blocks (gridpoints):    185504 (  188332182).
MG BCs: Computational effort saved:  99.9840%.
MG BCs: Charge after coarse-graining:           -9.0006607.
MG DL_MG: Calling solver with defect correction order = 8
MG DL_MG: Solver finished
MG Hartree energy from (\int phi*rho dr):              1260.298580
MG Hartree energy from (\int eps (grad phi)^2 dr):     1259.648393
MG Discrepancy due to finite box and discretization:     -0.650187 (  -0.05159%)
MG Correction to account for finite box:                  0.463914
MG Remaining discrepancy, due to discretization:         -0.186273 (  -0.01478%)
     Trial step:       0.705043508377
             Q1:  -11716.175446448731
 Quadratic coef:       0.025346369897
 Linear coef   :      -0.063754580166
           Qmin:  -11716.177129250595
Quadratic minimum step length (  0.886709873193) accepted
    Initial Ne1:    7233.99998801
      Final Ne1:    7234.00000000

=================== Penalty functional idempotency correction ==================
 RMS occupancy error at iteration   1:  0.001705 (step -0.4151 Ne1=   7234.0000)
 RMS occupancy error at iteration   2:  0.000032 (step -0.4998 Ne1=   7234.0000)
            Final RMS occupancy error   :  0.000000 (Ne1=   7234.0000)
               Final occupancy bounds   : [ -0.0000,  1.0000]
================================================================================

    5        -1.171613703824E+04     4.6071E-05     4.1702E-05    -3.1868E-02
MG BCs: +ve charge blocks (gridpoints):     24541 (   16808922).
MG BCs: -ve charge blocks (gridpoints):      8449 (    1079004).
MG BCs:     Elided blocks (gridpoints):    185504 (  188331899).
MG BCs: Computational effort saved:  99.9840%.
MG BCs: Charge after coarse-graining:           -9.0006606.
MG DL_MG: Calling solver with defect correction order = 8
MG DL_MG: Solver finished
MG Hartree energy from (\int phi*rho dr):              1260.571782
MG Hartree energy from (\int eps (grad phi)^2 dr):     1259.921759
MG Discrepancy due to finite box and discretization:     -0.650022 (  -0.05157%)
MG Correction to account for finite box:                  0.463777
MG Remaining discrepancy, due to discretization:         -0.186246 (  -0.01477%)
      ideal mu1:      -0.717619515990
             Q0:  -11716.176539001637
             G0:      -0.093347330271
   RMS gradient:       0.000046265830
MG BCs: +ve charge blocks (gridpoints):     24539 (   16808865).
MG BCs: -ve charge blocks (gridpoints):      8450 (    1079225).
MG BCs:     Elided blocks (gridpoints):    185506 (  188331735).
MG BCs: Computational effort saved:  99.9840%.
MG BCs: Charge after coarse-graining:           -9.0006606.
MG DL_MG: Calling solver with defect correction order = 8
MG DL_MG: Solver finished
MG Hartree energy from (\int phi*rho dr):              1260.297981
MG Hartree energy from (\int eps (grad phi)^2 dr):     1259.648690
MG Discrepancy due to finite box and discretization:     -0.649292 (  -0.05152%)
MG Correction to account for finite box:                  0.463019
MG Remaining discrepancy, due to discretization:         -0.186272 (  -0.01478%)
     Trial step:       0.790676318039
             Q1:  -11716.215096121072
 Quadratic coef:       0.035250403964
 Linear coef   :      -0.073807523398
           Qmin:  -11716.215173668887
Quadratic minimum step length (  0.827761589677) accepted
    Initial Ne1:    7234.00010133
      Final Ne1:    7234.00000000

=================== Penalty functional idempotency correction ==================
 RMS occupancy error at iteration   1:  0.003460 (step -0.3537 Ne1=   7234.0000)
 RMS occupancy error at iteration   2:  0.000117 (step -0.4976 Ne1=   7234.0000)
 RMS occupancy error at iteration   3:  0.000001 (step -0.5000 Ne1=   7234.0000)
            Final RMS occupancy error   :  0.000000 (Ne1=   7234.0000)
               Final occupancy bounds   : [  0.0000,  1.0000]
================================================================================

    6        -1.171617653900E+04     4.6266E-05     4.1878E-05    -3.9501E-02
MG BCs: +ve charge blocks (gridpoints):     24539 (   16808871).
MG BCs: -ve charge blocks (gridpoints):      8450 (    1079234).
[...]
MG DL_MG: Calling solver with defect correction order = 8
MG DL_MG: Solver finished
MG Hartree energy from (\int phi*rho dr):              1216.856074
MG Hartree energy from (\int eps (grad phi)^2 dr):     1216.664508
MG Discrepancy due to finite box and discretization:     -0.191565 (  -0.01574%)
MG Correction to account for finite box:                  0.006290
MG Remaining discrepancy, due to discretization:         -0.185276 (  -0.01523%)
             Q2:  -11751.008219784359
  Cubic LS coeff:       0.914110150989
Predicted energy:  -11751.008219784491
Cubic minimum step length accepted
    Initial Ne1:    7234.00000000
      Final Ne1:    7234.00000000

=================== Penalty functional idempotency correction ==================
 RMS occupancy error at iteration   1:  0.000000 (step -0.5000 Ne1=   7234.0000)
            Final RMS occupancy error   :  0.000000 (Ne1=   7234.0000)
               Final occupancy bounds   : [  0.0000,  1.0000]
================================================================================

    7        -1.175100821978E+04     8.1224E-09     7.3521E-09    -1.2806E-09

Reusing previously generated solute cavity.
MG BCs: +ve charge blocks (gridpoints):     29066 (   18966124).
MG BCs: -ve charge blocks (gridpoints):      8438 (    1048630).
MG BCs:     Elided blocks (gridpoints):    180979 (  186205071).
MG BCs: Computational effort saved:  99.9818%.
MG BCs: Charge after coarse-graining:           -9.0009355.
MG DL_MG: Calling solver with defect correction order = 8
MG DL_MG: Solver finished
MG Hartree energy from (\int phi*rho dr):              1216.856068
MG Hartree energy from (\int eps (grad phi)^2 dr):     1216.664502
MG Discrepancy due to finite box and discretization:     -0.191565 (  -0.01574%)
MG Correction to account for finite box:                  0.006290
MG Remaining discrepancy, due to discretization:         -0.185276 (  -0.01523%)
      ideal mu1:      -0.481269297261
             Q0:  -11751.008219784708
             G0:      -0.000000003021
   RMS gradient:       0.000000007306

Reusing previously generated solute cavity.
MG BCs: +ve charge blocks (gridpoints):     29066 (   18966124).
MG BCs: -ve charge blocks (gridpoints):      8438 (    1048631).
MG BCs:     Elided blocks (gridpoints):    180979 (  186205070).
MG BCs: Computational effort saved:  99.9818%.
MG BCs: Charge after coarse-graining:           -9.0009355.
MG DL_MG: Calling solver with defect correction order = 8
MG DL_MG: Solver finished
MG Hartree energy from (\int phi*rho dr):              1216.856047
MG Hartree energy from (\int eps (grad phi)^2 dr):     1216.664481
MG Discrepancy due to finite box and discretization:     -0.191565 (  -0.01574%)
MG Correction to account for finite box:                  0.006290
MG Remaining discrepancy, due to discretization:         -0.185276 (  -0.01523%)
     Trial step:       0.598912245977
             Q1:  -11751.008219785290
 Quadratic coef:       0.000000001228
 Linear coef   :      -0.000000001809
           Qmin:  -11751.008219785374
Quadratic minimum step length (  0.441284404355) accepted
    Initial Ne1:    7234.00000000
      Final Ne1:    7234.00000000

=================== Penalty functional idempotency correction ==================
 RMS occupancy error at iteration   1:  0.000000 (step -0.5000 Ne1=   7234.0000)
            Final RMS occupancy error   :  0.000000 (Ne1=   7234.0000)
               Final occupancy bounds   : [ -0.0000,  1.0000]
================================================================================

    8        -1.175100821978E+04     7.3060E-09     6.6132E-09    -3.1432E-09

Reusing previously generated solute cavity.
MG BCs: +ve charge blocks (gridpoints):     29066 (   18966124).
MG BCs: -ve charge blocks (gridpoints):      8438 (    1048630).
MG BCs:     Elided blocks (gridpoints):    180979 (  186205071).
MG BCs: Computational effort saved:  99.9818%.
MG BCs: Charge after coarse-graining:           -9.0009355.
MG DL_MG: Calling solver with defect correction order = 8
MG DL_MG: Solver finished
MG Hartree energy from (\int phi*rho dr):              1216.856052
MG Hartree energy from (\int eps (grad phi)^2 dr):     1216.664487
MG Discrepancy due to finite box and discretization:     -0.191565 (  -0.01574%)
MG Correction to account for finite box:                  0.006290
MG Remaining discrepancy, due to discretization:         -0.185276 (  -0.01523%)
      ideal mu1:      -0.481269279422
             Q0:  -11751.008219785290
             G0:      -0.000000001610
   RMS gradient:       0.000000004570

Reusing previously generated solute cavity.
MG BCs: +ve charge blocks (gridpoints):     29066 (   18966123).
MG BCs: -ve charge blocks (gridpoints):      8438 (    1048631).
MG BCs:     Elided blocks (gridpoints):    180979 (  186205071).
MG BCs: Computational effort saved:  99.9818%.
MG BCs: Charge after coarse-graining:           -9.0009355.
MG DL_MG: Calling solver with defect correction order = 8
MG DL_MG: Solver finished
MG Hartree energy from (\int phi*rho dr):              1216.856058
MG Hartree energy from (\int eps (grad phi)^2 dr):     1216.664493
MG Discrepancy due to finite box and discretization:     -0.191565 (  -0.01574%)
MG Correction to account for finite box:                  0.006290
MG Remaining discrepancy, due to discretization:         -0.185276 (  -0.01523%)
     Trial step:       0.514092047912
             Q1:  -11751.008219785290
 Quadratic coef:       0.000000000828
 Linear coef   :      -0.000000000828
           Qmin:  -11751.008219785497
Quadratic minimum step length (  0.257036020795) accepted
    Initial Ne1:    7234.00000000
      Final Ne1:    7234.00000000

=================== Penalty functional idempotency correction ==================
 RMS occupancy error at iteration   1:  0.000000 (step -0.5000 Ne1=   7234.0000)
            Final RMS occupancy error   :  0.000000 (Ne1=   7234.0000)
               Final occupancy bounds   : [ -0.0000,  1.0000]
================================================================================

    9        -1.175100821979E+04     4.5698E-09     4.1365E-09    -5.8208E-10

Reusing previously generated solute cavity.
MG BCs: +ve charge blocks (gridpoints):     29066 (   18966123).
MG BCs: -ve charge blocks (gridpoints):      8438 (    1048630).
MG BCs:     Elided blocks (gridpoints):    180979 (  186205072).
MG BCs: Computational effort saved:  99.9818%.
MG BCs: Charge after coarse-graining:           -9.0009355.
MG DL_MG: Calling solver with defect correction order = 8
MG DL_MG: Solver finished
MG Hartree energy from (\int phi*rho dr):              1216.856055
MG Hartree energy from (\int eps (grad phi)^2 dr):     1216.664490
MG Discrepancy due to finite box and discretization:     -0.191565 (  -0.01574%)
MG Correction to account for finite box:                  0.006290
MG Remaining discrepancy, due to discretization:         -0.185276 (  -0.01523%)
      ideal mu1:      -0.481269279551
   10        -1.175100821979E+04     3.8547E-09     3.4891E-09     0.0000E+00
Finished density kernel iterations (  10)

Writing density kernel to file "complex_35821.dkn" ... done


>>> Density kernel optimised for the current NGWF basis:
     ~~~~~~~~~~~~~~~~~~~~~~~~~~~~~~~~~~~~~~~~~~~~~~~~~~~~~~~~~~~
     Total energy                =  -1.17510082197853E+04  Eh
     Estimated bandgap           =   8.3926E-02  Eh
     RMS occupancy error         =   9.8030E-16
     [H,K] commutator            =   3.4891E-09
     Occupancy bounds            = [ -0.000:  1.000]
     ~~~~~~~~~~~~~~~~~~~~~~~~~~~~~~~~~~~~~~~~~~~~~~~~~~~~~~~~~~~




################################################################################
########################### NGWF CG iteration  004 #############################
################################################################################
****** Reciprocal space K.E. preconditioning with k_zero =  3.5000 a0^-1 *******

>>> Checking for convergence of NGWFs: 
           ........................................................
           |         *** NGWF optimisation converged ***          |
           | RMS NGWF gradient =    0.00000193299630              |
           | Criteria satisfied:                                  |
           | -> RMS NGWF gradient lower than set threshold.       |
           ========================================================

Reusing previously generated solute cavity.
MG BCs: +ve charge blocks (gridpoints):     29066 (   18966123).
MG BCs: -ve charge blocks (gridpoints):      8438 (    1048630).
MG BCs:     Elided blocks (gridpoints):    180979 (  186205072).
MG BCs: Computational effort saved:  99.9818%.
MG BCs: Charge after coarse-graining:           -9.0009355.
MG DL_MG: Calling solver with defect correction order = 8
MG DL_MG: Solver finished
MG Hartree energy from (\int phi*rho dr):              1216.856055
MG Hartree energy from (\int eps (grad phi)^2 dr):     1216.664490
MG Discrepancy due to finite box and discretization:     -0.191565 (  -0.01574%)
MG Correction to account for finite box:                  0.006290
MG Remaining discrepancy, due to discretization:         -0.185276 (  -0.01523%)

================================================================================
           ---------------- ENERGY COMPONENTS (Eh) ----------------
           | Kinetic                    :     8578.02661909706512 |
           | Pseudo. (local,OBC,corr'd) :    -5082.30736084344517 |
           | Pseudopotential (non-local):     1412.56470942764963 |
           | Hartree (molecular)        :     1216.85605516410078 |
           | Exchange-correlation       :    -3376.83136364548091 |
           | Ion-ion (open BC)          :   838529.42664793331642 |
           | Dispersion Correction      :       -3.26757397805259 |
           | Smeared ion non-self corr. :  -838481.19988984731026 |
           | Smeared ion self corr.     :   -14544.93686558573609 |
           | Solvent cavitation energy  :        2.35098280731089 |
           | Solute-solvent dis-rep en. :       -1.69018031474598 |
           | Total                      :   -11751.00821978536442 |
           --------------------------------------------------------
           ------ LOCAL ENERGY COMPONENTS FROM MATRIX TRACES ------
           | Pseudopotential (local)    :    -5082.30736084345153 |
           | Hartree                    :    -2001.76795750232418 |
           --------------------------------------------------------
           Integrated density           :     7233.99999999810098
           Integrated density tr(KS)    :     7233.99999999999909
================================================================================


                        <<<<< CALCULATION SUMMARY >>>>>                         
|ITER|    RMS GRADIENT   |     TOTAL ENERGY    |   step   |     Epredicted              
   0     0.00004025665324 -11750.94509539485443   0.619285 -11750.99975067734886        
   1     0.00000977695320 -11751.00769268034492   0.084385 -11751.00813195453520        
   2     0.00000432340055 -11751.00820172333624   0.015515 -11751.00821751603144        
   3     0.00000193299630 -11751.00821978528984  <-- CG                                 

=================== Finished the calculation in solvent ========================
= Adjusting the following parameters: 
= read_denskern: F
= read_tightbox_ngwfs: F
= maxit_pen: 0 (restored to user-specified value)
= restart read filename prefix: ""
= restart write filename prefix: ""
================================================================================

================================================================================
IS: Calculation in solvent completed (NGWFs converged).      

Individual components of total energy in solvent:     hartree           kcal/mol
- Usual non-electrostatic DFT terms:    -12968.52507744195464    -8137872.174168
- Electrostatic fixed charge energy:      1216.85605516410078      763588.686620
- Apolar cavitation energy:                  2.35098280731089        1475.263953
- Apolar dispersion-repulsion energy:       -1.69018031474598       -1060.604137
 -------------------------------------------------------------------------------
- Total energy in solvent:              -11751.00821978528984    -7373868.827732

Components of total energy in solvent:                hartree           kcal/mol
- Usual non-electrostatic DFT terms:    -12968.52507744195464    -8137872.174168
- Electrostatic energy:                   1216.85605516410078      763588.686620
- Apolar energy terms:                       0.66080249256491         414.659816
 -------------------------------------------------------------------------------
- Total energy in solvent:              -11751.00821978528984    -7373868.827732

Calculation of free energy of solvation:              hartree           kcal/mol
- Total energy in solvent:         (+)  -11751.00821978528984    -7373868.827732
- Total energy in vacuum:          (-)  -11747.16122739482671    -7371454.803613
 -------------------------------------------------------------------------------
- Total free energy of solvation:           -3.84699239046313       -2414.024119

Components of polar term in f.e. of solvation:        hartree           kcal/mol
- Electrostatic:                            -4.72099343216109       -2962.468041
- Change in nonelectrostatic DFT terms:      0.21319854913418         133.784107
 -------------------------------------------------------------------------------
- Polar term in f.e. of solvation:          -4.50779488302692       -2828.683935

Components of free energy of solvation:               hartree           kcal/mol
- Polar term in f.e. of solvation: (+)      -4.50779488302692       -2828.683935
- Apolar (cavitation, dis., rep.): (+)       0.66080249256491         414.659816
 -------------------------------------------------------------------------------
- Total free energy of solvation:           -3.84699239046201       -2414.024119
================================================================================


------------------------------ TIMING INFORMATION ------------------------------
AVERAGE TIME:   28119.169s on     40 node(s)                                    
TOTAL TIME:     28119.171s on     40 node(s)                                    
================= AVERAGE TIMINGS FROM ALL NODES (CUMULATIVE) ==================
|| TAG                                    #calls    cpu time   %total  Gflops ||
|| work_imbalance                       :     1        0.00s   0.000%  ------ ||
|| parallel_prepare_fd_halos_request    :  1953        0.02s   0.000%  ------ ||
|| sparse_set_to_garbage                :   182        0.04s   0.000%  ------ ||
|| parallel_prepare_fd_halos_satisfy    :  1953        0.06s   0.000%  ------ ||
|| ngwfs_initialise_from_radial         :     1        0.17s   0.001%  ------ ||
|| parallel_prepare_fd_halos_alloc      :  1953        0.21s   0.001%  ------ ||
|| basis_extract_function_from_box      :  5402        0.21s   0.001%  ------ ||
|| pseudopotentials_nonlocal_mat        :    31        1.05s   0.004%  ------ ||
|| restart_ngwfs_tightbox_input         :     1        1.27s   0.005%  ------ ||
|| parallel_prepare_fd_halos_comms_imbal:  1953        3.64s   0.013%  ------ ||
|| density_init_guess_real              :     1        4.44s   0.016%  ------ ||
|| openbc_locps_radial                  :     1        5.51s   0.020%  ------ ||
|| restart_kernel_read                  :     1        9.86s   0.035%  ------ ||
|| parallel_prepare_fd_halos_clear      :  1953       14.56s   0.052%  ------ ||
|| sparse_init                          :     2       22.93s   0.082%  ------ ||
|| projectors_func_ovlp_box             :    31       24.37s   0.087%  ------ ||
|| parallel_prepare_fd_halos_comms_wait :  1953       25.31s   0.090%  ------ ||
|| function_ops_brappd_ketppd           :    31       26.56s   0.094%  ------ ||
|| projectors_init_fftbox_recip         :   207       28.11s   0.100%  ------ ||
|| parallel_prepare_fd_halos            :  1953       43.80s   0.156%  ------ ||
|| palser_mano_kernel_optimise          :     1       46.81s   0.166%  ------ ||
|| fourier_apply_box_pair               :  7780       54.24s   0.193% 553.658 ||
|| basis_copy_function_to_box           : 88070       55.46s   0.197%  ------ ||
|| pseudo_make_structure_factor         :     2       63.21s   0.225%  ------ ||
|| ngwf_gradient_coeffs                 :    16       65.48s   0.233%  ------ ||
|| sparse_embed_hotelling_invert_embed  :    31      103.80s   0.369%  ------ ||
|| restart_kernel_write                 :    17      117.39s   0.417%  ------ ||
|| finite_difference_derivative         :  1953      123.28s   0.438%  ------ ||
|| integrals_kinetic                    :    31      174.21s   0.620%  ------ ||
|| openbc_locps_on_grid                 :     2      208.78s   0.742%  ------ ||
|| projectors_gradient_batch            :   176      213.32s   0.759%  ------ ||
|| fourier_apply_cell_backward          :  1303      218.74s   0.778%  87.280 ||
|| fourier_apply_cell_forward           :  1301      234.51s   0.834%  81.288 ||
|| basis_dot_function_with_box          : 13.45M     272.11s   0.968%  ------ ||
|| sparse_trace                         :  5576      280.50s   0.998%  ------ ||
|| kernel_purify                        :   496      362.10s   1.288%  ------ ||
|| restart_ngwfs_tightbox_output        :    14      385.11s   1.370%  ------ ||
|| hamiltonian_energy_components        :     4      432.44s   1.538%  ------ ||
|| xc_energy_potential                  :   325      533.66s   1.898%  ------ ||
|| basis_add_function_to_box            : 28.02M     558.19s   1.985%  ------ ||
|| lnv_gradient_norm                    :   160      593.00s   2.109%  ------ ||
|| kernel_fix                           :   160      725.96s   2.582%  ------ ||
|| ngwf_gradient_build_batch            :   176      767.12s   2.728%  ------ ||
|| cell_grid_deposit_box_real           : 55154      889.22s   3.162%  ------ ||
|| integrals_locpot_mat_els_batch       :  1859      915.56s   3.256%  ------ ||
|| cell_grid_extract_box_real           : 52115     1000.28s   3.557%  ------ ||
|| ngwf_gradient_batch                  :   176     1070.68s   3.808%  ------ ||
|| ngwf_gradient_lnv                    :    16     1238.72s   4.405%  ------ ||
|| density_batch_row_sums               :  3564     1313.24s   4.670%  ------ ||
|| density_fftbox_deposit_to_cell       : 53136     1527.77s   5.433%  ------ ||
|| sparse_product                       :  6832     2296.25s   8.166%  ------ ||
|| multigrid_prepare_bound_cond         :   325     2627.59s   9.344%  ------ ||
|| potential_apply_to_ngwf_batch        :  1859     3248.54s  11.553%  ------ ||
|| density_fftbox_interpolate_multiply  : 53136     3685.56s  13.107%  ------ ||
|| fourier_apply_box                    : 183.4k    3691.59s  13.128% 929.581 ||
|| integrals_locpot_dbl_grid            :   169     4189.83s  14.900%  ------ ||
|| density_batch_interp_deposit         :  3564     5843.25s  20.780%  ------ ||
|| dl_mg_solver_calls                   :   325     7248.92s  25.779%  ------ ||
|| density_on_dbl_grid                  :   324     7560.34s  26.887%  ------ ||
|| multigrid_calculate_hartree          :   325    10046.95s  35.730%  ------ ||
|| hamiltonian_lhxc_calculate           :   320    18157.90s  64.575%  ------ ||
|| lnv_denskernel_optimise_cg           :    16    23853.77s  84.831%  ------ ||
|| ngwf_cg_optimise                     :     2    27226.28s  96.825%  ------ ||
|| total_time                           :     1    28119.17s 100.000%  ------ ||
================================================================================
Overhead of generating timer report: 
- 0 ms averaging over threads,
- 5 ms ensuring consistency across MPI ranks,
- 2 ms printing in order.

Job completed: 03-05-2020 01:41 (+0100)

