 +---------------------------------------------------------------+
 |                                                               |
 |        ####### #     # ####### ####### ####### ######         |
 |        #     # ##    # #          #    #       #     #        |
 |        #     # # #   # #          #    #       #     #        |
 |        #     # #  #  # #####      #    #####   ######         |
 |        #     # #   # # #          #    #       #              |
 |        #     # #    ## #          #    #       #              |
 |        ####### #     # #######    #    ####### #              |
 |                                                               |
 |        Linear-Scaling Ab Initio Total Energy Program          |
 |                                                               |
 |          Release for academic collaborators of ODG            |
 |                                             Version 5.3.2.6.  |
 |                                                               |
 +---------------------------------------------------------------+
 |                                                               |
 |  Authors:                                                     |
 |  Jacek Dziedzic, Peter D. Haynes, Nicholas D. M. Hine,        |
 |  Arash. A. Mostofi, Mike C. Payne and Chris-Kriton Skylaris   |
 |                                                               |
 |  Contributors:                                                |
 |  J. Aarons, L. Andrinopoulos, P. W. Avraam, R. A. Bell,       |
 |  A. Bhandari, G. A. Bramley, R. J. Charlton, S. J. Clark,     |
 |  R. J. Clements, G. C. Constantinescu, F. Corsetti,           |
 |  N. Corsini, O. Dieguez, S. M. M. Dubois, K. K. B. Duff,      |
 |  J. M. Escartin, A. Greco, H. Helal, Q. O. Hill, L. P. Lee,   |
 |  J.-H. Li, E. B. Linscott, G. Moynihan, D. D. O`Regan,        |
 |  O. K. Okan, M. J. S. Phipps, C. J. Pickard,                  |
 |  J. C. A. Prentice, M. I. J. Probert, L. E. Ratcliff,         |
 |  M. Robinson, A. Ruiz Serrano, J. S. Spencer, E. W. Tait,     |
 |  G. Teobaldi, D. Turban, V. Vitale, K. A. Wilkinson,          |
 |  C. Weber, J. C. Womack, N. Yeung and T. J. Zuehlsdorff       |
 |                                                               |
 |                                   Copyright (c) 2004-2019     |
 |                                                               |
 |  Please cite:                                                 |
 |  "Introducing ONETEP: Linear-scaling density functional       |
 |   simulations on parallel computers".                         |
 |   C.-K. Skylaris, P. D. Haynes, A. A. Mostofi, M. C. Payne.   |
 |   J. Chem. Phys. 122 084119 (2005).                           |
 |                                                               |
 |          in all publications arising from your use of ONETEP. |
 |                                                               |
 +---------------------------------------------------------------+
 |                                                               |
 |   ONETEP is based on developments described in the following  |
 |   publications:                                               |
 |                                                               |
 |  "Nonorthogonal generalized Wannier function pseudopotential  |
 |   plane-wave method".                                         |
 |   C.-K. Skylaris, A. A. Mostofi, P. D. Haynes, O. Dieguez,    |
 |   M. C. Payne.                                                |
 |   Phys. Rev. B 66 035119 (2002).                              |
 |                                                               |
 |  "Preconditioned iterative minimization for linear-scaling    |
 |   electronic structure calculations".                         |
 |   A. A. Mostofi, P. D. Haynes, C.-K. Skylaris, M. C. Payne.   |
 |   J. Chem. Phys. 119(17), pp.8842-8848 (2003).                |
 |                                                               |
 |  "Total-energy calculations on a real space grid with         |
 |   localized functions and a plane-wave basis".                |
 |   A. A. Mostofi, C.-K. Skylaris, P. D. Haynes, M. C. Payne.   |
 |   Comput. Phys. Commun. 147, pp.788-802 (2002).               |
 |                                                               |
 |  "Accurate kinetic energy evaluation in electronic structure  |
 |   calculations with localized functions on real space grids"  |
 |   C.-K. Skylaris, A. A. Mostofi, P. D. Haynes, C. J. Pickard, |
 |   M. C. Payne.                                                |
 |   Comput. Phys. Commun. 140, pp.315-322 (2001).               |
 |                                                               |
 |  "Accurate ionic forces and geometry optimization in linear-  |
 |   scaling density-functional theory with local orbitals"      |
 |   N. D. M. Hine, M. Robinson, P. D. Haynes, C.-K. Skylaris,   |
 |   M. C. Payne, and A. A. Mostofi.                             |
 |   Phys. Rev. B 83 195102 (2011).                              |
 |                                                               |
 +---------------------------------------------------------------+

Job started: 30-04-2020 06:21 (+0100)
 
Reading parameters from file "complex_23661.dat" ...... done

If your calculation crashes here, before "Checking processes and threads..."
is displayed, then your stack size is insufficient.
If so, use "ulimit -s unlimited" at runtime.
You can disable this check with "check_stack_size F".

Checking processes and threads...
   Determining the default number of threads...
      No default threads set at compilation time: defaulting to 1.
      OpenMP library call suggests 4 threads.
      Hybrid MPI-OpenMP compilation detected.
      Number of MPI processes > 1.
      OMP_NUM_THREADS environment variable present and
      its value matches the one obtained from the OpenMP library call.
      Using this value as default.
      Default threads: 4
      Default applies to threads_max and threads_num_fftboxes.
      Settings in the input file override this default.
   ... done

   Running with 40 MPI processes.
   There are 10 MPI processes running on the same node as the root process.
   Each MPI process is using: 
               1 threads for simulation cell FFTs.
               1 threads for parallel FFT box operations.
               4 threads for loops over batched FFT box operations.
               4 threads in other parallel regions.
... done

Basic input checks...... done

Reading geometry and species blocks from file "complex_23661.dat" ...
  <species_atomic_set> block not found: NGWF initialisation set to SOLVE
IS: Dielectric excluded regions:
    - NONE.
    
  Number of PPD points along a3 set to 1.  This is 
  the default value, it may have been provided also in the input file.
... done
 Writing xyz coordinates to file "complex_23661.xyz" ... done


--------------------------------------------------------------------------------
---------------------------------- INPUT FILE ----------------------------------
--------------------------------------------------------------------------------

cutoff_energy       : 800 eV                                                    
xc_functional PBE                                                               
task SINGLEPOINT                                                                
write_xyz true                                                                  
output_detail VERBOSE                                                           
ngwf_threshold_orig : 0.000002                                                  
kernel_cutoff       : 1000                                                      
k_zero              : 3.5                                                       
elec_cg_max 0                                                                   
occ_mix 1.0                                                                     
dispersion 1                                                                    
maxit_ngwf_cg 40                                                                
minit_lnv 10                                                                    
maxit_lnv 10                                                                    
write_denskern T                                                                
write_tightbox_ngwfs T                                                          
charge 9                                                                        
is_implicit_solvent T                                                           
is_auto_solvation T                                                             
is_include_apolar T                                                             
is_smeared_ion_rep T                                                            
is_solvent_surf_tension 4.7624E-5 Ha/bohr**2                                    
is_apolar_scaling_factor 0.281075                                               
is_solvation_beta 1.3                                                           
is_density_threshold 0.00035                                                    
is_bulk_permittivity 78.54                                                      
is_dielectric_model fix_initial                                                 
is_smeared_ion_width 0.8                                                        
mg_defco_fd_order 8                                                             
is_bc_coarseness 10                                                             
is_bc_surface_coarseness 1                                                      
fine_grid_scale 2.0                                                             
%block species                                                                  
N   N   7 4 8.0                                                                 
H   H   1 1 8.0                                                                 
C   C   6 4 8.0                                                                 
S   S  16 9 8.0                                                                 
O   O   8 4 8.0                                                                 
F   F   9 9 8.0                                                                 
%endblock species                                                               
%block species_pot                                                              
N   N_00.recpot                                                                 
H   H_04.recpot                                                                 
C   C_01.recpot                                                                 
S   S_00.recpot                                                                 
O   O_02.recpot                                                                 
F   F_00.recpot                                                                 
%endblock species_pot                                                           
%block lattice_cart                                                             
139.898   0.000   0.000                                                         
0.000 144.87   0.000                                                            
0.000   0.000   168.12                                                          
%endblock lattice_cart                                                          
%block positions_abs                                                            
     Hash =   000006001232959443780058
%endblock positions_abs                                                         

--------------------------------------------------------------------------------
-------------------------------- END INPUT FILE --------------------------------
--------------------------------------------------------------------------------


 
 ESDF WARNING(1): "kernelcutoff" (esdf_physical) has no units. Assume "bohr".
 ESDF WARNING(2): "kzero" (esdf_physical) has no units. Assume "1/bohr".
 ESDF WARNING(3
 ): "issmearedionwidth" (esdf_physical) has no units. Assume "bohr".
<<<<<<<<<<<<<<<<<<<<<<<<<<<<<<<<< Full system >>>>>>>>>>>>>>>>>>>>>>>>>>>>>>>>>>
WARNING in pseudopotentials_read_species: string "LDA" found in pseudopotential
file "F_00.recpot", yet xc_functional = "PBE".
 
<<<<<<<<<<<<<<<<<<<<<<<<< Pseudopotential information >>>>>>>>>>>>>>>>>>>>>>>>>>
File: N_00.recpot [ 2001 points up to Gmax=  52.9 (1/bohr)]
  Atomic number:  7;  ionic charge:  5.000000
    Shell 1: l = 0; rc = 1.48 bohr
File: H_04.recpot [ 2001 points up to Gmax=  52.9 (1/bohr)]
  Atomic number:  1;  ionic charge:  1.000000
    Local potential
File: C_01.recpot [ 2001 points up to Gmax=  52.9 (1/bohr)]
  Atomic number:  6;  ionic charge:  4.000000
    Shell 1: l = 0; rc = 1.48 bohr
File: S_00.recpot [ 2001 points up to Gmax=  52.9 (1/bohr)]
  Atomic number: 16;  ionic charge:  6.000000
    Shell 1: l = 0; rc = 1.90 bohr
    Shell 2: l = 2; rc = 1.84 bohr
File: O_02.recpot [ 2001 points up to Gmax=  52.9 (1/bohr)]
  Atomic number:  8;  ionic charge:  6.000000
    Shell 1: l = 0; rc = 1.31 bohr
File: F_00.recpot [ 2001 points up to Gmax=  52.9 (1/bohr)]
  Atomic number:  9;  ionic charge:  7.000000
    Shell 1: l = 0; rc = 1.60 bohr
<<<<<<<<<<<<<<<<<<<<<<<<<<<<<<<<<<<<<<<<>>>>>>>>>>>>>>>>>>>>>>>>>>>>>>>>>>>>>>>>

-------------------------- Atom counting information ---------------------------
Symbol    Natoms    Nngwfs    Nprojs
  N        237       948       237
  H       1317      1317         0
  C        816      3264       816
  S          6        54        36
  O        239       956       239
  F          1         9         1
.......   ......    ......    ......
Totals:   2616      6548      1329
--------------------------------------------------------------------------------

=============================== PSINC grid sizes ===============================
                      Simulation cell:  275 x 286 x 336
                              FFT-box:   99 x  99 x  99
                                  PPD:    5 x  11 x   1
Grid space d1=  0.508720000000a0 (KE cutoff=  29.35259Eh = 798.72452eV)
Grid space d2=  0.506538461538a0 (KE cutoff=  29.60596Eh = 805.61916eV)
Grid space d3=  0.500357142857a0 (KE cutoff=  30.34197Eh = 825.64705eV)
================================================================================

********************* Fourier parallelisation information **********************
       Coarse grid (whole simulation cell) dimensions:    275   286   336
          Real-space ('12') slabs/node (min max mean):      8     9     8
         Recip-space ('23') slabs/node (min max mean):      3     4     3
********************************************************************************

********************* Fourier parallelisation information **********************
       Double grid (whole simulation cell) dimensions:    550   572   672
          Real-space ('12') slabs/node (min max mean):     16    17    16
         Recip-space ('23') slabs/node (min max mean):      6     7     6
********************************************************************************
ONETEP fine grid is 550 x 572 x 672 gridpoints, 139.8980 x 144.8700 x 168.1200 bohr.
FD multigrid is     545 x 569 x 665 gridpoints, 138.6262 x 144.1102 x 166.3688 bohr.


Calculating local pseudopotential in open BC on a radial grid ...
Discrepancy between calculated realspace psloc and -Z/x on [5a0,262.342a0]:
max |rel. diff| # avg |rel. diff| #  avg rel. diff #  f # pseudopotential file
 0.000258413739    0.000003708905   0.000000070960   56  'N_00.recpot'
 0.000398954828    0.000016185045  -0.000000074508   56  'H_04.recpot'
 0.000375346405    0.000017198923   0.000000144535   56  'C_01.recpot'
 0.000466850533    0.000020125278   0.000000461745   56  'S_00.recpot'
 0.000671508953    0.000026045986   0.000000155458   56  'O_02.recpot'
 0.002873965647    0.000134299806   0.000000884984   56  'F_00.recpot'
... done

Atom SCF Calculation for N  : Z (AE atom) =   7 : Z (PS atom) =   5
Config String:
Orbitals (num,occ):  2     2.00 3.00
Orbitals   (num,l):  2        0    1
Real-space Grid (nr,dr,rmax): 1203    0.0066555740    8.0000000000
Spherical Bessel Basis (nsws,lmax,cutoff):   47    1  176.3951722778
Confining potential (l,width,scale):  0    3.0000000000  100.0000000000
Confining potential (l,width,scale):  1    3.0000000000  100.0000000000
  1         -4.7312375307   -3.4155304497    7.0523828109   -1.9351020946
  2         -9.7309464766   -2.0532547791    8.2966052865   -2.2494486027
  3         -9.6627394379   -2.1124926340    8.2327997121   -2.2369778124
  4         -9.6814993499   -2.1215521045    8.2229805960   -2.2365178421
  5         -9.6843326483   -2.1250939529    8.2191374534   -2.2362718126
  6         -9.6859628709   -2.1267894855    8.2172963573   -2.2362066344
  7         -9.6867347035   -2.1276425665    8.2163697352   -2.2361903369
  8         -9.6870802100   -2.1280764625    8.2158983890   -2.2361891460
  9         -9.6872290423   -2.1282977424    8.2156580222   -2.2361920435
 10         -9.6872901988   -2.1284107021    8.2155353368   -2.2361953393
 11         -9.6873135296   -2.1284684031    8.2154726809   -2.2361979819
 12         -9.6873212476   -2.1284978948    8.2154406648   -2.2361998431
 13         -9.6873229586   -2.1285129774    8.2154242957   -2.2362010676
 14         -9.6873226456   -2.1285206957    8.2154159216   -2.2362018403
 15         -9.6873218534   -2.1285246479    8.2154116349   -2.2362023142
 16         -9.6873212599   -2.1285262679    8.2154098784   -2.2362025420
 17         -9.6873207834   -2.1285272564    8.2154088068   -2.2362026955
 18         -9.6873204210   -2.1285278597    8.2154081529   -2.2362027982
 19         -9.6873201550   -2.1285282280    8.2154077538   -2.2362028667
 20         -9.6873199645   -2.1285284529    8.2154075102   -2.2362029121
 21         -9.6873198305   -2.1285285903    8.2154073614   -2.2362029421
 22         -9.6873197377   -2.1285286742    8.2154072705   -2.2362029618
Atom SCF converged after  22 iterations to a total energy of     -9.68731974

Atom SCF Calculation for H  : Z (AE atom) =   1 : Z (PS atom) =   1
Config String:
Orbitals (num,occ):  1     1.00
Orbitals   (num,l):  1        0
Real-space Grid (nr,dr,rmax): 1203    0.0066555740    8.0000000000
Spherical Bessel Basis (nsws,lmax,cutoff):   47    0  176.3951722778
Confining potential (l,width,scale):  0    3.0000000000  100.0000000000
  1         -0.3194257691   -0.2393854593    0.2820953124   -0.2424203209
  2         -0.3951823392   -0.2377116493    0.2886404059   -0.2475147891
  3         -0.4317044583   -0.2352244387    0.2921333887   -0.2514046172
  4         -0.4470703708   -0.2341892222    0.2934391879   -0.2531009782
  5         -0.4532132900   -0.2338556667    0.2938388426   -0.2537313520
  6         -0.4556579251   -0.2337612552    0.2939448584   -0.2539550462
  7         -0.4566418315   -0.2337377355    0.2939680120   -0.2540342273
  8         -0.4570437922   -0.2337331116    0.2939708287   -0.2540627372
  9         -0.4572102946   -0.2337328328    0.2939698291   -0.2540732650
 10         -0.4572800424   -0.2337332404    0.2939687193   -0.2540772588
 11         -0.4573095100   -0.2337335791    0.2939680317   -0.2540788122
 12         -0.4573220379   -0.2337337762    0.2939676699   -0.2540794294
 13         -0.4573273880   -0.2337338775    0.2939674931   -0.2540796787
 14         -0.4573296803   -0.2337339266    0.2939674099   -0.2540797808
 15         -0.4573306647   -0.2337339495    0.2939673718   -0.2540798230
 16         -0.4573310882   -0.2337339601    0.2939673545   -0.2540798406
 17         -0.4573312706   -0.2337339649    0.2939673467   -0.2540798479
 18         -0.4573313493   -0.2337339670    0.2939673433   -0.2540798510
Atom SCF converged after  18 iterations to a total energy of     -0.45733135

Atom SCF Calculation for C  : Z (AE atom) =   6 : Z (PS atom) =   4
Config String:
Orbitals (num,occ):  2     2.00 2.00
Orbitals   (num,l):  2        0    1
Real-space Grid (nr,dr,rmax): 1203    0.0066555740    8.0000000000
Spherical Bessel Basis (nsws,lmax,cutoff):   47    1  176.3951722778
Confining potential (l,width,scale):  0    3.0000000000  100.0000000000
Confining potential (l,width,scale):  1    3.0000000000  100.0000000000
  1         -5.2976922011   -1.3069684169    4.5135249990   -1.4493313817
  2         -5.3721716256   -1.3429755895    4.4750154450   -1.4361613026
  3         -5.3809959565   -1.3617365618    4.4541655428   -1.4305930207
  4         -5.3918938866   -1.3667928461    4.4484735100   -1.4294652294
  5         -5.3956096428   -1.3688539142    4.4461376126   -1.4290734646
  6         -5.3968271862   -1.3696852393    4.4451910874   -1.4289366866
  7         -5.3972028401   -1.3700178062    4.4448112275   -1.4288900460
  8         -5.3973067903   -1.3701500158    4.4446598370   -1.4288749220
  9         -5.3973286940   -1.3702023868    4.4445997329   -1.4288704293
 10         -5.3973289850   -1.3702230869    4.4445759233   -1.4288693188
 11         -5.3973254264   -1.3702312560    4.4445665049   -1.4288691775
 12         -5.3973224003   -1.3702344755    4.4445627836   -1.4288692549
 13         -5.3973208708   -1.3702354890    4.4445616088   -1.4288693270
 14         -5.3973198783   -1.3702360102    4.4445610034   -1.4288693814
 15         -5.3973192535   -1.3702362780    4.4445606917   -1.4288694190
 16         -5.3973188684   -1.3702364155    4.4445605313   -1.4288694437
 17         -5.3973186349   -1.3702364860    4.4445604489   -1.4288694595
 18         -5.3973184951   -1.3702365221    4.4445604065   -1.4288694693
 19         -5.3973184122   -1.3702365405    4.4445603848   -1.4288694753
Atom SCF converged after  19 iterations to a total energy of     -5.39731841

Atom SCF Calculation for S  : Z (AE atom) =  16 : Z (PS atom) =   6
Config String:
Orbitals (num,occ):  3     2.00 4.00 0.00
Orbitals   (num,l):  3        0    1    2
Real-space Grid (nr,dr,rmax): 1203    0.0066555740    8.0000000000
Spherical Bessel Basis (nsws,lmax,cutoff):   47    2  176.3951722778
Confining potential (l,width,scale):  0    3.0000000000  100.0000000000
Confining potential (l,width,scale):  1    3.0000000000  100.0000000000
Confining potential (l,width,scale):  2    3.0000000000  100.0000000000
  1        -12.4735062396   -1.0328741412   10.1554312477   -2.4512393157
  2         -9.9458301913   -2.4607392455    8.3041325857   -2.0306994528
  3        -10.1450417646   -2.2931184565    8.4831893826   -2.0812538287
  4        -10.1528335592   -2.2733105793    8.5050388867   -2.0896035179
  5        -10.1571940363   -2.2633716629    8.5160794258   -2.0939370707
  6        -10.1594380571   -2.2584938667    8.5215163935   -2.0961289008
  7        -10.1605856507   -2.2561081821    8.5241804044   -2.0972291378
  8        -10.1611799191   -2.2549395235    8.5254868240   -2.0977806248
  9        -10.1614918752   -2.2543658586    8.5261285885   -2.0980571586
 10        -10.1616572884   -2.2540839121    8.5264441898   -2.0981959233
 11        -10.1617455602   -2.2539453058    8.5265994231   -2.0982656006
 12        -10.1617928447   -2.2538772062    8.5266757320   -2.0983006047
 13        -10.1618182292   -2.2538437891    8.5267131983   -2.0983181961
 14        -10.1618318741   -2.2538274201    8.5267315620   -2.0983270391
 15        -10.1618392144   -2.2538194197    8.5267405433   -2.0983314852
 16        -10.1618431651   -2.2538155200    8.5267449245   -2.0983337210
 17        -10.1618452923   -2.2538136252    8.5267470551   -2.0983348455
 18        -10.1618464380   -2.2538127080    8.5267480875   -2.0983354110
 19        -10.1618470552   -2.2538122659    8.5267485856   -2.0983356955
 20        -10.1618473878   -2.2538120540    8.5267488248   -2.0983358386
 21        -10.1618475670   -2.2538119530    8.5267489389   -2.0983359106
 22        -10.1618476637   -2.2538119053    8.5267489929   -2.0983359468
Atom SCF converged after  22 iterations to a total energy of    -10.16184766

Atom SCF Calculation for O  : Z (AE atom) =   8 : Z (PS atom) =   6
Config String:
Orbitals (num,occ):  2     2.00 4.00
Orbitals   (num,l):  2        0    1
Real-space Grid (nr,dr,rmax): 1203    0.0066555740    8.0000000000
Spherical Bessel Basis (nsws,lmax,cutoff):   47    1  176.3951722778
Confining potential (l,width,scale):  0    3.0000000000  100.0000000000
Confining potential (l,width,scale):  1    3.0000000000  100.0000000000
  1         -1.8735052164   -7.5539365035   10.1554312477   -2.4512393157
  2        -16.0318313751   -3.1285771268   13.6395848164   -3.2358799643
  3        -15.9524020423   -3.0762819706   13.6967272503   -3.2536856837
  4        -15.8521515939   -3.0781493909   13.6951909330   -3.2561700440
  5        -15.8357139793   -3.0748501933   13.6988803334   -3.2580493133
  6        -15.8246052853   -3.0740779781   13.6997881576   -3.2588327446
  7        -15.8189019501   -3.0737449687   13.7001869911   -3.2592378801
  8        -15.8159785510   -3.0736026016   13.7003615168   -3.2594475790
  9        -15.8144776168   -3.0735437994   13.7004360379   -3.2595560735
 10        -15.8137058024   -3.0735207882   13.7004667348   -3.2596122456
 11        -15.8133083127   -3.0735125946   13.7004786868   -3.2596413656
 12        -15.8131032938   -3.0735102195   13.7004828997   -3.2596564858
 13        -15.8129973902   -3.0735099286   13.7004840891   -3.2596643505
 14        -15.8129426040   -3.0735102506   13.7004842061   -3.2596684489
 15        -15.8129142203   -3.0735106556   13.7004840157   -3.2596705887
 16        -15.8128994940   -3.0735109855   13.7004837906   -3.2596717080
 17        -15.8128918425   -3.0735112169   13.7004836103   -3.2596722946
 18        -15.8128878614   -3.0735113674   13.7004834848   -3.2596726026
 19        -15.8128857871   -3.0735114608   13.7004834035   -3.2596727646
 20        -15.8128847048   -3.0735115170   13.7004833533   -3.2596728500
 21        -15.8128841394   -3.0735115501   13.7004833231   -3.2596728951
 22        -15.8128838436   -3.0735115693   13.7004833054   -3.2596729190
 23        -15.8128836887   -3.0735115802   13.7004832951   -3.2596729316
 24        -15.8128836074   -3.0735115864   13.7004832893   -3.2596729383
Atom SCF converged after  24 iterations to a total energy of    -15.81288361

Atom SCF Calculation for F  : Z (AE atom) =   9 : Z (PS atom) =   7
Config String:
Orbitals (num,occ):  5     2.00 5.00 0.00 0.00 0.00
Orbitals   (num,l):  5        0    1    0    1    2
Real-space Grid (nr,dr,rmax): 1203    0.0066555740    8.0000000000
Spherical Bessel Basis (nsws,lmax,cutoff):   47    2  176.3951722778
Confining potential (l,width,scale):  0    3.0000000000  100.0000000000
Confining potential (l,width,scale):  1    3.0000000000  100.0000000000
Confining potential (l,width,scale):  2    3.0000000000  100.0000000000
  1          2.7613408675  -14.5815130354   13.8226703094   -2.9941905181
  2        -23.6468980113   -4.9263326541   20.5563421412   -4.3754293297
  3        -24.5333043594   -4.3845963970   21.1176052958   -4.4841731563
  4        -24.3589864791   -4.3106783108   21.1950887716   -4.4997202795
  5        -24.2648391338   -4.2783243831   21.2295118026   -4.5072738146
  6        -24.2274338603   -4.2663478973   21.2423649225   -4.5102591768
  7        -24.2052315491   -4.2595041622   21.2497430410   -4.5120310941
  8        -24.1920610535   -4.2555995140   21.2539669715   -4.5130761189
  9        -24.1842594614   -4.2533726648   21.2563826077   -4.5136908004
 10        -24.1796430262   -4.2521035456   21.2577627107   -4.5140519045
 11        -24.1769128010   -4.2513811698   21.2585501121   -4.5142639028
 12        -24.1752983031   -4.2509707627   21.2589985394   -4.5143883165
 13        -24.1743434247   -4.2507381589   21.2592533437   -4.5144613128
 14        -24.1737784708   -4.2506067164   21.2593977374   -4.5145041342
 15        -24.1734440540   -4.2505326993   21.2594793047   -4.5145292513
 16        -24.1732459871   -4.2504911905   21.2595252124   -4.5145439823
 17        -24.1731286021   -4.2504680245   21.2595509400   -4.5145526212
 18        -24.1730589855   -4.2504551689   21.2595652865   -4.5145576869
 19        -24.1730176682   -4.2504480829   21.2595732399   -4.5145606573
 20        -24.1729931274   -4.2504442088   21.2595776183   -4.5145623987
 21        -24.1729785394   -4.2504421116   21.2595800086   -4.5145634196
 22        -24.1729698603   -4.2504409903   21.2595813001   -4.5145640181
 23        -24.1729646922   -4.2504404002   21.2595819890   -4.5145643688
 24        -24.1729616119   -4.2504400960   21.2595823505   -4.5145645744
 25        -24.1729597743   -4.2504399438   21.2595825360   -4.5145646948
 26        -24.1729586769   -4.2504398706   21.2595826284   -4.5145647654
 27        -24.1729580209   -4.2504398378   21.2595826723   -4.5145648067
 28        -24.1729576283   -4.2504398249   21.2595826917   -4.5145648309
 29        -24.1729573931   -4.2504398211   21.2595826991   -4.5145648451
 30        -24.1729572521   -4.2504398214   21.2595827010   -4.5145648534
 31        -24.1729571674   -4.2504398230   21.2595827006   -4.5145648582
Atom SCF converged after  31 iterations to a total energy of    -24.17295717
 
WARNING in ngwfs_initialise: Setting radial NGWF functions for species  6 (F):
Last NGWF on atom has m = -2 and does not complete set of m-values for l = 2.
This breaks symmetry and may cause unstable NGWF optimisation and poor 
convergence. Suggest increasing number of NGWFs per atom from   9 to  13.
NB: All NGWF radial function angular momenta:     0    1    0    1    2
 

========================== Calculation in vacuum ==============================
= Adjusting the following parameters: 
= is_implicit_solvent: F
= is_include_apolar: F
= write_denskern: T
= write_tightbox_ngwfs: T
= restart read filename prefix: ""
= restart write filename prefix: "vacuum_"
===============================================================================

Determining parallel strategy ...
... using space-filling curve
... NGWF load balancing: max    164;  min    163;  average    164
... Projector load balancing: max     36;  min     31;  average     33
... done
Calculating direct Ion-Ion energy ...
Ion-Ion Energy        :    828858.90167893888429
======================= Empirical dispersion information =======================
Model : Elstner
WARNING: Unoptimised dispersion parameters used for F 
Dispersion Correction Energy: -0.33174250E+01 Hartree
================================================================================
Basis initialisation ...... NGWF spheres initialised
... Projector spheres initialised
... NGWF tight boxes initialised
... Tight-boxes gathered
... NGWF basis size (local,global):    1274640  51013636
... Nonlocal pseudopotential projector initialisation
... done

========================== Sparse matrix information ===========================
                        Overlap matrix filling:   6.81%
                        Density kernel filling: 100.00%
              NGWF-Proj overlap matrix filling:   1.78%
                    Hamiltonian matrix filling:   7.70%
                  NGWF diagonal matrix filling:   0.05%
                             KS matrix filling: 100.00% 
                           KSKS matrix filling: 100.00% 
================================================================================

Sparse matrix initialisation ... done

Generating smeared ion density ... done
Smeared ion self correction:     -14544.936866
Smeared ion non-self correction: -828810.614029
NGWF initialisation ...... done
============ Calculation of NGWF S^-1 using Hotelling algorithm ================ 
         Iteration  |  Frobenius norm and Maximum abs value    (of I-S*S_n^-1)   
               1       0.78694463E+02     0.98224255E+00
               2       0.76806448E+02     0.96498885E+00
               3       0.73761702E+02     0.93190634E+00
               4       0.69454219E+02     0.87057471E+00
               5       0.64107233E+02     0.76454553E+00
               6       0.58113100E+02     0.70348275E+00
               7       0.52105299E+02     0.67196816E+00
               8       0.46548123E+02     0.64478789E+00
               9       0.40424376E+02     0.60223756E+00
              10       0.32075179E+02     0.53247146E+00
              11       0.21456409E+02     0.42129613E+00
              12       0.10894461E+02     0.27641433E+00
              13       0.35714037E+01     0.12751903E+00
              14       0.58277653E+00     0.37424403E-01
              15       0.39460209E-01     0.51589647E-02
              16       0.79326484E-03     0.14040691E-03
              17       0.59334602E-06     0.10786756E-06
              18       0.36442063E-12     0.63060668E-13
================================================================================
Calculating local pseudopotential in open BC on the fine real space grid ...
... done

MG BCs: +ve charge blocks (gridpoints):     20411 (   15945912).
MG BCs: -ve charge blocks (gridpoints):      8042 (    1079861).
MG BCs:     Elided blocks (gridpoints):    189634 (  189194052).
MG BCs: Computational effort saved:  99.9862%.
MG BCs: Charge after coarse-graining:           -9.0002307.
MG DL_MG: Calling solver with defect correction order = 8
MG DL_MG: Solver finished
MG Hartree energy from (\int phi*rho dr):              1471.240595
MG Hartree energy from (\int eps (grad phi)^2 dr):     1470.631164
MG Discrepancy due to finite box and discretization:     -0.609431 (  -0.04142%)
MG Correction to account for finite box:                  0.454402
MG Remaining discrepancy, due to discretization:         -0.155028 (  -0.01054%)
Up spin density kernel initialisation ... 
======= Optimisation of K by Palser-Manolopoulos canonical purification ======== 
         Iteration  |  Band structure energy |    c_n   
               1       -2544.29307036656792    0.5311010
               2       -2719.19397942159776    0.5202173
               3       -2904.62205748588030    0.5154211
               4       -3067.11032499332077    0.5248659
               5       -3174.24691198613982    0.5557460
               6       -3222.69295330821296    0.6027852
               7       -3239.22601191233935    0.6235218
               8       -3245.91686883896318    0.6244137
               9       -3249.17849766021573    0.6419717
              10       -3250.55795964008394    0.6697148
              11       -3251.10848099661416    0.6834859
              12       -3251.36450265367694    0.6791538
              13       -3251.50098673051889    0.6470824
              14       -3251.58366731783917    0.6003983
              15       -3251.63058577683887    0.5503082
              16       -3251.65082354612559    0.4953264
              17       -3251.65621269609528    0.4774820
              18       -3251.65683951726623    0.4957260
              19       -3251.65729426944017    0.4998886
              20       -3251.65753772842345    0.4999999
              21       -3251.65758611163483    0.5000000
              22       -3251.65758760473909    0.5000042
              23       -3251.65758760609060    0.5000042
Termination criterion satisfied: band energy change below threshold.
Final occupancy bounds: [   -0.00000000000000:    1.00000000000000]
Closest occupancy to 0.5:     1.00000000000000
================================================================================
... done

Writing density kernel to file "complex_23661.vacuum_dkn" ... done

>>> Optimising kernel for current NGWFs:
   Initial electron number for spin 1:    7234.00000000
     Final electron number for spin 1:    7234.00000000

=================== Penalty functional idempotency correction ==================
 RMS occupancy error at iteration   1:  0.000000 (step -0.5000 Ne1=   7234.0000)
            Final RMS occupancy error   :  0.000000 (Ne1=   7234.0000)
               Final occupancy bounds   : [ -0.0000,  1.0000]
================================================================================

................................................................................
<<<<<<<<<<<<<< LNV (Original version) density kernel optimisation >>>>>>>>>>>>>>
~~~~~~~~~~~~~~~~~~~~~~~~~~~~~~~~~~~~~~~~~~~~~~~~~~~~~~~~~~~~~~~~~~~~~~~~~~~~~~~~
   iter  |      energy (Eh)       | rms gradient |  commutator  |   dE (Eh)
MG BCs: +ve charge blocks (gridpoints):     31273 (   17162674).
MG BCs: -ve charge blocks (gridpoints):      8442 (    1112827).
MG BCs:     Elided blocks (gridpoints):    178761 (  187944324).
MG BCs: Computational effort saved:  99.9807%.
MG BCs: Charge after coarse-graining:           -9.0009887.
MG DL_MG: Calling solver with defect correction order = 8
MG DL_MG: Solver finished
MG Hartree energy from (\int phi*rho dr):              1425.279130
MG Hartree energy from (\int eps (grad phi)^2 dr):     1424.623077
MG Discrepancy due to finite box and discretization:     -0.656052 (  -0.04603%)
MG Correction to account for finite box:                  0.458505
MG Remaining discrepancy, due to discretization:         -0.197547 (  -0.01386%)
      ideal mu1:      -0.714083223011
             Q0:  -11579.547667818842
             G0:    -141.998093513631
   RMS gradient:       0.001819837400
MG BCs: +ve charge blocks (gridpoints):     31260 (   17246040).
MG BCs: -ve charge blocks (gridpoints):      8319 (    1092191).
MG BCs:     Elided blocks (gridpoints):    178777 (  187881594).
MG BCs: Computational effort saved:  99.9808%.
MG BCs: Charge after coarse-graining:           -9.0010108.
MG DL_MG: Calling solver with defect correction order = 8
MG DL_MG: Solver finished
MG Hartree energy from (\int phi*rho dr):              1451.385829
MG Hartree energy from (\int eps (grad phi)^2 dr):     1450.746308
MG Discrepancy due to finite box and discretization:     -0.639521 (  -0.04406%)
MG Correction to account for finite box:                  0.457784
MG Remaining discrepancy, due to discretization:         -0.181737 (  -0.01252%)
     Trial step:       0.500000000000
             Q1:  -11590.544368489296
 Quadratic coef:      60.002346086361
 Linear coef   :     -70.999046756815
           Qmin:  -11600.550449248094
Quadratic minimum step length (  0.295817794585) accepted
    Initial Ne1:    7234.00000000
      Final Ne1:    7234.00000000

=================== Penalty functional idempotency correction ==================
 RMS occupancy error at iteration   1:  0.003298 (step -0.4888 Ne1=   7234.0000)
 RMS occupancy error at iteration   2:  0.000025 (step -0.5001 Ne1=   7234.0000)
            Final RMS occupancy error   :  0.000000 (Ne1=   7234.0000)
               Final occupancy bounds   : [  0.0000,  1.0000]
================================================================================

    1        -1.157954766782E+04     1.8198E-03     1.6473E-03
MG BCs: +ve charge blocks (gridpoints):     31264 (   17213047).
MG BCs: -ve charge blocks (gridpoints):      8381 (    1100890).
MG BCs:     Elided blocks (gridpoints):    178773 (  187905888).
MG BCs: Computational effort saved:  99.9808%.
MG BCs: Charge after coarse-graining:           -9.0010022.
MG DL_MG: Calling solver with defect correction order = 8
MG DL_MG: Solver finished
MG Hartree energy from (\int phi*rho dr):              1432.875175
MG Hartree energy from (\int eps (grad phi)^2 dr):     1432.229872
MG Discrepancy due to finite box and discretization:     -0.645303 (  -0.04504%)
MG Correction to account for finite box:                  0.457951
MG Remaining discrepancy, due to discretization:         -0.187352 (  -0.01308%)
      ideal mu1:      -0.753614410555
             Q0:  -11600.934974509990
             G0:     -11.662100022100
   RMS gradient:       0.000518105886
MG BCs: +ve charge blocks (gridpoints):     31271 (   17230839).
MG BCs: -ve charge blocks (gridpoints):      8351 (    1095615).
MG BCs:     Elided blocks (gridpoints):    178763 (  187893371).
MG BCs: Computational effort saved:  99.9808%.
MG BCs: Charge after coarse-graining:           -9.0010060.
MG DL_MG: Calling solver with defect correction order = 8
MG DL_MG: Solver finished
MG Hartree energy from (\int phi*rho dr):              1438.361159
MG Hartree energy from (\int eps (grad phi)^2 dr):     1437.719562
MG Discrepancy due to finite box and discretization:     -0.641597 (  -0.04461%)
MG Correction to account for finite box:                  0.457470
MG Remaining discrepancy, due to discretization:         -0.184128 (  -0.01280%)
     Trial step:       0.384589257901
             Q1:  -11603.671113908524
 Quadratic coef:       1.748978994528
 Linear coef   :      -4.485118393063
           Qmin:  -11603.810407414376
Quadratic minimum step length (  0.493124377074) accepted
    Initial Ne1:    7233.99991129
      Final Ne1:    7234.00000000

=================== Penalty functional idempotency correction ==================
 RMS occupancy error at iteration   1:  0.001733 (step -0.4934 Ne1=   7234.0000)
 RMS occupancy error at iteration   2:  0.000009 (step -0.5001 Ne1=   7234.0000)
            Final RMS occupancy error   :  0.000000 (Ne1=   7234.0000)
               Final occupancy bounds   : [  0.0000,  1.0000]
================================================================================

    2        -1.160093497451E+04     5.1811E-04     4.6897E-04    -2.1387E+01
MG BCs: +ve charge blocks (gridpoints):     31276 (   17236047).
MG BCs: -ve charge blocks (gridpoints):      8344 (    1094060).
MG BCs:     Elided blocks (gridpoints):    178758 (  187889718).
MG BCs: Computational effort saved:  99.9808%.
MG BCs: Charge after coarse-graining:           -9.0010069.
MG DL_MG: Calling solver with defect correction order = 8
MG DL_MG: Solver finished
MG Hartree energy from (\int phi*rho dr):              1439.949752
MG Hartree energy from (\int eps (grad phi)^2 dr):     1439.309117
MG Discrepancy due to finite box and discretization:     -0.640634 (  -0.04449%)
MG Correction to account for finite box:                  0.457352
MG Remaining discrepancy, due to discretization:         -0.183283 (  -0.01273%)
      ideal mu1:      -0.775062081741
             Q0:  -11603.844788740040
             G0:      -1.824762321352
   RMS gradient:       0.000205035313
MG BCs: +ve charge blocks (gridpoints):     31280 (   17235423).
MG BCs: -ve charge blocks (gridpoints):      8353 (    1095102).
MG BCs:     Elided blocks (gridpoints):    178754 (  187889300).
MG BCs: Computational effort saved:  99.9808%.
MG BCs: Charge after coarse-graining:           -9.0010067.
MG DL_MG: Calling solver with defect correction order = 8
MG DL_MG: Solver finished
MG Hartree energy from (\int phi*rho dr):              1437.745637
MG Hartree energy from (\int eps (grad phi)^2 dr):     1437.105333
MG Discrepancy due to finite box and discretization:     -0.640304 (  -0.04454%)
MG Correction to account for finite box:                  0.457190
MG Remaining discrepancy, due to discretization:         -0.183114 (  -0.01274%)
     Trial step:       0.435488620094
             Q1:  -11604.302606067038
 Quadratic coef:       0.336845898328
 Linear coef   :      -0.794663225326
           Qmin:  -11604.313467180849
Quadratic minimum step length (  0.513687109083) accepted
    Initial Ne1:    7233.99996340
      Final Ne1:    7234.00000000

=================== Penalty functional idempotency correction ==================
 RMS occupancy error at iteration   1:  0.000572 (step -0.4977 Ne1=   7234.0000)
 RMS occupancy error at iteration   2:  0.000001 (step -0.5000 Ne1=   7234.0000)
            Final RMS occupancy error   :  0.000000 (Ne1=   7234.0000)
               Final occupancy bounds   : [  0.0000,  1.0000]
================================================================================

    3        -1.160384478874E+04     2.0504E-04     1.8559E-04    -2.9098E+00
MG BCs: +ve charge blocks (gridpoints):     31282 (   17235434).
MG BCs: -ve charge blocks (gridpoints):      8352 (    1095287).
MG BCs:     Elided blocks (gridpoints):    178752 (  187889104).
MG BCs: Computational effort saved:  99.9808%.
MG BCs: Charge after coarse-graining:           -9.0010066.
MG DL_MG: Calling solver with defect correction order = 8
MG DL_MG: Solver finished
MG Hartree energy from (\int phi*rho dr):              1437.357935
MG Hartree energy from (\int eps (grad phi)^2 dr):     1436.717681
MG Discrepancy due to finite box and discretization:     -0.640254 (  -0.04454%)
MG Correction to account for finite box:                  0.457162
MG Remaining discrepancy, due to discretization:         -0.183092 (  -0.01274%)
      ideal mu1:      -0.775631070503
             Q0:  -11604.317618087865
             G0:      -0.425317568198
   RMS gradient:       0.000099111672
MG BCs: +ve charge blocks (gridpoints):     31283 (   17236383).
MG BCs: -ve charge blocks (gridpoints):      8351 (    1095154).
MG BCs:     Elided blocks (gridpoints):    178751 (  187888288).
MG BCs: Computational effort saved:  99.9808%.
MG BCs: Charge after coarse-graining:           -9.0010068.
MG DL_MG: Calling solver with defect correction order = 8
MG DL_MG: Solver finished
MG Hartree energy from (\int phi*rho dr):              1438.533771
MG Hartree energy from (\int eps (grad phi)^2 dr):     1437.893486
MG Discrepancy due to finite box and discretization:     -0.640286 (  -0.04451%)
MG Correction to account for finite box:                  0.457064
MG Remaining discrepancy, due to discretization:         -0.183222 (  -0.01274%)
     Trial step:       0.472974513367
             Q1:  -11604.414801204926
 Quadratic coef:       0.103981252783
 Linear coef   :      -0.201164369845
           Qmin:  -11604.414912317863
Quadratic minimum step length (  0.457513337200) accepted
    Initial Ne1:    7233.99999225
      Final Ne1:    7234.00000000

=================== Penalty functional idempotency correction ==================
 RMS occupancy error at iteration   1:  0.000182 (step -0.4992 Ne1=   7234.0000)
            Final RMS occupancy error   :  0.000000 (Ne1=   7234.0000)
               Final occupancy bounds   : [ -0.0000,  1.0000]
================================================================================

    4        -1.160431761809E+04     9.9112E-05     8.9713E-05    -4.7283E-01
MG BCs: +ve charge blocks (gridpoints):     31283 (   17236351).
MG BCs: -ve charge blocks (gridpoints):      8351 (    1095162).
MG BCs:     Elided blocks (gridpoints):    178751 (  187888312).
MG BCs: Computational effort saved:  99.9808%.
MG BCs: Charge after coarse-graining:           -9.0010068.
MG DL_MG: Calling solver with defect correction order = 8
MG DL_MG: Solver finished
MG Hartree energy from (\int phi*rho dr):              1438.495316
MG Hartree energy from (\int eps (grad phi)^2 dr):     1437.855032
MG Discrepancy due to finite box and discretization:     -0.640284 (  -0.04451%)
MG Correction to account for finite box:                  0.457067
MG Remaining discrepancy, due to discretization:         -0.183217 (  -0.01274%)
      ideal mu1:      -0.775961225984
             Q0:  -11604.415319177322
             G0:      -0.103820885059
   RMS gradient:       0.000049106479
MG BCs: +ve charge blocks (gridpoints):     31283 (   17236602).
MG BCs: -ve charge blocks (gridpoints):      8349 (    1095001).
MG BCs:     Elided blocks (gridpoints):    178751 (  187888222).
MG BCs: Computational effort saved:  99.9808%.
MG BCs: Charge after coarse-graining:           -9.0010067.
MG DL_MG: Calling solver with defect correction order = 8
MG DL_MG: Solver finished
MG Hartree energy from (\int phi*rho dr):              1438.855047
MG Hartree energy from (\int eps (grad phi)^2 dr):     1438.214631
MG Discrepancy due to finite box and discretization:     -0.640416 (  -0.04451%)
MG Correction to account for finite box:                  0.457065
MG Remaining discrepancy, due to discretization:         -0.183351 (  -0.01274%)
     Trial step:       0.465179694334
             Q1:  -11604.440744390013
 Quadratic coef:       0.022870154886
 Linear coef   :      -0.048295367577
           Qmin:  -11604.440815752892
Quadratic minimum step length (  0.491164673773) accepted
    Initial Ne1:    7234.00165233
      Final Ne1:    7234.00000000

=================== Penalty functional idempotency correction ==================
 RMS occupancy error at iteration   1:  0.000065 (step -0.4997 Ne1=   7234.0000)
            Final RMS occupancy error   :  0.000000 (Ne1=   7234.0000)
               Final occupancy bounds   : [ -0.0000,  1.0000]
================================================================================

    5        -1.160441531918E+04     4.9106E-05     4.4450E-05    -9.7701E-02
MG BCs: +ve charge blocks (gridpoints):     31282 (   17236577).
MG BCs: -ve charge blocks (gridpoints):      8349 (    1095011).
MG BCs:     Elided blocks (gridpoints):    178752 (  187888237).
MG BCs: Computational effort saved:  99.9808%.
MG BCs: Charge after coarse-graining:           -9.0010067.
MG DL_MG: Calling solver with defect correction order = 8
MG DL_MG: Solver finished
MG Hartree energy from (\int phi*rho dr):              1438.875179
MG Hartree energy from (\int eps (grad phi)^2 dr):     1438.234756
MG Discrepancy due to finite box and discretization:     -0.640423 (  -0.04451%)
MG Correction to account for finite box:                  0.457064
MG Remaining discrepancy, due to discretization:         -0.183359 (  -0.01274%)
      ideal mu1:      -0.775947102273
             Q0:  -11604.440863782656
             G0:      -0.031695449579
   RMS gradient:       0.000027155908
MG BCs: +ve charge blocks (gridpoints):     31279 (   17236137).
MG BCs: -ve charge blocks (gridpoints):      8349 (    1095223).
MG BCs:     Elided blocks (gridpoints):    178755 (  187888465).
MG BCs: Computational effort saved:  99.9808%.
MG BCs: Charge after coarse-graining:           -9.0010066.
MG DL_MG: Calling solver with defect correction order = 8
MG DL_MG: Solver finished
MG Hartree energy from (\int phi*rho dr):              1438.263196
MG Hartree energy from (\int eps (grad phi)^2 dr):     1437.622782
MG Discrepancy due to finite box and discretization:     -0.640414 (  -0.04453%)
MG Correction to account for finite box:                  0.457067
MG Remaining discrepancy, due to discretization:         -0.183347 (  -0.01275%)
     Trial step:       0.477995640998
             Q1:  -11604.450759195606
 Quadratic coef:       0.005254873788
 Linear coef   :      -0.015150286738
           Qmin:  -11604.451783701836
Quadratic minimum step length (  0.689052802534) accepted
    Initial Ne1:    7234.00102568
      Final Ne1:    7234.00000000

=================== Penalty functional idempotency correction ==================
 RMS occupancy error at iteration   1:  0.000040 (step -0.4998 Ne1=   7234.0000)
            Final RMS occupancy error   :  0.000000 (Ne1=   7234.0000)
               Final occupancy bounds   : [ -0.0000,  1.0000]
================================================================================

    6        -1.160444086378E+04     2.7156E-05     2.4581E-05    -2.5545E-02
MG BCs: +ve charge blocks (gridpoints):     31280 (   17235995).
MG BCs: -ve charge blocks (gridpoints):      8349 (    1095308).
MG BCs:     Elided blocks (gridpoints):    178754 (  187888522).
MG BCs: Computational effort saved:  99.9808%.
MG BCs: Charge after coarse-graining:           -9.0010066.
MG DL_MG: Calling solver with defect correction order = 8
MG DL_MG: Solver finished
MG Hartree energy from (\int phi*rho dr):              1437.992266
MG Hartree energy from (\int eps (grad phi)^2 dr):     1437.351857
MG Discrepancy due to finite box and discretization:     -0.640409 (  -0.04453%)
MG Correction to account for finite box:                  0.457068
MG Remaining discrepancy, due to discretization:         -0.183342 (  -0.01275%)
      ideal mu1:      -0.775682885957
             Q0:  -11604.451793136657
             G0:      -0.017288300362
   RMS gradient:       0.000020080174
MG BCs: +ve charge blocks (gridpoints):     31283 (   17236480).
MG BCs: -ve charge blocks (gridpoints):      8349 (    1095076).
MG BCs:     Elided blocks (gridpoints):    178751 (  187888269).
MG BCs: Computational effort saved:  99.9808%.
MG BCs: Charge after coarse-graining:           -9.0010067.
MG DL_MG: Calling solver with defect correction order = 8
MG DL_MG: Solver finished
MG Hartree energy from (\int phi*rho dr):              1438.582300
MG Hartree energy from (\int eps (grad phi)^2 dr):     1437.941929
MG Discrepancy due to finite box and discretization:     -0.640371 (  -0.04451%)
MG Correction to account for finite box:                  0.457050
MG Remaining discrepancy, due to discretization:         -0.183321 (  -0.01274%)
     Trial step:       0.573902636367
             Q1:  -11604.456058583339
 Quadratic coef:       0.005656354475
 Linear coef   :      -0.009921801156
           Qmin:  -11604.456144090023
Quadratic minimum step length (  0.503340788317) accepted
    Initial Ne1:    7234.00015445
      Final Ne1:    7234.00000000

=================== Penalty functional idempotency correction ==================
 RMS occupancy error at iteration   1:  0.000003 (step -0.5000 Ne1=   7234.0000)
            Final RMS occupancy error   :  0.000000 (Ne1=   7234.0000)
               Final occupancy bounds   : [  0.0000,  1.0000]
================================================================================

    7        -1.160445179314E+04     2.0080E-05     1.8176E-05    -1.0929E-02
MG BCs: +ve charge blocks (gridpoints):     31283 (   17236417).
MG BCs: -ve charge blocks (gridpoints):      8349 (    1095099).
MG BCs:     Elided blocks (gridpoints):    178751 (  187888309).
MG BCs: Computational effort saved:  99.9808%.
MG BCs: Charge after coarse-graining:           -9.0010067.
MG DL_MG: Calling solver with defect correction order = 8
MG DL_MG: Solver finished
MG Hartree energy from (\int phi*rho dr):              1438.509631
MG Hartree energy from (\int eps (grad phi)^2 dr):     1437.869255
MG Discrepancy due to finite box and discretization:     -0.640376 (  -0.04452%)
MG Correction to account for finite box:                  0.457052
MG Remaining discrepancy, due to discretization:         -0.183323 (  -0.01274%)
      ideal mu1:      -0.775948533033
             Q0:  -11604.456144336611
             G0:      -0.010607937022
   RMS gradient:       0.000015729901
MG BCs: +ve charge blocks (gridpoints):     31283 (   17236528).
MG BCs: -ve charge blocks (gridpoints):      8349 (    1095059).
MG BCs:     Elided blocks (gridpoints):    178751 (  187888238).
MG BCs: Computational effort saved:  99.9808%.
MG BCs: Charge after coarse-graining:           -9.0010067.
MG DL_MG: Calling solver with defect correction order = 8
MG DL_MG: Solver finished
MG Hartree energy from (\int phi*rho dr):              1438.599150
MG Hartree energy from (\int eps (grad phi)^2 dr):     1437.958811
MG Discrepancy due to finite box and discretization:     -0.640339 (  -0.04451%)
MG Correction to account for finite box:                  0.457044
MG Remaining discrepancy, due to discretization:         -0.183295 (  -0.01274%)
     Trial step:       0.537464980632
             Q1:  -11604.460380420787
 Quadratic coef:       0.001465310490
 Linear coef   :      -0.005701394666
           Qmin:  -11604.461690243326
Quadratic minimum step length (  1.045614562544) accepted
    Initial Ne1:    7234.00019542
      Final Ne1:    7234.00000000

=================== Penalty functional idempotency correction ==================
 RMS occupancy error at iteration   1:  0.000030 (step -0.4991 Ne1=   7234.0000)
            Final RMS occupancy error   :  0.000000 (Ne1=   7234.0000)
               Final occupancy bounds   : [ -0.0000,  1.0000]
================================================================================

    8        -1.160445614434E+04     1.5730E-05     1.4238E-05    -4.3512E-03
MG BCs: +ve charge blocks (gridpoints):     31284 (   17236621).
MG BCs: -ve charge blocks (gridpoints):      8350 (    1094999).
MG BCs:     Elided blocks (gridpoints):    178750 (  187888205).
MG BCs: Computational effort saved:  99.9808%.
MG BCs: Charge after coarse-graining:           -9.0010067.
MG DL_MG: Calling solver with defect correction order = 8
MG DL_MG: Solver finished
MG Hartree energy from (\int phi*rho dr):              1438.681723
MG Hartree energy from (\int eps (grad phi)^2 dr):     1438.041419
MG Discrepancy due to finite box and discretization:     -0.640303 (  -0.04451%)
MG Correction to account for finite box:                  0.457035
MG Remaining discrepancy, due to discretization:         -0.183268 (  -0.01274%)
      ideal mu1:      -0.775984664101
             Q0:  -11604.461673213635
             G0:      -0.017197483972
   RMS gradient:       0.000020087340
MG BCs: +ve charge blocks (gridpoints):     31284 (   17236528).
MG BCs: -ve charge blocks (gridpoints):      8350 (    1095115).
MG BCs:     Elided blocks (gridpoints):    178750 (  187888182).
MG BCs: Computational effort saved:  99.9808%.
MG BCs: Charge after coarse-graining:           -9.0010067.
MG DL_MG: Calling solver with defect correction order = 8
MG DL_MG: Solver finished
MG Hartree energy from (\int phi*rho dr):              1438.323569
MG Hartree energy from (\int eps (grad phi)^2 dr):     1437.683357
MG Discrepancy due to finite box and discretization:     -0.640212 (  -0.04451%)
MG Correction to account for finite box:                  0.457006
MG Remaining discrepancy, due to discretization:         -0.183206 (  -0.01274%)
     Trial step:       0.749654060622
             Q1:  -11604.470113932388
 Quadratic coef:       0.004451444938
 Linear coef   :      -0.012892163692
           Qmin:  -11604.471007704287
Quadratic minimum step length (  1.085564686948) accepted
    Initial Ne1:    7234.00072020
      Final Ne1:    7234.00000000

=================== Penalty functional idempotency correction ==================
 RMS occupancy error at iteration   1:  0.000223 (step -0.4924 Ne1=   7234.0000)
 RMS occupancy error at iteration   2:  0.000002 (step -0.5000 Ne1=   7234.0000)
            Final RMS occupancy error   :  0.000000 (Ne1=   7234.0000)
               Final occupancy bounds   : [  0.0000,  1.0000]
================================================================================

    9        -1.160446167321E+04     2.0087E-05     1.8182E-05    -5.5289E-03
MG BCs: +ve charge blocks (gridpoints):     31284 (   17236451).
MG BCs: -ve charge blocks (gridpoints):      8350 (    1095180).
MG BCs:     Elided blocks (gridpoints):    178750 (  187888194).
MG BCs: Computational effort saved:  99.9808%.
MG BCs: Charge after coarse-graining:           -9.0010067.
MG DL_MG: Calling solver with defect correction order = 8
MG DL_MG: Solver finished
MG Hartree energy from (\int phi*rho dr):              1438.156837
MG Hartree energy from (\int eps (grad phi)^2 dr):     1437.516671
MG Discrepancy due to finite box and discretization:     -0.640167 (  -0.04451%)
MG Correction to account for finite box:                  0.456989
MG Remaining discrepancy, due to discretization:         -0.183177 (  -0.01274%)
      ideal mu1:      -0.775351441354
   10        -1.160447083071E+04     2.5222E-05     2.2830E-05    -9.1575E-03
Finished density kernel iterations (  10)

Writing density kernel to file "complex_23661.vacuum_dkn" ... done


>>> Density kernel optimised for the current NGWF basis:
     ~~~~~~~~~~~~~~~~~~~~~~~~~~~~~~~~~~~~~~~~~~~~~~~~~~~~~~~~~~~
     Total energy                =  -1.16044708307126E+04  Eh
     Estimated bandgap           =  -3.0179E-01  Eh
     RMS occupancy error         =   1.7065E-10
     [H,K] commutator            =   2.2830E-05
     Occupancy bounds            = [  0.000:  1.000]
     ~~~~~~~~~~~~~~~~~~~~~~~~~~~~~~~~~~~~~~~~~~~~~~~~~~~~~~~~~~~




################################################################################
########################### NGWF CG iteration  001 #############################
################################################################################
****** Reciprocal space K.E. preconditioning with k_zero =  3.5000 a0^-1 *******

>>> Checking for convergence of NGWFs:   NOT CONVERGED
  ========================================================================
         NGWF RMS gradient =  1.5988E-03 >  2.0000E-06  | above tolerance
  ========================================================================

>>> Improving NGWFs using line search:
============ Calculation of NGWF S^-1 using Hotelling algorithm ================ 
         Iteration  |  Frobenius norm and Maximum abs value    (of I-S*S_n^-1)   
               1       0.19894724E+00     0.53748991E-02
               2       0.92188894E-03     0.42403971E-04
               3       0.34623180E-07     0.26889180E-08
               4       0.13331970E-12     0.59952043E-14
================================================================================
MG BCs: +ve charge blocks (gridpoints):     30850 (   17180041).
MG BCs: -ve charge blocks (gridpoints):      8342 (    1095165).
MG BCs:     Elided blocks (gridpoints):    179185 (  187944619).
MG BCs: Computational effort saved:  99.9810%.
MG BCs: Charge after coarse-graining:           -9.0010081.
MG DL_MG: Calling solver with defect correction order = 8
MG DL_MG: Solver finished
MG Hartree energy from (\int phi*rho dr):              1406.132314
MG Hartree energy from (\int eps (grad phi)^2 dr):     1405.492823
MG Discrepancy due to finite box and discretization:     -0.639491 (  -0.04548%)
MG Correction to account for finite box:                  0.456955
MG Remaining discrepancy, due to discretization:         -0.182536 (  -0.01298%)
============ Calculation of NGWF S^-1 using Hotelling algorithm ================ 
         Iteration  |  Frobenius norm and Maximum abs value    (of I-S*S_n^-1)   
               1       0.18447310E+01     0.41842033E-01
               2       0.70808264E-01     0.23622367E-02
               3       0.14373019E-03     0.84546969E-05
               4       0.11473126E-08     0.11909405E-09
               5       0.11398710E-12     0.53290705E-14
================================================================================
------------------------------- NGWF line search -------------------------------
RMS gradient                =       0.00159884962303
Trial step length           =               0.122474
Gradient along search dir.  =       -278.42686390127
Functional at step 0        =  -11604.47083071258385
Functional at step 1        =  -11635.94920994003769
Functional predicted        =  -11715.35068141316879
Selected quadratic step     =               0.796474
--------------------------- NGWF line search finished --------------------------
                                               
Writing NGWFs to file "complex_23661.vacuum_tightbox_ngwfs"....  done

>>> Optimising kernel for current NGWFs:
   Initial electron number for spin 1:    7268.25975811
     Final electron number for spin 1:    7234.00000000

=================== Penalty functional idempotency correction ==================
 RMS occupancy error at iteration   1:  0.004220 (step -0.4863 Ne1=   7234.0000)
 RMS occupancy error at iteration   2:  0.000068 (step -0.5003 Ne1=   7234.0000)
            Final RMS occupancy error   :  0.000000 (Ne1=   7234.0000)
               Final occupancy bounds   : [  0.0000,  1.0000]
================================================================================

................................................................................
<<<<<<<<<<<<<< LNV (Original version) density kernel optimisation >>>>>>>>>>>>>>
~~~~~~~~~~~~~~~~~~~~~~~~~~~~~~~~~~~~~~~~~~~~~~~~~~~~~~~~~~~~~~~~~~~~~~~~~~~~~~~~
   iter  |      energy (Eh)       | rms gradient |  commutator  |   dE (Eh)
MG BCs: +ve charge blocks (gridpoints):     25008 (   16869353).
MG BCs: -ve charge blocks (gridpoints):      8427 (    1079427).
MG BCs:     Elided blocks (gridpoints):    185037 (  188271045).
MG BCs: Computational effort saved:  99.9838%.
MG BCs: Charge after coarse-graining:           -9.0006958.
MG DL_MG: Calling solver with defect correction order = 8
MG DL_MG: Solver finished
MG Hartree energy from (\int phi*rho dr):              1251.996161
MG Hartree energy from (\int eps (grad phi)^2 dr):     1251.355699
MG Discrepancy due to finite box and discretization:     -0.640461 (  -0.05116%)
MG Correction to account for finite box:                  0.456807
MG Remaining discrepancy, due to discretization:         -0.183654 (  -0.01467%)
      ideal mu1:      -0.714959833685
             Q0:  -11714.555295675760
             G0:      -9.763463386757
   RMS gradient:       0.000477192138
MG BCs: +ve charge blocks (gridpoints):     25085 (   16888024).
MG BCs: -ve charge blocks (gridpoints):      8419 (    1074906).
MG BCs:     Elided blocks (gridpoints):    184960 (  188256895).
MG BCs: Computational effort saved:  99.9838%.
MG BCs: Charge after coarse-graining:           -9.0006904.
MG DL_MG: Calling solver with defect correction order = 8
MG DL_MG: Solver finished
MG Hartree energy from (\int phi*rho dr):              1272.693661
MG Hartree energy from (\int eps (grad phi)^2 dr):     1272.046019
MG Discrepancy due to finite box and discretization:     -0.647641 (  -0.05089%)
MG Correction to account for finite box:                  0.456456
MG Remaining discrepancy, due to discretization:         -0.191186 (  -0.01502%)
     Trial step:       0.902107518890
             Q1:  -11711.349404223729
 Quadratic coef:      12.013585183631
 Linear coef   :      -8.807693731600
           Qmin:  -11716.169623698659
Quadratic minimum step length (  0.330687576519) accepted
    Initial Ne1:    7233.99960261
      Final Ne1:    7234.00000000

=================== Penalty functional idempotency correction ==================
 RMS occupancy error at iteration   1:  0.000354 (step -0.4986 Ne1=   7234.0000)
 RMS occupancy error at iteration   2:  0.000000 (step -0.5000 Ne1=   7234.0000)
            Final RMS occupancy error   :  0.000000 (Ne1=   7234.0000)
               Final occupancy bounds   : [  0.0000,  1.0000]
================================================================================

    1        -1.171455529568E+04     4.7719E-04     4.3194E-04
MG BCs: +ve charge blocks (gridpoints):     25030 (   16876482).
MG BCs: -ve charge blocks (gridpoints):      8424 (    1077737).
MG BCs:     Elided blocks (gridpoints):    185015 (  188265606).
MG BCs: Computational effort saved:  99.9838%.
MG BCs: Charge after coarse-graining:           -9.0006937.
MG DL_MG: Calling solver with defect correction order = 8
MG DL_MG: Solver finished
MG Hartree energy from (\int phi*rho dr):              1258.215353
MG Hartree energy from (\int eps (grad phi)^2 dr):     1257.572400
MG Discrepancy due to finite box and discretization:     -0.642953 (  -0.05110%)
MG Correction to account for finite box:                  0.456651
MG Remaining discrepancy, due to discretization:         -0.186302 (  -0.01481%)
      ideal mu1:      -0.722068030271
             Q0:  -11716.131454108516
             G0:      -0.985685411661
   RMS gradient:       0.000152919781
MG BCs: +ve charge blocks (gridpoints):     25034 (   16876109).
MG BCs: -ve charge blocks (gridpoints):      8427 (    1078632).
MG BCs:     Elided blocks (gridpoints):    185011 (  188265084).
MG BCs: Computational effort saved:  99.9838%.
MG BCs: Charge after coarse-graining:           -9.0006936.
MG DL_MG: Calling solver with defect correction order = 8
MG DL_MG: Solver finished
MG Hartree energy from (\int phi*rho dr):              1259.443227
MG Hartree energy from (\int eps (grad phi)^2 dr):     1258.799852
MG Discrepancy due to finite box and discretization:     -0.643375 (  -0.05108%)
MG Correction to account for finite box:                  0.456659
MG Remaining discrepancy, due to discretization:         -0.186716 (  -0.01483%)
     Trial step:       0.546182889865
             Q1:  -11716.321548881475
 Quadratic coef:       0.348269733679
 Linear coef   :      -0.538364506638
           Qmin:  -11716.339508609080
Quadratic minimum step length (  0.422151932255) accepted
    Initial Ne1:    7233.99994789
      Final Ne1:    7234.00000000

=================== Penalty functional idempotency correction ==================
 RMS occupancy error at iteration   1:  0.000141 (step -0.4994 Ne1=   7234.0000)
            Final RMS occupancy error   :  0.000000 (Ne1=   7234.0000)
               Final occupancy bounds   : [ -0.0000,  1.0000]
================================================================================

    2        -1.171613145411E+04     1.5292E-04     1.3842E-04    -1.5762E+00
MG BCs: +ve charge blocks (gridpoints):     25034 (   16876063).
MG BCs: -ve charge blocks (gridpoints):      8426 (    1078503).
MG BCs:     Elided blocks (gridpoints):    185011 (  188265259).
MG BCs: Computational effort saved:  99.9838%.
MG BCs: Charge after coarse-graining:           -9.0006937.
MG DL_MG: Calling solver with defect correction order = 8
MG DL_MG: Solver finished
MG Hartree energy from (\int phi*rho dr):              1259.163641
MG Hartree energy from (\int eps (grad phi)^2 dr):     1258.520365
MG Discrepancy due to finite box and discretization:     -0.643276 (  -0.05109%)
MG Correction to account for finite box:                  0.456657
MG Remaining discrepancy, due to discretization:         -0.186619 (  -0.01482%)
      ideal mu1:      -0.722964668282
             Q0:  -11716.339995371643
             G0:      -0.145469518626
   RMS gradient:       0.000058180668
MG BCs: +ve charge blocks (gridpoints):     25036 (   16875554).
MG BCs: -ve charge blocks (gridpoints):      8425 (    1078824).
MG BCs:     Elided blocks (gridpoints):    185009 (  188265447).
MG BCs: Computational effort saved:  99.9838%.
MG BCs: Charge after coarse-graining:           -9.0006936.
MG DL_MG: Calling solver with defect correction order = 8
MG DL_MG: Solver finished
MG Hartree energy from (\int phi*rho dr):              1258.674973
MG Hartree energy from (\int eps (grad phi)^2 dr):     1258.031733
MG Discrepancy due to finite box and discretization:     -0.643239 (  -0.05110%)
MG Correction to account for finite box:                  0.456647
MG Remaining discrepancy, due to discretization:         -0.186592 (  -0.01482%)
     Trial step:       0.480179302262
             Q1:  -11716.384417718160
 Quadratic coef:       0.025429105437
 Linear coef   :      -0.069851451954
           Qmin:  -11716.387964276331
Quadratic minimum step length (  0.659504549706) accepted
    Initial Ne1:    7234.00059588
      Final Ne1:    7234.00000000

=================== Penalty functional idempotency correction ==================
 RMS occupancy error at iteration   1:  0.000061 (step -0.4998 Ne1=   7234.0000)
            Final RMS occupancy error   :  0.000000 (Ne1=   7234.0000)
               Final occupancy bounds   : [ -0.0000,  1.0000]
================================================================================

    3        -1.171633999537E+04     5.8181E-05     5.2663E-05    -2.0854E-01
MG BCs: +ve charge blocks (gridpoints):     25035 (   16875310).
MG BCs: -ve charge blocks (gridpoints):      8426 (    1078972).
MG BCs:     Elided blocks (gridpoints):    185010 (  188265543).
MG BCs: Computational effort saved:  99.9838%.
MG BCs: Charge after coarse-graining:           -9.0006937.
MG DL_MG: Calling solver with defect correction order = 8
MG DL_MG: Solver finished
MG Hartree energy from (\int phi*rho dr):              1258.492543
MG Hartree energy from (\int eps (grad phi)^2 dr):     1257.849317
MG Discrepancy due to finite box and discretization:     -0.643226 (  -0.05111%)
MG Correction to account for finite box:                  0.456644
MG Remaining discrepancy, due to discretization:         -0.186582 (  -0.01483%)
      ideal mu1:      -0.721990607282
             Q0:  -11716.388049339876
             G0:      -0.036187744499
   RMS gradient:       0.000029010820
MG BCs: +ve charge blocks (gridpoints):     25037 (   16875150).
MG BCs: -ve charge blocks (gridpoints):      8425 (    1079000).
MG BCs:     Elided blocks (gridpoints):    185008 (  188265675).
MG BCs: Computational effort saved:  99.9838%.
MG BCs: Charge after coarse-graining:           -9.0006937.
MG DL_MG: Calling solver with defect correction order = 8
MG DL_MG: Solver finished
MG Hartree energy from (\int phi*rho dr):              1258.514420
MG Hartree energy from (\int eps (grad phi)^2 dr):     1257.871292
MG Discrepancy due to finite box and discretization:     -0.643128 (  -0.05110%)
MG Correction to account for finite box:                  0.456651
MG Remaining discrepancy, due to discretization:         -0.186477 (  -0.01482%)
     Trial step:       0.562743666794
             Q1:  -11716.397167765303
 Quadratic coef:       0.011245998605
 Linear coef   :      -0.020364424032
           Qmin:  -11716.397268391485
Quadratic minimum step length (  0.509512363228) accepted
    Initial Ne1:    7234.00022672
      Final Ne1:    7234.00000000

=================== Penalty functional idempotency correction ==================
 RMS occupancy error at iteration   1:  0.000019 (step -0.4999 Ne1=   7234.0000)
            Final RMS occupancy error   :  0.000000 (Ne1=   7234.0000)
               Final occupancy bounds   : [ -0.0000,  1.0000]
================================================================================

    4        -1.171638804934E+04     2.9011E-05     2.6260E-05    -4.8054E-02
MG BCs: +ve charge blocks (gridpoints):     25037 (   16875171).
MG BCs: -ve charge blocks (gridpoints):      8425 (    1079002).
MG BCs:     Elided blocks (gridpoints):    185008 (  188265652).
MG BCs: Computational effort saved:  99.9838%.
MG BCs: Charge after coarse-graining:           -9.0006937.
MG DL_MG: Calling solver with defect correction order = 8
MG DL_MG: Solver finished
MG Hartree energy from (\int phi*rho dr):              1258.512191
MG Hartree energy from (\int eps (grad phi)^2 dr):     1257.869054
MG Discrepancy due to finite box and discretization:     -0.643137 (  -0.05110%)
MG Correction to account for finite box:                  0.456650
MG Remaining discrepancy, due to discretization:         -0.186487 (  -0.01482%)
      ideal mu1:      -0.721995862608
             Q0:  -11716.397273691138
             G0:      -0.012850681670
   RMS gradient:       0.000017308712
MG BCs: +ve charge blocks (gridpoints):     25036 (   16875726).
MG BCs: -ve charge blocks (gridpoints):      8424 (    1078815).
MG BCs:     Elided blocks (gridpoints):    185009 (  188265284).
MG BCs: Computational effort saved:  99.9838%.
MG BCs: Charge after coarse-graining:           -9.0006936.
MG DL_MG: Calling solver with defect correction order = 8
MG DL_MG: Solver finished
MG Hartree energy from (\int phi*rho dr):              1258.924809
MG Hartree energy from (\int eps (grad phi)^2 dr):     1258.281718
MG Discrepancy due to finite box and discretization:     -0.643092 (  -0.05108%)
MG Correction to account for finite box:                  0.456640
MG Remaining discrepancy, due to discretization:         -0.186451 (  -0.01481%)
     Trial step:       0.535466950950
             Q1:  -11716.401006808621
 Quadratic coef:       0.003147997848
 Linear coef   :      -0.006881115331
           Qmin:  -11716.401033997729
Quadratic minimum step length (  0.585230680527) accepted
    Initial Ne1:    7234.00011081
      Final Ne1:    7234.00000000

=================== Penalty functional idempotency correction ==================
 RMS occupancy error at iteration   1:  0.000012 (step -0.4999 Ne1=   7234.0000)
            Final RMS occupancy error   :  0.000000 (Ne1=   7234.0000)
               Final occupancy bounds   : [ -0.0000,  1.0000]
================================================================================

    5        -1.171639727369E+04     1.7309E-05     1.5667E-05    -9.2244E-03
MG BCs: +ve charge blocks (gridpoints):     25036 (   16875773).
MG BCs: -ve charge blocks (gridpoints):      8424 (    1078799).
MG BCs:     Elided blocks (gridpoints):    185009 (  188265253).
MG BCs: Computational effort saved:  99.9838%.
MG BCs: Charge after coarse-graining:           -9.0006936.
MG DL_MG: Calling solver with defect correction order = 8
MG DL_MG: Solver finished
MG Hartree energy from (\int phi*rho dr):              1258.963189
MG Hartree energy from (\int eps (grad phi)^2 dr):     1258.320102
MG Discrepancy due to finite box and discretization:     -0.643087 (  -0.05108%)
MG Correction to account for finite box:                  0.456639
MG Remaining discrepancy, due to discretization:         -0.186448 (  -0.01481%)
      ideal mu1:      -0.722361946932
             Q0:  -11716.401035332121
             G0:      -0.004886314898
   RMS gradient:       0.000010673690
MG BCs: +ve charge blocks (gridpoints):     25036 (   16875764).
MG BCs: -ve charge blocks (gridpoints):      8424 (    1078828).
MG BCs:     Elided blocks (gridpoints):    185009 (  188265233).
MG BCs: Computational effort saved:  99.9838%.
MG BCs: Charge after coarse-graining:           -9.0006936.
MG DL_MG: Calling solver with defect correction order = 8
MG DL_MG: Solver finished
MG Hartree energy from (\int phi*rho dr):              1258.930883
MG Hartree energy from (\int eps (grad phi)^2 dr):     1258.287804
MG Discrepancy due to finite box and discretization:     -0.643079 (  -0.05108%)
MG Correction to account for finite box:                  0.456636
MG Remaining discrepancy, due to discretization:         -0.186444 (  -0.01481%)
     Trial step:       0.559796112977
             Q1:  -11716.402838185430
 Quadratic coef:       0.000932486779
 Linear coef   :      -0.002735340087
           Qmin:  -11716.403041281577
Quadratic minimum step length (  0.821047967216) accepted
    Initial Ne1:    7234.00009443
      Final Ne1:    7234.00000000

=================== Penalty functional idempotency correction ==================
 RMS occupancy error at iteration   1:  0.000013 (step -0.4996 Ne1=   7234.0000)
            Final RMS occupancy error   :  0.000000 (Ne1=   7234.0000)
               Final occupancy bounds   : [ -0.0000,  1.0000]
================================================================================

    6        -1.171640103533E+04     1.0674E-05     9.6615E-06    -3.7616E-03
MG BCs: +ve charge blocks (gridpoints):     25036 (   16875778).
MG BCs: -ve charge blocks (gridpoints):      8424 (    1078840).
MG BCs:     Elided blocks (gridpoints):    185009 (  188265207).
MG BCs: Computational effort saved:  99.9838%.
MG BCs: Charge after coarse-graining:           -9.0006935.
MG DL_MG: Calling solver with defect correction order = 8
MG DL_MG: Solver finished
MG Hartree energy from (\int phi*rho dr):              1258.915655
MG Hartree energy from (\int eps (grad phi)^2 dr):     1258.272579
MG Discrepancy due to finite box and discretization:     -0.643076 (  -0.05108%)
MG Correction to account for finite box:                  0.456634
MG Remaining discrepancy, due to discretization:         -0.186442 (  -0.01481%)
      ideal mu1:      -0.722274880023
             Q0:  -11716.403040462523
             G0:      -0.004061498966
   RMS gradient:       0.000009732726
MG BCs: +ve charge blocks (gridpoints):     25036 (   16875449).
MG BCs: -ve charge blocks (gridpoints):      8424 (    1078919).
MG BCs:     Elided blocks (gridpoints):    185009 (  188265457).
MG BCs: Computational effort saved:  99.9838%.
MG BCs: Charge after coarse-graining:           -9.0006936.
MG DL_MG: Calling solver with defect correction order = 8
MG DL_MG: Solver finished
MG Hartree energy from (\int phi*rho dr):              1258.760140
MG Hartree energy from (\int eps (grad phi)^2 dr):     1258.117049
[...]
MG DL_MG: Calling solver with defect correction order = 8
MG DL_MG: Solver finished
MG Hartree energy from (\int phi*rho dr):              1216.138270
MG Hartree energy from (\int eps (grad phi)^2 dr):     1215.947059
MG Discrepancy due to finite box and discretization:     -0.191211 (  -0.01572%)
MG Correction to account for finite box:                  0.006259
MG Remaining discrepancy, due to discretization:         -0.184952 (  -0.01521%)
             Q2:  -11750.872750422335
  Cubic LS coeff:       0.941050797778
Predicted energy:  -11750.872750422330
Cubic minimum step length accepted
    Initial Ne1:    7234.00000000
      Final Ne1:    7234.00000000

=================== Penalty functional idempotency correction ==================
 RMS occupancy error at iteration   1:  0.000000 (step -0.5000 Ne1=   7234.0000)
            Final RMS occupancy error   :  0.000000 (Ne1=   7234.0000)
               Final occupancy bounds   : [  0.0000,  1.0000]
================================================================================

    7        -1.175087275042E+04     7.8157E-09     7.0745E-09    -1.5134E-09

Reusing previously generated solute cavity.
MG BCs: +ve charge blocks (gridpoints):     29494 (   19163655).
MG BCs: -ve charge blocks (gridpoints):      8403 (    1048119).
MG BCs:     Elided blocks (gridpoints):    180551 (  186008051).
MG BCs: Computational effort saved:  99.9816%.
MG BCs: Charge after coarse-graining:           -9.0009880.
MG DL_MG: Calling solver with defect correction order = 8
MG DL_MG: Solver finished
MG Hartree energy from (\int phi*rho dr):              1216.138270
MG Hartree energy from (\int eps (grad phi)^2 dr):     1215.947059
MG Discrepancy due to finite box and discretization:     -0.191211 (  -0.01572%)
MG Correction to account for finite box:                  0.006259
MG Remaining discrepancy, due to discretization:         -0.184952 (  -0.01521%)
      ideal mu1:      -0.481609667997
             Q0:  -11750.872750422452
             G0:      -0.000000003374
   RMS gradient:       0.000000008741

Reusing previously generated solute cavity.
MG BCs: +ve charge blocks (gridpoints):     29494 (   19163655).
MG BCs: -ve charge blocks (gridpoints):      8403 (    1048119).
MG BCs:     Elided blocks (gridpoints):    180551 (  186008051).
MG BCs: Computational effort saved:  99.9816%.
MG BCs: Charge after coarse-graining:           -9.0009880.
MG DL_MG: Calling solver with defect correction order = 8
MG DL_MG: Solver finished
MG Hartree energy from (\int phi*rho dr):              1216.138244
MG Hartree energy from (\int eps (grad phi)^2 dr):     1215.947033
MG Discrepancy due to finite box and discretization:     -0.191211 (  -0.01572%)
MG Correction to account for finite box:                  0.006259
MG Remaining discrepancy, due to discretization:         -0.184952 (  -0.01521%)
     Trial step:       0.662703441528
             Q1:  -11750.872750423732
 Quadratic coef:       0.000000000955
 Linear coef   :      -0.000000002236
           Qmin:  -11750.872750423761
Quadratic minimum step length (  0.775849338188) accepted
    Initial Ne1:    7234.00000000
      Final Ne1:    7234.00000000

=================== Penalty functional idempotency correction ==================
 RMS occupancy error at iteration   1:  0.000000 (step -0.5000 Ne1=   7234.0000)
            Final RMS occupancy error   :  0.000000 (Ne1=   7234.0000)
               Final occupancy bounds   : [  0.0000,  1.0000]
================================================================================

    8        -1.175087275042E+04     8.7407E-09     7.9118E-09    -3.2596E-09

Reusing previously generated solute cavity.
MG BCs: +ve charge blocks (gridpoints):     29494 (   19163655).
MG BCs: -ve charge blocks (gridpoints):      8403 (    1048119).
MG BCs:     Elided blocks (gridpoints):    180551 (  186008051).
MG BCs: Computational effort saved:  99.9816%.
MG BCs: Charge after coarse-graining:           -9.0009880.
MG DL_MG: Calling solver with defect correction order = 8
MG DL_MG: Solver finished
MG Hartree energy from (\int phi*rho dr):              1216.138240
MG Hartree energy from (\int eps (grad phi)^2 dr):     1215.947029
MG Discrepancy due to finite box and discretization:     -0.191211 (  -0.01572%)
MG Correction to account for finite box:                  0.006259
MG Remaining discrepancy, due to discretization:         -0.184952 (  -0.01521%)
      ideal mu1:      -0.481609636702
             Q0:  -11750.872750423732
             G0:      -0.000000001542
   RMS gradient:       0.000000005234

Reusing previously generated solute cavity.
MG BCs: +ve charge blocks (gridpoints):     29494 (   19163655).
MG BCs: -ve charge blocks (gridpoints):      8403 (    1048119).
MG BCs:     Elided blocks (gridpoints):    180551 (  186008051).
MG BCs: Computational effort saved:  99.9816%.
MG BCs: Charge after coarse-graining:           -9.0009880.
MG DL_MG: Calling solver with defect correction order = 8
MG DL_MG: Solver finished
MG Hartree energy from (\int phi*rho dr):              1216.138248
MG Hartree energy from (\int eps (grad phi)^2 dr):     1215.947037
MG Discrepancy due to finite box and discretization:     -0.191211 (  -0.01572%)
MG Correction to account for finite box:                  0.006259
MG Remaining discrepancy, due to discretization:         -0.184952 (  -0.01521%)
     Trial step:       0.717048134036
             Q1:  -11750.872750423616
 Quadratic coef:       0.000000001222
 Linear coef   :      -0.000000001105
           Qmin:  -11750.872750423981
Quadratic minimum step length (  0.324224093188) accepted
    Initial Ne1:    7234.00000000
      Final Ne1:    7234.00000000

=================== Penalty functional idempotency correction ==================
 RMS occupancy error at iteration   1:  0.000000 (step -0.5000 Ne1=   7234.0000)
            Final RMS occupancy error   :  0.000000 (Ne1=   7234.0000)
               Final occupancy bounds   : [  0.0000,  1.0000]
================================================================================

    9        -1.175087275042E+04     5.2337E-09     4.7374E-09    -1.2806E-09

Reusing previously generated solute cavity.
MG BCs: +ve charge blocks (gridpoints):     29494 (   19163655).
MG BCs: -ve charge blocks (gridpoints):      8403 (    1048119).
MG BCs:     Elided blocks (gridpoints):    180551 (  186008051).
MG BCs: Computational effort saved:  99.9816%.
MG BCs: Charge after coarse-graining:           -9.0009880.
MG DL_MG: Calling solver with defect correction order = 8
MG DL_MG: Solver finished
MG Hartree energy from (\int phi*rho dr):              1216.138243
MG Hartree energy from (\int eps (grad phi)^2 dr):     1215.947033
MG Discrepancy due to finite box and discretization:     -0.191211 (  -0.01572%)
MG Correction to account for finite box:                  0.006259
MG Remaining discrepancy, due to discretization:         -0.184952 (  -0.01521%)
      ideal mu1:      -0.481609640065
   10        -1.175087275042E+04     3.5559E-09     3.2187E-09     0.0000E+00
Finished density kernel iterations (  10)

Writing density kernel to file "complex_23661.dkn" ... done


>>> Density kernel optimised for the current NGWF basis:
     ~~~~~~~~~~~~~~~~~~~~~~~~~~~~~~~~~~~~~~~~~~~~~~~~~~~~~~~~~~~
     Total energy                =  -1.17508727504237E+04  Eh
     Estimated bandgap           =   8.2279E-02  Eh
     RMS occupancy error         =   3.7088E-16
     [H,K] commutator            =   3.2187E-09
     Occupancy bounds            = [  0.000:  1.000]
     ~~~~~~~~~~~~~~~~~~~~~~~~~~~~~~~~~~~~~~~~~~~~~~~~~~~~~~~~~~~




################################################################################
########################### NGWF CG iteration  004 #############################
################################################################################
****** Reciprocal space K.E. preconditioning with k_zero =  3.5000 a0^-1 *******

>>> Checking for convergence of NGWFs: 
           ........................................................
           |         *** NGWF optimisation converged ***          |
           | RMS NGWF gradient =    0.00000174833569              |
           | Criteria satisfied:                                  |
           | -> RMS NGWF gradient lower than set threshold.       |
           ========================================================

Reusing previously generated solute cavity.
MG BCs: +ve charge blocks (gridpoints):     29494 (   19163655).
MG BCs: -ve charge blocks (gridpoints):      8403 (    1048119).
MG BCs:     Elided blocks (gridpoints):    180551 (  186008051).
MG BCs: Computational effort saved:  99.9816%.
MG BCs: Charge after coarse-graining:           -9.0009880.
MG DL_MG: Calling solver with defect correction order = 8
MG DL_MG: Solver finished
MG Hartree energy from (\int phi*rho dr):              1216.138243
MG Hartree energy from (\int eps (grad phi)^2 dr):     1215.947033
MG Discrepancy due to finite box and discretization:     -0.191211 (  -0.01572%)
MG Correction to account for finite box:                  0.006259
MG Remaining discrepancy, due to discretization:         -0.184952 (  -0.01521%)

================================================================================
           ---------------- ENERGY COMPONENTS (Eh) ----------------
           | Kinetic                    :     8580.87919884520670 |
           | Pseudo. (local,OBC,corr'd) :    -5083.53671557987127 |
           | Pseudopotential (non-local):     1412.53023103411988 |
           | Hartree (molecular)        :     1216.13824347325567 |
           | Exchange-correlation       :    -3377.56398611983286 |
           | Ion-ion (open BC)          :   828858.90167893888429 |
           | Dispersion Correction      :       -3.31742496265004 |
           | Smeared ion non-self corr. :  -828810.61402858584188 |
           | Smeared ion self corr.     :   -14544.93686558573609 |
           | Solvent cavitation energy  :        2.30158540839425 |
           | Solute-solvent dis-rep en. :       -1.65466728972983 |
           | Total                      :   -11750.87275042376859 |
           --------------------------------------------------------
           ------ LOCAL ENERGY COMPONENTS FROM MATRIX TRACES ------
           | Pseudopotential (local)    :    -5083.53671557988491 |
           | Hartree                    :    -2003.30402685217632 |
           --------------------------------------------------------
           Integrated density           :     7233.99999999804641
           Integrated density tr(KS)    :     7234.00000000000000
================================================================================


                        <<<<< CALCULATION SUMMARY >>>>>                         
|ITER|    RMS GRADIENT   |     TOTAL ENERGY    |   step   |     Epredicted              
   0     0.00004277546504 -11750.79859942104667   0.647346 -11750.86310424064504        
   1     0.00000832574863 -11750.87247389717959   0.060271 -11750.87270141680165        
   2     0.00000379960150 -11750.87273970607203   0.011952 -11750.87274910280939        
   3     0.00000174833569 -11750.87275042373221  <-- CG                                 

=================== Finished the calculation in solvent ========================
= Adjusting the following parameters: 
= read_denskern: F
= read_tightbox_ngwfs: F
= maxit_pen: 0 (restored to user-specified value)
= restart read filename prefix: ""
= restart write filename prefix: ""
================================================================================

================================================================================
IS: Calculation in solvent completed (NGWFs converged).      

Individual components of total energy in solvent:     hartree           kcal/mol
- Usual non-electrostatic DFT terms:    -12967.65791201565298    -8137328.019659
- Electrostatic fixed charge energy:      1216.13824347325567      763138.252994
- Apolar cavitation energy:                  2.30158540839425        1444.266618
- Apolar dispersion-repulsion energy:       -1.65466728972983       -1038.319378
 -------------------------------------------------------------------------------
- Total energy in solvent:              -11750.87275042373221    -7373783.819426

Components of total energy in solvent:                hartree           kcal/mol
- Usual non-electrostatic DFT terms:    -12967.65791201565298    -8137328.019659
- Electrostatic energy:                   1216.13824347325567      763138.252994
- Apolar energy terms:                       0.64691811866441         405.947240
 -------------------------------------------------------------------------------
- Total energy in solvent:              -11750.87275042373221    -7373783.819426

Calculation of free energy of solvation:              hartree           kcal/mol
- Total energy in solvent:         (+)  -11750.87275042373221    -7373783.819426
- Total energy in vacuum:          (-)  -11746.78623659978621    -7371219.493341
 -------------------------------------------------------------------------------
- Total free energy of solvation:           -4.08651382394601       -2564.326085

Components of polar term in f.e. of solvation:        hartree           kcal/mol
- Electrostatic:                            -4.77576427926169       -2996.837266
- Change in nonelectrostatic DFT terms:      0.04233233665036          26.563942
 -------------------------------------------------------------------------------
- Polar term in f.e. of solvation:          -4.73343194261133       -2970.273324

Components of free energy of solvation:               hartree           kcal/mol
- Polar term in f.e. of solvation: (+)      -4.73343194261133       -2970.273324
- Apolar (cavitation, dis., rep.): (+)       0.64691811866441         405.947240
 -------------------------------------------------------------------------------
- Total free energy of solvation:           -4.08651382394692       -2564.326085
================================================================================


------------------------------ TIMING INFORMATION ------------------------------
AVERAGE TIME:   26340.918s on     40 node(s)                                    
TOTAL TIME:     26340.918s on     40 node(s)                                    
================= AVERAGE TIMINGS FROM ALL NODES (CUMULATIVE) ==================
|| TAG                                    #calls    cpu time   %total  Gflops ||
|| work_imbalance                       :     1        0.00s   0.000%  ------ ||
|| parallel_prepare_fd_halos_request    :  1827        0.01s   0.000%  ------ ||
|| sparse_set_to_garbage                :   164        0.04s   0.000%  ------ ||
|| parallel_prepare_fd_halos_satisfy    :  1827        0.06s   0.000%  ------ ||
|| ngwfs_initialise_from_radial         :     1        0.17s   0.001%  ------ ||
|| parallel_prepare_fd_halos_alloc      :  1827        0.19s   0.001%  ------ ||
|| basis_extract_function_from_box      :  5074        0.20s   0.001%  ------ ||
|| pseudopotentials_nonlocal_mat        :    28        1.00s   0.004%  ------ ||
|| parallel_prepare_fd_halos_comms_imbal:  1827        3.11s   0.012%  ------ ||
|| restart_ngwfs_tightbox_input         :     1        4.06s   0.015%  ------ ||
|| density_init_guess_real              :     1        4.73s   0.018%  ------ ||
|| restart_kernel_read                  :     1        5.89s   0.022%  ------ ||
|| openbc_locps_radial                  :     1        6.23s   0.024%  ------ ||
|| parallel_prepare_fd_halos_clear      :  1827       13.49s   0.051%  ------ ||
|| projectors_func_ovlp_box             :    28       21.55s   0.082%  ------ ||
|| sparse_init                          :     2       22.86s   0.087%  ------ ||
|| parallel_prepare_fd_halos_comms_wait :  1827       23.29s   0.088%  ------ ||
|| projectors_init_fftbox_recip         :   193       25.61s   0.097%  ------ ||
|| function_ops_brappd_ketppd           :    28       26.08s   0.099%  ------ ||
|| palser_mano_kernel_optimise          :     1       39.69s   0.151%  ------ ||
|| parallel_prepare_fd_halos            :  1827       40.16s   0.152%  ------ ||
|| fourier_apply_box_pair               :  7207       50.01s   0.190% 556.152 ||
|| basis_copy_function_to_box           : 82341       51.99s   0.197%  ------ ||
|| ngwf_gradient_coeffs                 :    15       59.49s   0.226%  ------ ||
|| pseudo_make_structure_factor         :     2       63.58s   0.241%  ------ ||
|| sparse_embed_hotelling_invert_embed  :    28       92.46s   0.351%  ------ ||
|| finite_difference_derivative         :  1827      109.72s   0.417%  ------ ||
|| restart_kernel_write                 :    16      133.29s   0.506%  ------ ||
|| integrals_kinetic                    :    28      152.38s   0.579%  ------ ||
|| projectors_gradient_batch            :   165      199.11s   0.756%  ------ ||
|| openbc_locps_on_grid                 :     2      202.80s   0.770%  ------ ||
|| fourier_apply_cell_backward          :  1219      215.19s   0.817%  83.002 ||
|| fourier_apply_cell_forward           :  1217      228.46s   0.867%  78.052 ||
|| restart_ngwfs_tightbox_output        :    13      244.10s   0.927%  ------ ||
|| basis_dot_function_with_box          : 12.74M     251.75s   0.956%  ------ ||
|| sparse_trace                         :  4995      253.16s   0.961%  ------ ||
|| kernel_purify                        :   464      324.03s   1.230%  ------ ||
|| hamiltonian_energy_components        :     4      432.52s   1.642%  ------ ||
|| xc_energy_potential                  :   304      518.61s   1.969%  ------ ||
|| basis_add_function_to_box            : 26.51M     520.39s   1.976%  ------ ||
|| lnv_gradient_norm                    :   150      551.52s   2.094%  ------ ||
|| kernel_fix                           :   150      613.25s   2.328%  ------ ||
|| ngwf_gradient_build_batch            :   165      716.22s   2.719%  ------ ||
|| cell_grid_deposit_box_real           : 51584      817.43s   3.103%  ------ ||
|| integrals_locpot_mat_els_batch       :  1749      860.87s   3.268%  ------ ||
|| cell_grid_extract_box_real           : 48904      944.13s   3.584%  ------ ||
|| ngwf_gradient_batch                  :   165      999.47s   3.794%  ------ ||
|| ngwf_gradient_lnv                    :    15     1150.51s   4.368%  ------ ||
|| density_batch_row_sums               :  3333     1193.45s   4.531%  ------ ||
|| density_fftbox_deposit_to_cell       : 49692     1374.70s   5.219%  ------ ||
|| sparse_product                       :  6241     2052.86s   7.793%  ------ ||
|| multigrid_prepare_bound_cond         :   304     2442.83s   9.274%  ------ ||
|| potential_apply_to_ngwf_batch        :  1749     3067.09s  11.644%  ------ ||
|| density_fftbox_interpolate_multiply  : 49692     3464.73s  13.153%  ------ ||
|| fourier_apply_box                    : 171.8k    3478.49s  13.206% 924.391 ||
|| integrals_locpot_dbl_grid            :   159     3952.69s  15.006%  ------ ||
|| density_batch_interp_deposit         :  3333     5432.33s  20.623%  ------ ||
|| density_on_dbl_grid                  :   303     6996.34s  26.561%  ------ ||
|| dl_mg_solver_calls                   :   304     7058.18s  26.796%  ------ ||
|| multigrid_calculate_hartree          :   304     9653.46s  36.648%  ------ ||
|| hamiltonian_lhxc_calculate           :   299    17175.78s  65.206%  ------ ||
|| lnv_denskernel_optimise_cg           :    15    22504.59s  85.436%  ------ ||
|| ngwf_cg_optimise                     :     2    25485.81s  96.754%  ------ ||
|| total_time                           :     1    26340.92s 100.000%  ------ ||
================================================================================
Overhead of generating timer report: 
- 3 ms averaging over threads,
- 7 ms ensuring consistency across MPI ranks,
- 4 ms printing in order.

Job completed: 30-04-2020 13:40 (+0100)

