 +---------------------------------------------------------------+
 |                                                               |
 |        ####### #     # ####### ####### ####### ######         |
 |        #     # ##    # #          #    #       #     #        |
 |        #     # # #   # #          #    #       #     #        |
 |        #     # #  #  # #####      #    #####   ######         |
 |        #     # #   # # #          #    #       #              |
 |        #     # #    ## #          #    #       #              |
 |        ####### #     # #######    #    ####### #              |
 |                                                               |
 |        Linear-Scaling Ab Initio Total Energy Program          |
 |                                                               |
 |          Release for academic collaborators of ODG            |
 |                                             Version 5.3.2.6.  |
 |                                                               |
 +---------------------------------------------------------------+
 |                                                               |
 |  Authors:                                                     |
 |  Jacek Dziedzic, Peter D. Haynes, Nicholas D. M. Hine,        |
 |  Arash. A. Mostofi, Mike C. Payne and Chris-Kriton Skylaris   |
 |                                                               |
 |  Contributors:                                                |
 |  J. Aarons, L. Andrinopoulos, P. W. Avraam, R. A. Bell,       |
 |  A. Bhandari, G. A. Bramley, R. J. Charlton, S. J. Clark,     |
 |  R. J. Clements, G. C. Constantinescu, F. Corsetti,           |
 |  N. Corsini, O. Dieguez, S. M. M. Dubois, K. K. B. Duff,      |
 |  J. M. Escartin, A. Greco, H. Helal, Q. O. Hill, L. P. Lee,   |
 |  J.-H. Li, E. B. Linscott, G. Moynihan, D. D. O`Regan,        |
 |  O. K. Okan, M. J. S. Phipps, C. J. Pickard,                  |
 |  J. C. A. Prentice, M. I. J. Probert, L. E. Ratcliff,         |
 |  M. Robinson, A. Ruiz Serrano, J. S. Spencer, E. W. Tait,     |
 |  G. Teobaldi, D. Turban, V. Vitale, K. A. Wilkinson,          |
 |  C. Weber, J. C. Womack, N. Yeung and T. J. Zuehlsdorff       |
 |                                                               |
 |                                   Copyright (c) 2004-2019     |
 |                                                               |
 |  Please cite:                                                 |
 |  "Introducing ONETEP: Linear-scaling density functional       |
 |   simulations on parallel computers".                         |
 |   C.-K. Skylaris, P. D. Haynes, A. A. Mostofi, M. C. Payne.   |
 |   J. Chem. Phys. 122 084119 (2005).                           |
 |                                                               |
 |          in all publications arising from your use of ONETEP. |
 |                                                               |
 +---------------------------------------------------------------+
 |                                                               |
 |   ONETEP is based on developments described in the following  |
 |   publications:                                               |
 |                                                               |
 |  "Nonorthogonal generalized Wannier function pseudopotential  |
 |   plane-wave method".                                         |
 |   C.-K. Skylaris, A. A. Mostofi, P. D. Haynes, O. Dieguez,    |
 |   M. C. Payne.                                                |
 |   Phys. Rev. B 66 035119 (2002).                              |
 |                                                               |
 |  "Preconditioned iterative minimization for linear-scaling    |
 |   electronic structure calculations".                         |
 |   A. A. Mostofi, P. D. Haynes, C.-K. Skylaris, M. C. Payne.   |
 |   J. Chem. Phys. 119(17), pp.8842-8848 (2003).                |
 |                                                               |
 |  "Total-energy calculations on a real space grid with         |
 |   localized functions and a plane-wave basis".                |
 |   A. A. Mostofi, C.-K. Skylaris, P. D. Haynes, M. C. Payne.   |
 |   Comput. Phys. Commun. 147, pp.788-802 (2002).               |
 |                                                               |
 |  "Accurate kinetic energy evaluation in electronic structure  |
 |   calculations with localized functions on real space grids"  |
 |   C.-K. Skylaris, A. A. Mostofi, P. D. Haynes, C. J. Pickard, |
 |   M. C. Payne.                                                |
 |   Comput. Phys. Commun. 140, pp.315-322 (2001).               |
 |                                                               |
 |  "Accurate ionic forces and geometry optimization in linear-  |
 |   scaling density-functional theory with local orbitals"      |
 |   N. D. M. Hine, M. Robinson, P. D. Haynes, C.-K. Skylaris,   |
 |   M. C. Payne, and A. A. Mostofi.                             |
 |   Phys. Rev. B 83 195102 (2011).                              |
 |                                                               |
 +---------------------------------------------------------------+

Job started: 16-03-2020 08:54 (-0000)
 
Reading parameters from file "host_17961.dat" ...... done

If your calculation crashes here, before "Checking processes and threads..."
is displayed, then your stack size is insufficient.
If so, use "ulimit -s unlimited" at runtime.
You can disable this check with "check_stack_size F".

Checking processes and threads...
   Determining the default number of threads...
      No default threads set at compilation time: defaulting to 1.
      OpenMP library call suggests 4 threads.
      Hybrid MPI-OpenMP compilation detected.
      Number of MPI processes > 1.
      OMP_NUM_THREADS environment variable present and
      its value matches the one obtained from the OpenMP library call.
      Using this value as default.
      Default threads: 4
      Default applies to threads_max and threads_num_fftboxes.
      Settings in the input file override this default.
   ... done

   Running with 60 MPI processes.
   There are 6 MPI processes running on the same node as the root process.
   Each MPI process is using: 
               1 threads for simulation cell FFTs.
               1 threads for parallel FFT box operations.
               4 threads for loops over batched FFT box operations.
               4 threads in other parallel regions.
... done

Basic input checks...... done

Reading geometry and species blocks from file "host_17961.dat" ...
  <species_atomic_set> block not found: NGWF initialisation set to SOLVE
IS: Dielectric excluded regions:
    - NONE.
    
  Number of PPD points along a3 set to 1.  This is 
  the default value, it may have been provided also in the input file.
... done
 Writing xyz coordinates to file "host_17961.xyz" ... done


--------------------------------------------------------------------------------
---------------------------------- INPUT FILE ----------------------------------
--------------------------------------------------------------------------------

cutoff_energy       : 800 eV                                                    
xc_functional PBE                                                               
task SINGLEPOINT                                                                
write_xyz true                                                                  
output_detail VERBOSE                                                           
ngwf_threshold_orig : 0.000002                                                  
kernel_cutoff       : 1000                                                      
k_zero              : 3.5                                                       
elec_cg_max 0                                                                   
occ_mix 1.0                                                                     
dispersion 1                                                                    
maxit_ngwf_cg 40                                                                
minit_lnv 10                                                                    
maxit_lnv 10                                                                    
write_denskern T                                                                
write_tightbox_ngwfs T                                                          
charge 9                                                                        
is_implicit_solvent T                                                           
is_auto_solvation T                                                             
is_include_apolar T                                                             
is_smeared_ion_rep T                                                            
is_solvent_surf_tension 4.7624E-5 Ha/bohr**2                                    
is_apolar_scaling_factor 0.281075                                               
is_solvation_beta 1.3                                                           
is_density_threshold 0.00035                                                    
is_bulk_permittivity 78.54                                                      
is_dielectric_model fix_initial                                                 
is_smeared_ion_width 0.8                                                        
mg_defco_fd_order 8                                                             
is_bc_coarseness 10                                                             
is_bc_surface_coarseness 1                                                      
fine_grid_scale 2.0                                                             
%block species                                                                  
N   N   7 4 8.0                                                                 
H   H   1 1 8.0                                                                 
C   C   6 4 8.0                                                                 
S   S  16 9 8.0                                                                 
O   O   8 4 8.0                                                                 
%endblock species                                                               
%block species_pot                                                              
N   N_00.recpot                                                                 
H   H_04.recpot                                                                 
C   C_01.recpot                                                                 
S   S_00.recpot                                                                 
O   O_02.recpot                                                                 
%endblock species_pot                                                           
%block lattice_cart                                                             
139.898   0.000   0.000                                                         
0.000 144.87   0.000                                                            
0.000   0.000   168.12                                                          
%endblock lattice_cart                                                          
%block positions_abs                                                            
     Hash =  -000006729727165707222430
%endblock positions_abs                                                         

--------------------------------------------------------------------------------
-------------------------------- END INPUT FILE --------------------------------
--------------------------------------------------------------------------------


 
 ESDF WARNING(1): "kernelcutoff" (esdf_physical) has no units. Assume "bohr".
 ESDF WARNING(2): "kzero" (esdf_physical) has no units. Assume "1/bohr".
 ESDF WARNING(3
 ): "issmearedionwidth" (esdf_physical) has no units. Assume "bohr".
<<<<<<<<<<<<<<<<<<<<<<<<<<<<<<<<< Full system >>>>>>>>>>>>>>>>>>>>>>>>>>>>>>>>>>
<<<<<<<<<<<<<<<<<<<<<<<<< Pseudopotential information >>>>>>>>>>>>>>>>>>>>>>>>>>
File: N_00.recpot [ 2001 points up to Gmax=  52.9 (1/bohr)]
  Atomic number:  7;  ionic charge:  5.000000
    Shell 1: l = 0; rc = 1.48 bohr
File: H_04.recpot [ 2001 points up to Gmax=  52.9 (1/bohr)]
  Atomic number:  1;  ionic charge:  1.000000
    Local potential
File: C_01.recpot [ 2001 points up to Gmax=  52.9 (1/bohr)]
  Atomic number:  6;  ionic charge:  4.000000
    Shell 1: l = 0; rc = 1.48 bohr
File: S_00.recpot [ 2001 points up to Gmax=  52.9 (1/bohr)]
  Atomic number: 16;  ionic charge:  6.000000
    Shell 1: l = 0; rc = 1.90 bohr
    Shell 2: l = 2; rc = 1.84 bohr
File: O_02.recpot [ 2001 points up to Gmax=  52.9 (1/bohr)]
  Atomic number:  8;  ionic charge:  6.000000
    Shell 1: l = 0; rc = 1.31 bohr
<<<<<<<<<<<<<<<<<<<<<<<<<<<<<<<<<<<<<<<<>>>>>>>>>>>>>>>>>>>>>>>>>>>>>>>>>>>>>>>>

-------------------------- Atom counting information ---------------------------
Symbol    Natoms    Nngwfs    Nprojs
  N        236       944       236
  H       1311      1311         0
  C        810      3240       810
  S          6        54        36
  O        239       956       239
.......   ......    ......    ......
Totals:   2602      6505      1321
--------------------------------------------------------------------------------

=============================== PSINC grid sizes ===============================
                      Simulation cell:  275 x 286 x 336
                              FFT-box:   99 x  99 x  99
                                  PPD:    5 x  11 x   1
Grid space d1=  0.508720000000a0 (KE cutoff=  29.35259Eh = 798.72452eV)
Grid space d2=  0.506538461538a0 (KE cutoff=  29.60596Eh = 805.61916eV)
Grid space d3=  0.500357142857a0 (KE cutoff=  30.34197Eh = 825.64705eV)
================================================================================

********************* Fourier parallelisation information **********************
       Coarse grid (whole simulation cell) dimensions:    275   286   336
          Real-space ('12') slabs/node (min max mean):      5     6     5
         Recip-space ('23') slabs/node (min max mean):      2     3     2
********************************************************************************

********************* Fourier parallelisation information **********************
       Double grid (whole simulation cell) dimensions:    550   572   672
          Real-space ('12') slabs/node (min max mean):     11    12    11
         Recip-space ('23') slabs/node (min max mean):      4     5     4
********************************************************************************
ONETEP fine grid is 550 x 572 x 672 gridpoints, 139.8980 x 144.8700 x 168.1200 bohr.
FD multigrid is     545 x 569 x 665 gridpoints, 138.6262 x 144.1102 x 166.3688 bohr.


Calculating local pseudopotential in open BC on a radial grid ...
Discrepancy between calculated realspace psloc and -Z/x on [5a0,262.342a0]:
max |rel. diff| # avg |rel. diff| #  avg rel. diff #  f # pseudopotential file
 0.000258413739    0.000003708905   0.000000070960   56  'N_00.recpot'
 0.000398954828    0.000016185045  -0.000000074508   56  'H_04.recpot'
 0.000375346405    0.000017198923   0.000000144535   56  'C_01.recpot'
 0.000466850533    0.000020125278   0.000000461745   56  'S_00.recpot'
 0.000671508953    0.000026045986   0.000000155458   56  'O_02.recpot'
... done

Atom SCF Calculation for N  : Z (AE atom) =   7 : Z (PS atom) =   5
Config String:
Orbitals (num,occ):  2     2.00 3.00
Orbitals   (num,l):  2        0    1
Real-space Grid (nr,dr,rmax): 1203    0.0066555740    8.0000000000
Spherical Bessel Basis (nsws,lmax,cutoff):   47    1  176.3951722778
Confining potential (l,width,scale):  0    3.0000000000  100.0000000000
Confining potential (l,width,scale):  1    3.0000000000  100.0000000000
  1         -4.7312375307   -3.4155304497    7.0523828109   -1.9351020946
  2         -9.7309464766   -2.0532547791    8.2966052865   -2.2494486027
  3         -9.6627394379   -2.1124926340    8.2327997121   -2.2369778124
  4         -9.6814993499   -2.1215521045    8.2229805960   -2.2365178421
  5         -9.6843326483   -2.1250939529    8.2191374534   -2.2362718126
  6         -9.6859628709   -2.1267894855    8.2172963573   -2.2362066344
  7         -9.6867347035   -2.1276425665    8.2163697352   -2.2361903369
  8         -9.6870802100   -2.1280764625    8.2158983890   -2.2361891460
  9         -9.6872290423   -2.1282977424    8.2156580222   -2.2361920435
 10         -9.6872901988   -2.1284107021    8.2155353368   -2.2361953393
 11         -9.6873135296   -2.1284684031    8.2154726809   -2.2361979819
 12         -9.6873212476   -2.1284978948    8.2154406648   -2.2361998431
 13         -9.6873229586   -2.1285129774    8.2154242957   -2.2362010676
 14         -9.6873226456   -2.1285206957    8.2154159216   -2.2362018403
 15         -9.6873218534   -2.1285246479    8.2154116349   -2.2362023142
 16         -9.6873212599   -2.1285262679    8.2154098784   -2.2362025420
 17         -9.6873207834   -2.1285272564    8.2154088068   -2.2362026955
 18         -9.6873204210   -2.1285278596    8.2154081529   -2.2362027982
 19         -9.6873201550   -2.1285282280    8.2154077538   -2.2362028667
 20         -9.6873199645   -2.1285284529    8.2154075102   -2.2362029121
 21         -9.6873198305   -2.1285285903    8.2154073614   -2.2362029421
 22         -9.6873197377   -2.1285286742    8.2154072705   -2.2362029618
Atom SCF converged after  22 iterations to a total energy of     -9.68731974

Atom SCF Calculation for H  : Z (AE atom) =   1 : Z (PS atom) =   1
Config String:
Orbitals (num,occ):  1     1.00
Orbitals   (num,l):  1        0
Real-space Grid (nr,dr,rmax): 1203    0.0066555740    8.0000000000
Spherical Bessel Basis (nsws,lmax,cutoff):   47    0  176.3951722778
Confining potential (l,width,scale):  0    3.0000000000  100.0000000000
  1         -0.3194257691   -0.2393854593    0.2820953124   -0.2424203209
  2         -0.3951823392   -0.2377116493    0.2886404059   -0.2475147891
  3         -0.4317044583   -0.2352244387    0.2921333887   -0.2514046172
  4         -0.4470703708   -0.2341892222    0.2934391879   -0.2531009782
  5         -0.4532132900   -0.2338556667    0.2938388426   -0.2537313520
  6         -0.4556579251   -0.2337612552    0.2939448584   -0.2539550462
  7         -0.4566418315   -0.2337377355    0.2939680120   -0.2540342273
  8         -0.4570437922   -0.2337331116    0.2939708287   -0.2540627372
  9         -0.4572102946   -0.2337328328    0.2939698291   -0.2540732650
 10         -0.4572800424   -0.2337332404    0.2939687193   -0.2540772588
 11         -0.4573095100   -0.2337335791    0.2939680317   -0.2540788122
 12         -0.4573220379   -0.2337337762    0.2939676699   -0.2540794294
 13         -0.4573273880   -0.2337338775    0.2939674931   -0.2540796787
 14         -0.4573296803   -0.2337339266    0.2939674099   -0.2540797808
 15         -0.4573306647   -0.2337339495    0.2939673718   -0.2540798230
 16         -0.4573310882   -0.2337339601    0.2939673545   -0.2540798406
 17         -0.4573312706   -0.2337339649    0.2939673467   -0.2540798479
 18         -0.4573313493   -0.2337339670    0.2939673433   -0.2540798510
Atom SCF converged after  18 iterations to a total energy of     -0.45733135

Atom SCF Calculation for C  : Z (AE atom) =   6 : Z (PS atom) =   4
Config String:
Orbitals (num,occ):  2     2.00 2.00
Orbitals   (num,l):  2        0    1
Real-space Grid (nr,dr,rmax): 1203    0.0066555740    8.0000000000
Spherical Bessel Basis (nsws,lmax,cutoff):   47    1  176.3951722778
Confining potential (l,width,scale):  0    3.0000000000  100.0000000000
Confining potential (l,width,scale):  1    3.0000000000  100.0000000000
  1         -5.2976922011   -1.3069684169    4.5135249990   -1.4493313817
  2         -5.3721716256   -1.3429755895    4.4750154450   -1.4361613026
  3         -5.3809959565   -1.3617365618    4.4541655428   -1.4305930207
  4         -5.3918938866   -1.3667928461    4.4484735100   -1.4294652294
  5         -5.3956096428   -1.3688539142    4.4461376126   -1.4290734646
  6         -5.3968271862   -1.3696852393    4.4451910874   -1.4289366866
  7         -5.3972028401   -1.3700178062    4.4448112275   -1.4288900460
  8         -5.3973067903   -1.3701500158    4.4446598370   -1.4288749220
  9         -5.3973286940   -1.3702023868    4.4445997329   -1.4288704293
 10         -5.3973289850   -1.3702230869    4.4445759233   -1.4288693188
 11         -5.3973254264   -1.3702312560    4.4445665049   -1.4288691775
 12         -5.3973224003   -1.3702344755    4.4445627836   -1.4288692549
 13         -5.3973208708   -1.3702354890    4.4445616088   -1.4288693270
 14         -5.3973198783   -1.3702360102    4.4445610034   -1.4288693814
 15         -5.3973192535   -1.3702362780    4.4445606917   -1.4288694190
 16         -5.3973188684   -1.3702364155    4.4445605313   -1.4288694437
 17         -5.3973186349   -1.3702364860    4.4445604489   -1.4288694595
 18         -5.3973184951   -1.3702365221    4.4445604065   -1.4288694693
 19         -5.3973184122   -1.3702365405    4.4445603848   -1.4288694753
Atom SCF converged after  19 iterations to a total energy of     -5.39731841

Atom SCF Calculation for S  : Z (AE atom) =  16 : Z (PS atom) =   6
Config String:
Orbitals (num,occ):  3     2.00 4.00 0.00
Orbitals   (num,l):  3        0    1    2
Real-space Grid (nr,dr,rmax): 1203    0.0066555740    8.0000000000
Spherical Bessel Basis (nsws,lmax,cutoff):   47    2  176.3951722778
Confining potential (l,width,scale):  0    3.0000000000  100.0000000000
Confining potential (l,width,scale):  1    3.0000000000  100.0000000000
Confining potential (l,width,scale):  2    3.0000000000  100.0000000000
  1        -12.4735062396   -1.0328741412   10.1554312477   -2.4512393157
  2         -9.9458301913   -2.4607392455    8.3041325857   -2.0306994528
  3        -10.1450417646   -2.2931184565    8.4831893826   -2.0812538287
  4        -10.1528335592   -2.2733105793    8.5050388867   -2.0896035179
  5        -10.1571940363   -2.2633716629    8.5160794258   -2.0939370707
  6        -10.1594380571   -2.2584938667    8.5215163935   -2.0961289008
  7        -10.1605856507   -2.2561081821    8.5241804044   -2.0972291378
  8        -10.1611799191   -2.2549395235    8.5254868240   -2.0977806248
  9        -10.1614918752   -2.2543658586    8.5261285885   -2.0980571586
 10        -10.1616572884   -2.2540839121    8.5264441898   -2.0981959233
 11        -10.1617455602   -2.2539453058    8.5265994231   -2.0982656006
 12        -10.1617928447   -2.2538772062    8.5266757320   -2.0983006047
 13        -10.1618182292   -2.2538437891    8.5267131983   -2.0983181961
 14        -10.1618318741   -2.2538274201    8.5267315620   -2.0983270391
 15        -10.1618392144   -2.2538194197    8.5267405433   -2.0983314852
 16        -10.1618431651   -2.2538155200    8.5267449245   -2.0983337210
 17        -10.1618452923   -2.2538136252    8.5267470551   -2.0983348455
 18        -10.1618464380   -2.2538127080    8.5267480875   -2.0983354110
 19        -10.1618470552   -2.2538122659    8.5267485856   -2.0983356955
 20        -10.1618473878   -2.2538120540    8.5267488248   -2.0983358386
 21        -10.1618475670   -2.2538119530    8.5267489389   -2.0983359106
 22        -10.1618476637   -2.2538119053    8.5267489929   -2.0983359468
Atom SCF converged after  22 iterations to a total energy of    -10.16184766

Atom SCF Calculation for O  : Z (AE atom) =   8 : Z (PS atom) =   6
Config String:
Orbitals (num,occ):  2     2.00 4.00
Orbitals   (num,l):  2        0    1
Real-space Grid (nr,dr,rmax): 1203    0.0066555740    8.0000000000
Spherical Bessel Basis (nsws,lmax,cutoff):   47    1  176.3951722778
Confining potential (l,width,scale):  0    3.0000000000  100.0000000000
Confining potential (l,width,scale):  1    3.0000000000  100.0000000000
  1         -1.8735052164   -7.5539365035   10.1554312477   -2.4512393157
  2        -16.0318313751   -3.1285771268   13.6395848164   -3.2358799643
  3        -15.9524020423   -3.0762819706   13.6967272503   -3.2536856837
  4        -15.8521515939   -3.0781493909   13.6951909330   -3.2561700440
  5        -15.8357139793   -3.0748501933   13.6988803334   -3.2580493133
  6        -15.8246052853   -3.0740779781   13.6997881576   -3.2588327446
  7        -15.8189019501   -3.0737449687   13.7001869911   -3.2592378801
  8        -15.8159785510   -3.0736026016   13.7003615168   -3.2594475790
  9        -15.8144776168   -3.0735437994   13.7004360379   -3.2595560735
 10        -15.8137058024   -3.0735207882   13.7004667348   -3.2596122456
 11        -15.8133083127   -3.0735125946   13.7004786868   -3.2596413656
 12        -15.8131032938   -3.0735102195   13.7004828997   -3.2596564858
 13        -15.8129973902   -3.0735099286   13.7004840891   -3.2596643505
 14        -15.8129426040   -3.0735102506   13.7004842061   -3.2596684489
 15        -15.8129142203   -3.0735106556   13.7004840157   -3.2596705887
 16        -15.8128994940   -3.0735109855   13.7004837906   -3.2596717080
 17        -15.8128918425   -3.0735112169   13.7004836103   -3.2596722946
 18        -15.8128878614   -3.0735113674   13.7004834848   -3.2596726026
 19        -15.8128857871   -3.0735114608   13.7004834035   -3.2596727646
 20        -15.8128847048   -3.0735115170   13.7004833533   -3.2596728500
 21        -15.8128841394   -3.0735115501   13.7004833231   -3.2596728951
 22        -15.8128838436   -3.0735115693   13.7004833054   -3.2596729190
 23        -15.8128836887   -3.0735115802   13.7004832951   -3.2596729316
 24        -15.8128836074   -3.0735115864   13.7004832893   -3.2596729383
Atom SCF converged after  24 iterations to a total energy of    -15.81288361

========================== Calculation in vacuum ==============================
= Adjusting the following parameters: 
= is_implicit_solvent: F
= is_include_apolar: F
= write_denskern: T
= write_tightbox_ngwfs: T
= restart read filename prefix: ""
= restart write filename prefix: "vacuum_"
===============================================================================

Determining parallel strategy ...
... using space-filling curve
... NGWF load balancing: max    109;  min    108;  average    108
... Projector load balancing: max     25;  min     21;  average     22
... done
Calculating direct Ion-Ion energy ...
Ion-Ion Energy        :    808530.21443523955531
======================= Empirical dispersion information =======================
Model : Elstner
Dispersion Correction Energy: -0.32393589E+01 Hartree
================================================================================
Basis initialisation ...... NGWF spheres initialised
... Projector spheres initialised
... NGWF tight boxes initialised
... Tight-boxes gathered
... NGWF basis size (local,global):    1026860  62088283
... Nonlocal pseudopotential projector initialisation
... done

========================== Sparse matrix information ===========================
                        Overlap matrix filling:   6.64%
                        Density kernel filling: 100.00%
              NGWF-Proj overlap matrix filling:   1.78%
                    Hamiltonian matrix filling:   7.50%
                  NGWF diagonal matrix filling:   0.05%
                             KS matrix filling: 100.00% 
                           KSKS matrix filling: 100.00% 
================================================================================

Sparse matrix initialisation ... done

Generating smeared ion density ... done
Smeared ion self correction:     -14457.169564
Smeared ion non-self correction: -808482.099937
NGWF initialisation ...... done
============ Calculation of NGWF S^-1 using Hotelling algorithm ================ 
         Iteration  |  Frobenius norm and Maximum abs value    (of I-S*S_n^-1)   
               1       0.78524399E+02     0.98281384E+00
               2       0.76704589E+02     0.96613437E+00
               3       0.73745906E+02     0.93417388E+00
               4       0.69519724E+02     0.87510224E+00
               5       0.64234783E+02     0.77230774E+00
               6       0.58278521E+02     0.70583797E+00
               7       0.52268057E+02     0.67229745E+00
               8       0.46711451E+02     0.64375000E+00
               9       0.40686254E+02     0.60373961E+00
              10       0.32500439E+02     0.53427297E+00
              11       0.21981208E+02     0.43999780E+00
              12       0.11334407E+02     0.30387409E+00
              13       0.37860385E+01     0.14708212E+00
              14       0.61333799E+00     0.35220657E-01
              15       0.30542621E-01     0.30984588E-02
              16       0.18391358E-03     0.31216218E-04
              17       0.14035023E-07     0.32906062E-08
              18       0.96639236E-13     0.54400928E-14
================================================================================
Calculating local pseudopotential in open BC on the fine real space grid ...
... done

MG BCs: +ve charge blocks (gridpoints):     20674 (   16119412).
MG BCs: -ve charge blocks (gridpoints):      8138 (    1074247).
MG BCs:     Elided blocks (gridpoints):    189371 (  189026166).
MG BCs: Computational effort saved:  99.9860%.
MG BCs: Charge after coarse-graining:           -9.0002349.
MG DL_MG: Calling solver with defect correction order = 8
MG DL_MG: Solver finished
MG Hartree energy from (\int phi*rho dr):              1462.665029
MG Hartree energy from (\int eps (grad phi)^2 dr):     1462.056970
MG Discrepancy due to finite box and discretization:     -0.608058 (  -0.04157%)
MG Correction to account for finite box:                  0.454080
MG Remaining discrepancy, due to discretization:         -0.153978 (  -0.01053%)
Up spin density kernel initialisation ... 
======= Optimisation of K by Palser-Manolopoulos canonical purification ======== 
         Iteration  |  Band structure energy |    c_n   
               1       -2555.48470244004511    0.5272392
               2       -2730.91794966767247    0.5172741
               3       -2911.07519120522011    0.5153219
               4       -3062.10113933242474    0.5282957
               5       -3155.58767302192337    0.5632873
               6       -3194.97427341191360    0.6076986
               7       -3208.36377937731413    0.6198199
               8       -3214.12816043533076    0.6209273
               9       -3216.86831754031209    0.6399246
              10       -3217.97425363212415    0.6658767
              11       -3218.41199071297979    0.6845940
              12       -3218.60464717317427    0.6654843
              13       -3218.71347943394994    0.5993493
              14       -3218.78586285387883    0.4843883
              15       -3218.82356550675377    0.3146227
              16       -3218.82516790498630    0.2903761
              17       -3218.82587531290028    0.3138333
              18       -3218.82643461172938    0.3625801
              19       -3218.82701087017631    0.4190277
              20       -3218.82752291547149    0.4691265
              21       -3218.82784782134695    0.4951789
              22       -3218.82795189741773    0.4998815
              23       -3218.82796090987495    0.5000000
              24       -3218.82796097628079    0.5000000
Termination criterion satisfied: band energy change below threshold.
Final occupancy bounds: [    0.00000000000185:    1.00000000000000]
Closest occupancy to 0.5:     0.99999999999996
================================================================================
... done

Writing density kernel to file "host_17961.vacuum_dkn" ... done

>>> Optimising kernel for current NGWFs:
   Initial electron number for spin 1:    7192.00000000
     Final electron number for spin 1:    7192.00000000

=================== Penalty functional idempotency correction ==================
 RMS occupancy error at iteration   1:  0.000000 (step -0.5000 Ne1=   7192.0000)
            Final RMS occupancy error   :  0.000000 (Ne1=   7192.0000)
               Final occupancy bounds   : [  0.0000,  1.0000]
================================================================================

................................................................................
<<<<<<<<<<<<<< LNV (Original version) density kernel optimisation >>>>>>>>>>>>>>
~~~~~~~~~~~~~~~~~~~~~~~~~~~~~~~~~~~~~~~~~~~~~~~~~~~~~~~~~~~~~~~~~~~~~~~~~~~~~~~~
   iter  |      energy (Eh)       | rms gradient |  commutator  |   dE (Eh)
MG BCs: +ve charge blocks (gridpoints):     31575 (   17345497).
MG BCs: -ve charge blocks (gridpoints):      8471 (    1107436).
MG BCs:     Elided blocks (gridpoints):    178465 (  187766892).
MG BCs: Computational effort saved:  99.9806%.
MG BCs: Charge after coarse-graining:           -9.0009928.
MG DL_MG: Calling solver with defect correction order = 8
MG DL_MG: Solver finished
MG Hartree energy from (\int phi*rho dr):              1416.814353
MG Hartree energy from (\int eps (grad phi)^2 dr):     1416.159274
MG Discrepancy due to finite box and discretization:     -0.655079 (  -0.04624%)
MG Correction to account for finite box:                  0.457710
MG Remaining discrepancy, due to discretization:         -0.197369 (  -0.01393%)
      ideal mu1:      -0.734560793746
             Q0:  -11508.058392611914
             G0:    -140.553164421299
   RMS gradient:       0.001822522980
MG BCs: +ve charge blocks (gridpoints):     31532 (   17424866).
MG BCs: -ve charge blocks (gridpoints):      8380 (    1086864).
MG BCs:     Elided blocks (gridpoints):    178507 (  187708095).
MG BCs: Computational effort saved:  99.9806%.
MG BCs: Charge after coarse-graining:           -9.0010136.
MG DL_MG: Calling solver with defect correction order = 8
MG DL_MG: Solver finished
MG Hartree energy from (\int phi*rho dr):              1442.820285
MG Hartree energy from (\int eps (grad phi)^2 dr):     1442.181819
MG Discrepancy due to finite box and discretization:     -0.638466 (  -0.04425%)
MG Correction to account for finite box:                  0.457075
MG Remaining discrepancy, due to discretization:         -0.181391 (  -0.01257%)
     Trial step:       0.500000000000
             Q1:  -11518.794735021424
 Quadratic coef:      59.540239801141
 Linear coef   :     -70.276582210650
           Qmin:  -11528.795620173079
Quadratic minimum step length (  0.295080194694) accepted
    Initial Ne1:    7192.00000000
      Final Ne1:    7192.00000000

=================== Penalty functional idempotency correction ==================
 RMS occupancy error at iteration   1:  0.003270 (step -0.4890 Ne1=   7192.0000)
 RMS occupancy error at iteration   2:  0.000024 (step -0.5000 Ne1=   7192.0000)
            Final RMS occupancy error   :  0.000000 (Ne1=   7192.0000)
               Final occupancy bounds   : [  0.0000,  1.0000]
================================================================================

    1        -1.150805839261E+04     1.8225E-03     1.6484E-03
MG BCs: +ve charge blocks (gridpoints):     31550 (   17393579).
MG BCs: -ve charge blocks (gridpoints):      8425 (    1095741).
MG BCs:     Elided blocks (gridpoints):    178489 (  187730505).
MG BCs: Computational effort saved:  99.9806%.
MG BCs: Charge after coarse-graining:           -9.0010052.
MG DL_MG: Calling solver with defect correction order = 8
MG DL_MG: Solver finished
MG Hartree energy from (\int phi*rho dr):              1424.359144
MG Hartree energy from (\int eps (grad phi)^2 dr):     1423.714863
MG Discrepancy due to finite box and discretization:     -0.644281 (  -0.04523%)
MG Correction to account for finite box:                  0.457184
MG Remaining discrepancy, due to discretization:         -0.187096 (  -0.01314%)
      ideal mu1:      -0.767369956347
             Q0:  -11529.172076826799
             G0:     -11.422494806368
   RMS gradient:       0.000516170049
MG BCs: +ve charge blocks (gridpoints):     31544 (   17410633).
MG BCs: -ve charge blocks (gridpoints):      8398 (    1090457).
MG BCs:     Elided blocks (gridpoints):    178495 (  187718735).
MG BCs: Computational effort saved:  99.9806%.
MG BCs: Charge after coarse-graining:           -9.0010089.
MG DL_MG: Calling solver with defect correction order = 8
MG DL_MG: Solver finished
MG Hartree energy from (\int phi*rho dr):              1429.826143
MG Hartree energy from (\int eps (grad phi)^2 dr):     1429.185433
MG Discrepancy due to finite box and discretization:     -0.640710 (  -0.04481%)
MG Correction to account for finite box:                  0.456856
MG Remaining discrepancy, due to discretization:         -0.183854 (  -0.01286%)
     Trial step:       0.384109486146
             Q1:  -11531.849754493451
 Quadratic coef:       1.709810943925
 Linear coef   :      -4.387488610576
           Qmin:  -11531.986723729186
Quadratic minimum step length (  0.492825245290) accepted
    Initial Ne1:    7191.99992598
      Final Ne1:    7192.00000000

=================== Penalty functional idempotency correction ==================
 RMS occupancy error at iteration   1:  0.001705 (step -0.4936 Ne1=   7192.0000)
 RMS occupancy error at iteration   2:  0.000009 (step -0.5000 Ne1=   7192.0000)
            Final RMS occupancy error   :  0.000000 (Ne1=   7192.0000)
               Final occupancy bounds   : [  0.0000,  1.0000]
================================================================================

    2        -1.152917207683E+04     5.1617E-04     4.6686E-04    -2.1114E+01
MG BCs: +ve charge blocks (gridpoints):     31548 (   17415322).
MG BCs: -ve charge blocks (gridpoints):      8396 (    1089093).
MG BCs:     Elided blocks (gridpoints):    178491 (  187715410).
MG BCs: Computational effort saved:  99.9806%.
MG BCs: Charge after coarse-graining:           -9.0010100.
MG DL_MG: Calling solver with defect correction order = 8
MG DL_MG: Solver finished
MG Hartree energy from (\int phi*rho dr):              1431.411697
MG Hartree energy from (\int eps (grad phi)^2 dr):     1430.771917
MG Discrepancy due to finite box and discretization:     -0.639780 (  -0.04470%)
MG Correction to account for finite box:                  0.456779
MG Remaining discrepancy, due to discretization:         -0.183001 (  -0.01278%)
      ideal mu1:      -0.784554655229
             Q0:  -11532.019658290199
             G0:      -1.797650859335
   RMS gradient:       0.000204891569
MG BCs: +ve charge blocks (gridpoints):     31551 (   17414942).
MG BCs: -ve charge blocks (gridpoints):      8396 (    1089910).
MG BCs:     Elided blocks (gridpoints):    178488 (  187714973).
MG BCs: Computational effort saved:  99.9806%.
MG BCs: Charge after coarse-graining:           -9.0010096.
MG DL_MG: Calling solver with defect correction order = 8
MG DL_MG: Solver finished
MG Hartree energy from (\int phi*rho dr):              1429.245366
MG Hartree energy from (\int eps (grad phi)^2 dr):     1428.605891
MG Discrepancy due to finite box and discretization:     -0.639475 (  -0.04474%)
MG Correction to account for finite box:                  0.456657
MG Remaining discrepancy, due to discretization:         -0.182819 (  -0.01279%)
     Trial step:       0.435084878763
             Q1:  -11532.467939916300
 Quadratic coef:       0.333849080091
 Linear coef   :      -0.782130706191
           Qmin:  -11532.477745849854
Quadratic minimum step length (  0.509651312185) accepted
    Initial Ne1:    7191.99997083
      Final Ne1:    7192.00000000

=================== Penalty functional idempotency correction ==================
 RMS occupancy error at iteration   1:  0.000561 (step -0.4978 Ne1=   7192.0000)
 RMS occupancy error at iteration   2:  0.000001 (step -0.5000 Ne1=   7192.0000)
            Final RMS occupancy error   :  0.000000 (Ne1=   7192.0000)
               Final occupancy bounds   : [  0.0000,  1.0000]
================================================================================

    3        -1.153201965829E+04     2.0489E-04     1.8532E-04    -2.8476E+00
MG BCs: +ve charge blocks (gridpoints):     31550 (   17414902).
MG BCs: -ve charge blocks (gridpoints):      8401 (    1090090).
MG BCs:     Elided blocks (gridpoints):    178489 (  187714833).
MG BCs: Computational effort saved:  99.9806%.
MG BCs: Charge after coarse-graining:           -9.0010094.
MG DL_MG: Calling solver with defect correction order = 8
MG DL_MG: Solver finished
MG Hartree energy from (\int phi*rho dr):              1428.882160
MG Hartree energy from (\int eps (grad phi)^2 dr):     1428.242729
MG Discrepancy due to finite box and discretization:     -0.639432 (  -0.04475%)
MG Correction to account for finite box:                  0.456636
MG Remaining discrepancy, due to discretization:         -0.182795 (  -0.01279%)
      ideal mu1:      -0.784927843929
             Q0:  -11532.481736356858
             G0:      -0.418960473702
   RMS gradient:       0.000099028889
MG BCs: +ve charge blocks (gridpoints):     31547 (   17415835).
MG BCs: -ve charge blocks (gridpoints):      8396 (    1089948).
MG BCs:     Elided blocks (gridpoints):    178492 (  187714042).
MG BCs: Computational effort saved:  99.9806%.
MG BCs: Charge after coarse-graining:           -9.0010096.
MG DL_MG: Calling solver with defect correction order = 8
MG DL_MG: Solver finished
MG Hartree energy from (\int phi*rho dr):              1430.047860
MG Hartree energy from (\int eps (grad phi)^2 dr):     1429.408340
MG Discrepancy due to finite box and discretization:     -0.639521 (  -0.04472%)
MG Correction to account for finite box:                  0.456596
MG Remaining discrepancy, due to discretization:         -0.182925 (  -0.01279%)
     Trial step:       0.470894446106
             Q1:  -11532.576659930171
 Quadratic coef:       0.102362586891
 Linear coef   :      -0.197286160204
           Qmin:  -11532.576795084344
Quadratic minimum step length (  0.453783750270) accepted
    Initial Ne1:    7191.99999382
      Final Ne1:    7192.00000000

=================== Penalty functional idempotency correction ==================
 RMS occupancy error at iteration   1:  0.000178 (step -0.4993 Ne1=   7192.0000)
            Final RMS occupancy error   :  0.000000 (Ne1=   7192.0000)
               Final occupancy bounds   : [ -0.0000,  1.0000]
================================================================================

    4        -1.153248173636E+04     9.9029E-05     8.9569E-05    -4.6208E-01
MG BCs: +ve charge blocks (gridpoints):     31547 (   17415788).
MG BCs: -ve charge blocks (gridpoints):      8396 (    1089956).
MG BCs:     Elided blocks (gridpoints):    178492 (  187714081).
MG BCs: Computational effort saved:  99.9806%.
MG BCs: Charge after coarse-graining:           -9.0010096.
MG DL_MG: Calling solver with defect correction order = 8
MG DL_MG: Solver finished
MG Hartree energy from (\int phi*rho dr):              1430.005472
MG Hartree energy from (\int eps (grad phi)^2 dr):     1429.365955
MG Discrepancy due to finite box and discretization:     -0.639517 (  -0.04472%)
MG Correction to account for finite box:                  0.456598
MG Remaining discrepancy, due to discretization:         -0.182920 (  -0.01279%)
      ideal mu1:      -0.785509305302
             Q0:  -11532.577187000075
             G0:      -0.102418263291
   RMS gradient:       0.000049097051
MG BCs: +ve charge blocks (gridpoints):     31551 (   17416120).
MG BCs: -ve charge blocks (gridpoints):      8394 (    1089784).
MG BCs:     Elided blocks (gridpoints):    178488 (  187713921).
MG BCs: Computational effort saved:  99.9806%.
MG BCs: Charge after coarse-graining:           -9.0010095.
MG DL_MG: Calling solver with defect correction order = 8
MG DL_MG: Solver finished
MG Hartree energy from (\int phi*rho dr):              1430.391158
MG Hartree energy from (\int eps (grad phi)^2 dr):     1429.751496
MG Discrepancy due to finite box and discretization:     -0.639662 (  -0.04472%)
MG Correction to account for finite box:                  0.456609
MG Remaining discrepancy, due to discretization:         -0.183053 (  -0.01280%)
     Trial step:       0.462259935248
             Q1:  -11532.602279250394
 Quadratic coef:       0.022251609438
 Linear coef   :      -0.047343859757
           Qmin:  -11532.602369909462
Quadratic minimum step length (  0.491765991278) accepted
    Initial Ne1:    7192.00149847
      Final Ne1:    7192.00000000

=================== Penalty functional idempotency correction ==================
 RMS occupancy error at iteration   1:  0.000064 (step -0.4997 Ne1=   7192.0000)
            Final RMS occupancy error   :  0.000000 (Ne1=   7192.0000)
               Final occupancy bounds   : [ -0.0000,  1.0000]
================================================================================

    5        -1.153257718700E+04     4.9097E-05     4.4407E-05    -9.5451E-02
MG BCs: +ve charge blocks (gridpoints):     31552 (   17416140).
MG BCs: -ve charge blocks (gridpoints):      8395 (    1089780).
MG BCs:     Elided blocks (gridpoints):    178488 (  187713905).
MG BCs: Computational effort saved:  99.9806%.
MG BCs: Charge after coarse-graining:           -9.0010094.
MG DL_MG: Calling solver with defect correction order = 8
MG DL_MG: Solver finished
MG Hartree energy from (\int phi*rho dr):              1430.415832
MG Hartree energy from (\int eps (grad phi)^2 dr):     1429.776161
MG Discrepancy due to finite box and discretization:     -0.639671 (  -0.04472%)
MG Correction to account for finite box:                  0.456610
MG Remaining discrepancy, due to discretization:         -0.183061 (  -0.01280%)
      ideal mu1:      -0.785587004003
             Q0:  -11532.602417208138
             G0:      -0.030838822326
   RMS gradient:       0.000026963975
MG BCs: +ve charge blocks (gridpoints):     31552 (   17415712).
MG BCs: -ve charge blocks (gridpoints):      8397 (    1089983).
MG BCs:     Elided blocks (gridpoints):    178487 (  187714130).
MG BCs: Computational effort saved:  99.9806%.
MG BCs: Charge after coarse-graining:           -9.0010093.
MG DL_MG: Calling solver with defect correction order = 8
MG DL_MG: Solver finished
MG Hartree energy from (\int phi*rho dr):              1429.807761
MG Hartree energy from (\int eps (grad phi)^2 dr):     1429.168093
MG Discrepancy due to finite box and discretization:     -0.639668 (  -0.04474%)
MG Correction to account for finite box:                  0.456617
MG Remaining discrepancy, due to discretization:         -0.183052 (  -0.01280%)
     Trial step:       0.476784768302
             Q1:  -11532.612065622583
 Quadratic coef:       0.005055066313
 Linear coef   :      -0.014703480757
           Qmin:  -11532.613109073141
Quadratic minimum step length (  0.693402938015) accepted
    Initial Ne1:    7192.00093334
      Final Ne1:    7192.00000000

=================== Penalty functional idempotency correction ==================
 RMS occupancy error at iteration   1:  0.000039 (step -0.4998 Ne1=   7192.0000)
            Final RMS occupancy error   :  0.000000 (Ne1=   7192.0000)
               Final occupancy bounds   : [ -0.0000,  1.0000]
================================================================================

    6        -1.153260241721E+04     2.6964E-05     2.4388E-05    -2.5230E-02
MG BCs: +ve charge blocks (gridpoints):     31554 (   17415543).
MG BCs: -ve charge blocks (gridpoints):      8398 (    1090078).
MG BCs:     Elided blocks (gridpoints):    178485 (  187714204).
MG BCs: Computational effort saved:  99.9806%.
MG BCs: Charge after coarse-graining:           -9.0010093.
MG DL_MG: Calling solver with defect correction order = 8
MG DL_MG: Solver finished
MG Hartree energy from (\int phi*rho dr):              1429.530782
MG Hartree energy from (\int eps (grad phi)^2 dr):     1428.891115
MG Discrepancy due to finite box and discretization:     -0.639667 (  -0.04475%)
MG Correction to account for finite box:                  0.456620
MG Remaining discrepancy, due to discretization:         -0.183047 (  -0.01280%)
      ideal mu1:      -0.785181127985
             Q0:  -11532.613118348876
             G0:      -0.016693377890
   RMS gradient:       0.000019862084
MG BCs: +ve charge blocks (gridpoints):     31551 (   17415877).
MG BCs: -ve charge blocks (gridpoints):      8394 (    1089882).
MG BCs:     Elided blocks (gridpoints):    178488 (  187714066).
MG BCs: Computational effort saved:  99.9806%.
MG BCs: Charge after coarse-graining:           -9.0010095.
MG DL_MG: Calling solver with defect correction order = 8
MG DL_MG: Solver finished
MG Hartree energy from (\int phi*rho dr):              1430.108698
MG Hartree energy from (\int eps (grad phi)^2 dr):     1429.469063
MG Discrepancy due to finite box and discretization:     -0.639635 (  -0.04473%)
MG Correction to account for finite box:                  0.456613
MG Remaining discrepancy, due to discretization:         -0.183022 (  -0.01280%)
     Trial step:       0.574981703311
             Q1:  -11532.617163114017
 Quadratic coef:       0.005553621711
 Linear coef   :      -0.009598386853
           Qmin:  -11532.617265598859
Quadratic minimum step length (  0.496873671686) accepted
    Initial Ne1:    7192.00014908
      Final Ne1:    7192.00000000

=================== Penalty functional idempotency correction ==================
 RMS occupancy error at iteration   1:  0.000002 (step -0.5000 Ne1=   7192.0000)
            Final RMS occupancy error   :  0.000000 (Ne1=   7192.0000)
               Final occupancy bounds   : [  0.0000,  1.0000]
================================================================================

    7        -1.153261311835E+04     1.9862E-05     1.7965E-05    -1.0701E-02
MG BCs: +ve charge blocks (gridpoints):     31552 (   17415842).
MG BCs: -ve charge blocks (gridpoints):      8394 (    1089898).
MG BCs:     Elided blocks (gridpoints):    178487 (  187714085).
MG BCs: Computational effort saved:  99.9806%.
MG BCs: Charge after coarse-graining:           -9.0010095.
MG DL_MG: Calling solver with defect correction order = 8
MG DL_MG: Solver finished
MG Hartree energy from (\int phi*rho dr):              1430.030060
MG Hartree energy from (\int eps (grad phi)^2 dr):     1429.390421
MG Discrepancy due to finite box and discretization:     -0.639639 (  -0.04473%)
MG Correction to account for finite box:                  0.456614
MG Remaining discrepancy, due to discretization:         -0.183025 (  -0.01280%)
      ideal mu1:      -0.785536220995
             Q0:  -11532.617265878944
             G0:      -0.009729294736
   RMS gradient:       0.000015164005
MG BCs: +ve charge blocks (gridpoints):     31552 (   17415938).
MG BCs: -ve charge blocks (gridpoints):      8394 (    1089856).
MG BCs:     Elided blocks (gridpoints):    178487 (  187714031).
MG BCs: Computational effort saved:  99.9806%.
MG BCs: Charge after coarse-graining:           -9.0010095.
MG DL_MG: Calling solver with defect correction order = 8
MG DL_MG: Solver finished
MG Hartree energy from (\int phi*rho dr):              1430.118782
MG Hartree energy from (\int eps (grad phi)^2 dr):     1429.479178
MG Discrepancy due to finite box and discretization:     -0.639605 (  -0.04472%)
MG Correction to account for finite box:                  0.456606
MG Remaining discrepancy, due to discretization:         -0.182999 (  -0.01280%)
     Trial step:       0.534502825134
             Q1:  -11532.621068387525
 Quadratic coef:       0.001397826942
 Linear coef   :      -0.005200335523
           Qmin:  -11532.622102580961
Quadratic minimum step length (  0.994255420945) accepted
    Initial Ne1:    7192.00017281
      Final Ne1:    7192.00000000

=================== Penalty functional idempotency correction ==================
 RMS occupancy error at iteration   1:  0.000022 (step -0.4995 Ne1=   7192.0000)
            Final RMS occupancy error   :  0.000000 (Ne1=   7192.0000)
               Final occupancy bounds   : [ -0.0000,  1.0000]
================================================================================

    8        -1.153261726588E+04     1.5164E-05     1.3715E-05    -4.1475E-03
MG BCs: +ve charge blocks (gridpoints):     31552 (   17416000).
MG BCs: -ve charge blocks (gridpoints):      8395 (    1089806).
MG BCs:     Elided blocks (gridpoints):    178487 (  187714019).
MG BCs: Computational effort saved:  99.9806%.
MG BCs: Charge after coarse-graining:           -9.0010095.
MG DL_MG: Calling solver with defect correction order = 8
MG DL_MG: Solver finished
MG Hartree energy from (\int phi*rho dr):              1430.193608
MG Hartree energy from (\int eps (grad phi)^2 dr):     1429.554034
MG Discrepancy due to finite box and discretization:     -0.639575 (  -0.04472%)
MG Correction to account for finite box:                  0.456598
MG Remaining discrepancy, due to discretization:         -0.182976 (  -0.01279%)
      ideal mu1:      -0.785563712341
             Q0:  -11532.622094096965
             G0:      -0.013768569081
   RMS gradient:       0.000018070848
MG BCs: +ve charge blocks (gridpoints):     31551 (   17415870).
MG BCs: -ve charge blocks (gridpoints):      8395 (    1089948).
MG BCs:     Elided blocks (gridpoints):    178488 (  187714007).
MG BCs: Computational effort saved:  99.9806%.
MG BCs: Charge after coarse-graining:           -9.0010095.
MG DL_MG: Calling solver with defect correction order = 8
MG DL_MG: Solver finished
MG Hartree energy from (\int phi*rho dr):              1429.867688
MG Hartree energy from (\int eps (grad phi)^2 dr):     1429.228172
MG Discrepancy due to finite box and discretization:     -0.639516 (  -0.04473%)
MG Correction to account for finite box:                  0.456592
MG Remaining discrepancy, due to discretization:         -0.182924 (  -0.01279%)
     Trial step:       0.728994054434
             Q1:  -11532.628338175244
 Quadratic coef:       0.003793126720
 Linear coef   :      -0.010037204998
           Qmin:  -11532.628734099502
Quadratic minimum step length (  0.964515992683) accepted
    Initial Ne1:    7192.00039138
      Final Ne1:    7192.00000000

=================== Penalty functional idempotency correction ==================
 RMS occupancy error at iteration   1:  0.000117 (step -0.4970 Ne1=   7192.0000)
 RMS occupancy error at iteration   2:  0.000000 (step -0.5000 Ne1=   7192.0000)
            Final RMS occupancy error   :  0.000000 (Ne1=   7192.0000)
               Final occupancy bounds   : [  0.0000,  1.0000]
================================================================================

    9        -1.153262209410E+04     1.8071E-05     1.6345E-05    -4.8282E-03
MG BCs: +ve charge blocks (gridpoints):     31551 (   17415803).
MG BCs: -ve charge blocks (gridpoints):      8395 (    1089996).
MG BCs:     Elided blocks (gridpoints):    178488 (  187714026).
MG BCs: Computational effort saved:  99.9806%.
MG BCs: Charge after coarse-graining:           -9.0010095.
MG DL_MG: Calling solver with defect correction order = 8
MG DL_MG: Solver finished
MG Hartree energy from (\int phi*rho dr):              1429.759673
MG Hartree energy from (\int eps (grad phi)^2 dr):     1429.120177
MG Discrepancy due to finite box and discretization:     -0.639496 (  -0.04473%)
MG Correction to account for finite box:                  0.456589
MG Remaining discrepancy, due to discretization:         -0.182907 (  -0.01279%)
      ideal mu1:      -0.785157574741
   10        -1.153262869960E+04     1.9992E-05     1.8082E-05    -6.6055E-03
Finished density kernel iterations (  10)

Writing density kernel to file "host_17961.vacuum_dkn" ... done


>>> Density kernel optimised for the current NGWF basis:
     ~~~~~~~~~~~~~~~~~~~~~~~~~~~~~~~~~~~~~~~~~~~~~~~~~~~~~~~~~~~
     Total energy                =  -1.15326286996037E+04  Eh
     Estimated bandgap           =  -3.0484E-01  Eh
     RMS occupancy error         =   4.1069E-12
     [H,K] commutator            =   1.8082E-05
     Occupancy bounds            = [  0.000:  1.000]
     ~~~~~~~~~~~~~~~~~~~~~~~~~~~~~~~~~~~~~~~~~~~~~~~~~~~~~~~~~~~




################################################################################
########################### NGWF CG iteration  001 #############################
################################################################################
****** Reciprocal space K.E. preconditioning with k_zero =  3.5000 a0^-1 *******

>>> Checking for convergence of NGWFs:   NOT CONVERGED
  ========================================================================
         NGWF RMS gradient =  1.6018E-03 >  2.0000E-06  | above tolerance
  ========================================================================

>>> Improving NGWFs using line search:
============ Calculation of NGWF S^-1 using Hotelling algorithm ================ 
         Iteration  |  Frobenius norm and Maximum abs value    (of I-S*S_n^-1)   
               1       0.19945956E+00     0.53472696E-02
               2       0.93980284E-03     0.42352532E-04
               3       0.36814005E-07     0.28334379E-08
               4       0.12598933E-12     0.53290705E-14
================================================================================
MG BCs: +ve charge blocks (gridpoints):     31105 (   17357465).
MG BCs: -ve charge blocks (gridpoints):      8407 (    1090076).
MG BCs:     Elided blocks (gridpoints):    178936 (  187772284).
MG BCs: Computational effort saved:  99.9808%.
MG BCs: Charge after coarse-graining:           -9.0010143.
MG DL_MG: Calling solver with defect correction order = 8
MG DL_MG: Solver finished
MG Hartree energy from (\int phi*rho dr):              1397.915283
MG Hartree energy from (\int eps (grad phi)^2 dr):     1397.276618
MG Discrepancy due to finite box and discretization:     -0.638664 (  -0.04569%)
MG Correction to account for finite box:                  0.456567
MG Remaining discrepancy, due to discretization:         -0.182097 (  -0.01303%)
============ Calculation of NGWF S^-1 using Hotelling algorithm ================ 
         Iteration  |  Frobenius norm and Maximum abs value    (of I-S*S_n^-1)   
               1       0.18456919E+01     0.41732790E-01
               2       0.71462078E-01     0.23840622E-02
               3       0.15043599E-03     0.10317340E-04
               4       0.13748569E-08     0.22220121E-09
               5       0.10932192E-12     0.52180482E-14
================================================================================
------------------------------- NGWF line search -------------------------------
RMS gradient                =       0.00160180768439
Trial step length           =               0.122474
Gradient along search dir.  =       -277.62289285266
Functional at step 0        =  -11532.62869960372336
Functional at step 1        =  -11564.01581320678815
Functional predicted        =  -11643.17272191874144
Selected quadratic step     =               0.796361
--------------------------- NGWF line search finished --------------------------
                                               
Writing NGWFs to file "host_17961.vacuum_tightbox_ngwfs"....  done

>>> Optimising kernel for current NGWFs:
   Initial electron number for spin 1:    7226.55790312
     Final electron number for spin 1:    7192.00000000

=================== Penalty functional idempotency correction ==================
 RMS occupancy error at iteration   1:  0.004306 (step -0.4858 Ne1=   7192.0000)
 RMS occupancy error at iteration   2:  0.000072 (step -0.5003 Ne1=   7192.0000)
            Final RMS occupancy error   :  0.000000 (Ne1=   7192.0000)
               Final occupancy bounds   : [  0.0000,  1.0000]
================================================================================

................................................................................
<<<<<<<<<<<<<< LNV (Original version) density kernel optimisation >>>>>>>>>>>>>>
~~~~~~~~~~~~~~~~~~~~~~~~~~~~~~~~~~~~~~~~~~~~~~~~~~~~~~~~~~~~~~~~~~~~~~~~~~~~~~~~
   iter  |      energy (Eh)       | rms gradient |  commutator  |   dE (Eh)
MG BCs: +ve charge blocks (gridpoints):     25200 (   17054501).
MG BCs: -ve charge blocks (gridpoints):      8530 (    1074019).
MG BCs:     Elided blocks (gridpoints):    184845 (  188091305).
MG BCs: Computational effort saved:  99.9836%.
MG BCs: Charge after coarse-graining:           -9.0007010.
MG DL_MG: Calling solver with defect correction order = 8
MG DL_MG: Solver finished
MG Hartree energy from (\int phi*rho dr):              1244.710629
MG Hartree energy from (\int eps (grad phi)^2 dr):     1244.071833
MG Discrepancy due to finite box and discretization:     -0.638795 (  -0.05132%)
MG Correction to account for finite box:                  0.456481
MG Remaining discrepancy, due to discretization:         -0.182314 (  -0.01465%)
      ideal mu1:      -0.722878626293
             Q0:  -11642.383552840329
             G0:      -9.718242644720
   RMS gradient:       0.000479232837
MG BCs: +ve charge blocks (gridpoints):     25277 (   17073592).
MG BCs: -ve charge blocks (gridpoints):      8523 (    1070174).
MG BCs:     Elided blocks (gridpoints):    184768 (  188076059).
MG BCs: Computational effort saved:  99.9836%.
MG BCs: Charge after coarse-graining:           -9.0006954.
MG DL_MG: Calling solver with defect correction order = 8
MG DL_MG: Solver finished
MG Hartree energy from (\int phi*rho dr):              1263.316412
MG Hartree energy from (\int eps (grad phi)^2 dr):     1262.671045
MG Discrepancy due to finite box and discretization:     -0.645367 (  -0.05109%)
MG Correction to account for finite box:                  0.456176
MG Remaining discrepancy, due to discretization:         -0.189191 (  -0.01498%)
     Trial step:       0.838526340715
             Q1:  -11640.154528865009
 Quadratic coef:      10.378026418375
 Linear coef   :      -8.149002443055
           Qmin:  -11643.983236588949
Quadratic minimum step length (  0.329212555624) accepted
    Initial Ne1:    7191.99958060
      Final Ne1:    7192.00000000

=================== Penalty functional idempotency correction ==================
 RMS occupancy error at iteration   1:  0.000351 (step -0.4986 Ne1=   7192.0000)
 RMS occupancy error at iteration   2:  0.000000 (step -0.5000 Ne1=   7192.0000)
            Final RMS occupancy error   :  0.000000 (Ne1=   7192.0000)
               Final occupancy bounds   : [  0.0000,  1.0000]
================================================================================

    1        -1.164238355284E+04     4.7923E-04     4.3346E-04
MG BCs: +ve charge blocks (gridpoints):     25231 (   17062111).
MG BCs: -ve charge blocks (gridpoints):      8531 (    1072714).
MG BCs:     Elided blocks (gridpoints):    184814 (  188085000).
MG BCs: Computational effort saved:  99.9836%.
MG BCs: Charge after coarse-graining:           -9.0006986.
MG DL_MG: Calling solver with defect correction order = 8
MG DL_MG: Solver finished
MG Hartree energy from (\int phi*rho dr):              1250.787921
MG Hartree energy from (\int eps (grad phi)^2 dr):     1250.146673
MG Discrepancy due to finite box and discretization:     -0.641248 (  -0.05127%)
MG Correction to account for finite box:                  0.456336
MG Remaining discrepancy, due to discretization:         -0.184912 (  -0.01478%)
      ideal mu1:      -0.730862495729
             Q0:  -11643.950708715245
             G0:      -0.975470855198
   RMS gradient:       0.000152881166
MG BCs: +ve charge blocks (gridpoints):     25237 (   17062160).
MG BCs: -ve charge blocks (gridpoints):      8529 (    1073450).
MG BCs:     Elided blocks (gridpoints):    184808 (  188084215).
MG BCs: Computational effort saved:  99.9836%.
MG BCs: Charge after coarse-graining:           -9.0006984.
MG DL_MG: Calling solver with defect correction order = 8
MG DL_MG: Solver finished
MG Hartree energy from (\int phi*rho dr):              1251.988216
MG Hartree energy from (\int eps (grad phi)^2 dr):     1251.346577
MG Discrepancy due to finite box and discretization:     -0.641639 (  -0.05125%)
MG Correction to account for finite box:                  0.456325
MG Remaining discrepancy, due to discretization:         -0.185314 (  -0.01480%)
     Trial step:       0.525407841191
             Q1:  -11644.145394865191
 Quadratic coef:       0.317833886229
 Linear coef   :      -0.512520036174
           Qmin:  -11644.157323553107
Quadratic minimum step length (  0.423620729948) accepted
    Initial Ne1:    7191.99994507
      Final Ne1:    7192.00000000

=================== Penalty functional idempotency correction ==================
 RMS occupancy error at iteration   1:  0.000141 (step -0.4994 Ne1=   7192.0000)
            Final RMS occupancy error   :  0.000000 (Ne1=   7192.0000)
               Final occupancy bounds   : [ -0.0000,  1.0000]
================================================================================

    2        -1.164395070872E+04     1.5288E-04     1.3828E-04    -1.5672E+00
MG BCs: +ve charge blocks (gridpoints):     25237 (   17062111).
MG BCs: -ve charge blocks (gridpoints):      8529 (    1073332).
MG BCs:     Elided blocks (gridpoints):    184808 (  188084382).
MG BCs: Computational effort saved:  99.9836%.
MG BCs: Charge after coarse-graining:           -9.0006984.
MG DL_MG: Calling solver with defect correction order = 8
MG DL_MG: Solver finished
MG Hartree energy from (\int phi*rho dr):              1251.755384
MG Hartree energy from (\int eps (grad phi)^2 dr):     1251.113823
MG Discrepancy due to finite box and discretization:     -0.641561 (  -0.05125%)
MG Correction to account for finite box:                  0.456327
MG Remaining discrepancy, due to discretization:         -0.185233 (  -0.01480%)
      ideal mu1:      -0.731943955498
             Q0:  -11644.157783372328
             G0:      -0.143771126712
   RMS gradient:       0.000058224127
MG BCs: +ve charge blocks (gridpoints):     25234 (   17061590).
MG BCs: -ve charge blocks (gridpoints):      8529 (    1073666).
MG BCs:     Elided blocks (gridpoints):    184811 (  188084569).
MG BCs: Computational effort saved:  99.9836%.
MG BCs: Charge after coarse-graining:           -9.0006984.
MG DL_MG: Calling solver with defect correction order = 8
MG DL_MG: Solver finished
MG Hartree energy from (\int phi*rho dr):              1251.294841
MG Hartree energy from (\int eps (grad phi)^2 dr):     1250.653325
MG Discrepancy due to finite box and discretization:     -0.641516 (  -0.05127%)
MG Correction to account for finite box:                  0.456312
MG Remaining discrepancy, due to discretization:         -0.185204 (  -0.01480%)
     Trial step:       0.471777122385
             Q1:  -11644.201153480448
 Quadratic coef:       0.024457820322
 Linear coef   :      -0.067827928442
           Qmin:  -11644.204809515870
Quadratic minimum step length (  0.654180635818) accepted
    Initial Ne1:    7192.00057943
      Final Ne1:    7192.00000000

=================== Penalty functional idempotency correction ==================
 RMS occupancy error at iteration   1:  0.000060 (step -0.4998 Ne1=   7192.0000)
            Final RMS occupancy error   :  0.000000 (Ne1=   7192.0000)
               Final occupancy bounds   : [ -0.0000,  1.0000]
================================================================================

    3        -1.164415778337E+04     5.8224E-05     5.2662E-05    -2.0707E-01
MG BCs: +ve charge blocks (gridpoints):     25231 (   17061430).
MG BCs: -ve charge blocks (gridpoints):      8533 (    1073776).
MG BCs:     Elided blocks (gridpoints):    184814 (  188084619).
MG BCs: Computational effort saved:  99.9836%.
MG BCs: Charge after coarse-graining:           -9.0006984.
MG DL_MG: Calling solver with defect correction order = 8
MG DL_MG: Solver finished
MG Hartree energy from (\int phi*rho dr):              1251.116908
MG Hartree energy from (\int eps (grad phi)^2 dr):     1250.475408
MG Discrepancy due to finite box and discretization:     -0.641500 (  -0.05127%)
MG Correction to account for finite box:                  0.456307
MG Remaining discrepancy, due to discretization:         -0.185193 (  -0.01480%)
      ideal mu1:      -0.731086031964
             Q0:  -11644.204892825102
             G0:      -0.034413925625
   RMS gradient:       0.000028478014
MG BCs: +ve charge blocks (gridpoints):     25230 (   17061144).
MG BCs: -ve charge blocks (gridpoints):      8534 (    1073840).
MG BCs:     Elided blocks (gridpoints):    184815 (  188084841).
MG BCs: Computational effort saved:  99.9836%.
MG BCs: Charge after coarse-graining:           -9.0006985.
MG DL_MG: Calling solver with defect correction order = 8
MG DL_MG: Solver finished
MG Hartree energy from (\int phi*rho dr):              1251.108595
MG Hartree energy from (\int eps (grad phi)^2 dr):     1250.467199
MG Discrepancy due to finite box and discretization:     -0.641396 (  -0.05127%)
MG Correction to account for finite box:                  0.456308
MG Remaining discrepancy, due to discretization:         -0.185088 (  -0.01479%)
     Trial step:       0.555542489722
             Q1:  -11644.213271262124
 Quadratic coef:       0.010739960901
 Linear coef   :      -0.019118397923
           Qmin:  -11644.213401076262
Quadratic minimum step length (  0.494465598152) accepted
    Initial Ne1:    7192.00020782
      Final Ne1:    7192.00000000

=================== Penalty functional idempotency correction ==================
 RMS occupancy error at iteration   1:  0.000017 (step -0.4999 Ne1=   7192.0000)
            Final RMS occupancy error   :  0.000000 (Ne1=   7192.0000)
               Final occupancy bounds   : [ -0.0000,  1.0000]
================================================================================

    4        -1.164420489283E+04     2.8478E-05     2.5758E-05    -4.7109E-02
MG BCs: +ve charge blocks (gridpoints):     25230 (   17061164).
MG BCs: -ve charge blocks (gridpoints):      8534 (    1073848).
MG BCs:     Elided blocks (gridpoints):    184815 (  188084813).
MG BCs: Computational effort saved:  99.9836%.
MG BCs: Charge after coarse-graining:           -9.0006985.
MG DL_MG: Calling solver with defect correction order = 8
MG DL_MG: Solver finished
MG Hartree energy from (\int phi*rho dr):              1251.109322
MG Hartree energy from (\int eps (grad phi)^2 dr):     1250.467914
MG Discrepancy due to finite box and discretization:     -0.641408 (  -0.05127%)
MG Correction to account for finite box:                  0.456308
MG Remaining discrepancy, due to discretization:         -0.185100 (  -0.01479%)
      ideal mu1:      -0.730993534324
             Q0:  -11644.213405662798
             G0:      -0.011063856913
   RMS gradient:       0.000016166769
MG BCs: +ve charge blocks (gridpoints):     25230 (   17061666).
MG BCs: -ve charge blocks (gridpoints):      8533 (    1073649).
MG BCs:     Elided blocks (gridpoints):    184815 (  188084510).
MG BCs: Computational effort saved:  99.9836%.
MG BCs: Charge after coarse-graining:           -9.0006984.
MG DL_MG: Calling solver with defect correction order = 8
MG DL_MG: Solver finished
MG Hartree energy from (\int phi*rho dr):              1251.493864
MG Hartree energy from (\int eps (grad phi)^2 dr):     1250.852500
MG Discrepancy due to finite box and discretization:     -0.641364 (  -0.05125%)
MG Correction to account for finite box:                  0.456299
MG Remaining discrepancy, due to discretization:         -0.185065 (  -0.01479%)
     Trial step:       0.524115110905
             Q1:  -11644.216465670033
 Quadratic coef:       0.002738727359
 Linear coef   :      -0.005798734593
           Qmin:  -11644.216475092362
Quadratic minimum step length (  0.554857060664) accepted
    Initial Ne1:    7192.00008631
      Final Ne1:    7192.00000000

=================== Penalty functional idempotency correction ==================
 RMS occupancy error at iteration   1:  0.000009 (step -0.5000 Ne1=   7192.0000)
            Final RMS occupancy error   :  0.000000 (Ne1=   7192.0000)
               Final occupancy bounds   : [ -0.0000,  1.0000]
================================================================================

    5        -1.164421340566E+04     1.6167E-05     1.4622E-05    -8.5128E-03
MG BCs: +ve charge blocks (gridpoints):     25230 (   17061698).
MG BCs: -ve charge blocks (gridpoints):      8533 (    1073637).
MG BCs:     Elided blocks (gridpoints):    184815 (  188084490).
MG BCs: Computational effort saved:  99.9836%.
MG BCs: Charge after coarse-graining:           -9.0006984.
MG DL_MG: Calling solver with defect correction order = 8
MG DL_MG: Solver finished
MG Hartree energy from (\int phi*rho dr):              1251.516445
MG Hartree energy from (\int eps (grad phi)^2 dr):     1250.875084
MG Discrepancy due to finite box and discretization:     -0.641362 (  -0.05125%)
MG Correction to account for finite box:                  0.456299
MG Remaining discrepancy, due to discretization:         -0.185063 (  -0.01479%)
      ideal mu1:      -0.731343922117
             Q0:  -11644.216476010391
             G0:      -0.003405515115
   RMS gradient:       0.000008969422
MG BCs: +ve charge blocks (gridpoints):     25230 (   17061695).
MG BCs: -ve charge blocks (gridpoints):      8533 (    1073657).
MG BCs:     Elided blocks (gridpoints):    184815 (  188084473).
MG BCs: Computational effort saved:  99.9836%.
MG BCs: Charge after coarse-graining:           -9.0006984.
MG DL_MG: Calling solver with defect correction order = 8
MG DL_MG: Solver finished
MG Hartree energy from (\int phi*rho dr):              1251.498470
MG Hartree energy from (\int eps (grad phi)^2 dr):     1250.857115
MG Discrepancy due to finite box and discretization:     -0.641355 (  -0.05125%)
MG Correction to account for finite box:                  0.456296
MG Remaining discrepancy, due to discretization:         -0.185059 (  -0.01479%)
     Trial step:       0.539267067311
             Q1:  -11644.217618628987
 Quadratic coef:       0.000693863552
 Linear coef   :      -0.001836482149
           Qmin:  -11644.217691186874
Quadratic minimum step length (  0.713652085573) accepted
    Initial Ne1:    7192.00004012
      Final Ne1:    7192.00000000

=================== Penalty functional idempotency correction ==================
 RMS occupancy error at iteration   1:  0.000005 (step -0.4999 Ne1=   7192.0000)
            Final RMS occupancy error   :  0.000000 (Ne1=   7192.0000)
               Final occupancy bounds   : [ -0.0000,  1.0000]
================================================================================

    6        -1.164421647601E+04     8.9694E-06     8.1126E-06    -3.0703E-03
MG BCs: +ve charge blocks (gridpoints):     25230 (   17061697).
MG BCs: -ve charge blocks (gridpoints):      8533 (    1073657).
MG BCs:     Elided blocks (gridpoints):    184815 (  188084471).
MG BCs: Computational effort saved:  99.9836%.
MG BCs: Charge after coarse-graining:           -9.0006984.
MG DL_MG: Calling solver with defect correction order = 8
MG DL_MG: Solver finished
MG Hartree energy from (\int phi*rho dr):              1251.492634
MG Hartree energy from (\int eps (grad phi)^2 dr):     1250.851281
MG Discrepancy due to finite box and discretization:     -0.641353 (  -0.05125%)
MG Correction to account for finite box:                  0.456295
MG Remaining discrepancy, due to discretization:         -0.185057 (  -0.01479%)
      ideal mu1:      -0.731326812715
             Q0:  -11644.217691262136
             G0:      -0.001974774634
   RMS gradient:       0.000006831428
MG BCs: +ve charge blocks (gridpoints):     25230 (   17061476).
MG BCs: -ve charge blocks (gridpoints):      8533 (    1073726).
MG BCs:     Elided blocks (gridpoints):    184815 (  188084623).
MG BCs: Computational effort saved:  99.9836%.
MG BCs: Charge after coarse-graining:           -9.0006984.
MG DL_MG: Calling solver with defect correction order = 8
MG DL_MG: Solver finished
MG Hartree energy from (\int phi*rho dr):              1251.375723
MG Hartree energy from (\int eps (grad phi)^2 dr):     1250.734360
MG Discrepancy due to finite box and discretization:     -0.641363 (  -0.05125%)
MG Correction to account for finite box:                  0.456298
MG Remaining discrepancy, due to discretization:         -0.185065 (  -0.01479%)
     Trial step:       0.620362045315
             Q1:  -11644.218116818229
 Quadratic coef:       0.000799519139
 Linear coef   :      -0.001225075231
           Qmin:  -11644.218160547125
Quadratic minimum step length (  0.475279539225) accepted
    Initial Ne1:    7192.00000535
      Final Ne1:    7192.00000000

=================== Penalty functional idempotency correction ==================
 RMS occupancy error at iteration   1:  0.000000 (step -0.5000 Ne1=   7192.0000)
            Final RMS occupancy error   :  0.000000 (Ne1=   7192.0000)
               Final occupancy bounds   : [  0.0000,  1.0000]
================================================================================

    7        -1.164421769126E+04     6.8314E-06     6.1789E-06    -1.2153E-03
MG BCs: +ve charge blocks (gridpoints):     25230 (   17061515).
MG BCs: -ve charge blocks (gridpoints):      8533 (    1073720).
MG BCs:     Elided blocks (gridpoints):    184815 (  188084590).
MG BCs: Computational effort saved:  99.9836%.
MG BCs: Charge after coarse-graining:           -9.0006984.
MG DL_MG: Calling solver with defect correction order = 8
MG DL_MG: Solver finished
MG Hartree energy from (\int phi*rho dr):              1251.403021
MG Hartree energy from (\int eps (grad phi)^2 dr):     1250.761660
MG Discrepancy due to finite box and discretization:     -0.641361 (  -0.05125%)
MG Correction to account for finite box:                  0.456297
MG Remaining discrepancy, due to discretization:         -0.185063 (  -0.01479%)
      ideal mu1:      -0.731218894784
             Q0:  -11644.218160532881
             G0:      -0.001256157711
   RMS gradient:       0.000005448377
MG BCs: +ve charge blocks (gridpoints):     25230 (   17061467).
MG BCs: -ve charge blocks (gridpoints):      8533 (    1073731).
MG BCs:     Elided blocks (gridpoints):    184815 (  188084627).
MG BCs: Computational effort saved:  99.9836%.
MG BCs: Charge after coarse-graining:           -9.0006984.
MG DL_MG: Calling solver with defect correction order = 8
MG DL_MG: Solver finished
MG Hartree energy from (\int phi*rho dr):              1251.354497
MG Hartree energy from (\int eps (grad phi)^2 dr):     1250.713127
MG Discrepancy due to finite box and discretization:     -0.641370 (  -0.05125%)
MG Correction to account for finite box:                  0.456300
MG Remaining discrepancy, due to discretization:         -0.185070 (  -0.01479%)
     Trial step:       0.542996673148
             Q1:  -11644.218709046720
 Quadratic coef:       0.000133575619
 Linear coef   :      -0.000682089458
           Qmin:  -11644.219031286902
Quadratic minimum step length (  1.386376908018) accepted
    Initial Ne1:    7192.00000987
      Final Ne1:    7192.00000000

=================== Penalty functional idempotency correction ==================
 RMS occupancy error at iteration   1:  0.000010 (step -0.4995 Ne1=   7192.0000)
            Final RMS occupancy error   :  0.000000 (Ne1=   7192.0000)
               Final occupancy bounds   : [ -0.0000,  1.0000]
================================================================================

    8        -1.164421816053E+04     5.4484E-06     4.9279E-06    -4.6927E-04
MG BCs: +ve charge blocks (gridpoints):     25230 (   17061383).
MG BCs: -ve charge blocks (gridpoints):      8533 (    1073765).
MG BCs:     Elided blocks (gridpoints):    184815 (  188084677).
MG BCs: Computational effort saved:  99.9836%.
MG BCs: Charge after coarse-graining:           -9.0006984.
MG DL_MG: Calling solver with defect correction order = 8
MG DL_MG: Solver finished
[...]
MG Discrepancy due to finite box and discretization:     -0.190270 (  -0.01574%)
MG Correction to account for finite box:                  0.006269
MG Remaining discrepancy, due to discretization:         -0.184001 (  -0.01522%)
     Trial step:       0.790981192682
             Q1:  -11678.533450135961
 Quadratic coef:       0.000000005850
 Linear coef   :      -0.000000009342
           Qmin:  -11678.533450136198
Quadratic minimum step length (  0.631549148990) accepted
    Initial Ne1:    7192.00000000
      Final Ne1:    7192.00000000

=================== Penalty functional idempotency correction ==================
 RMS occupancy error at iteration   1:  0.000000 (step -0.5000 Ne1=   7192.0000)
            Final RMS occupancy error   :  0.000000 (Ne1=   7192.0000)
               Final occupancy bounds   : [  0.0000,  1.0000]
================================================================================

    7        -1.167853345013E+04     1.6706E-08     1.5110E-08    -7.4506E-09

Reusing previously generated solute cavity.
MG BCs: +ve charge blocks (gridpoints):     29821 (   19379151).
MG BCs: -ve charge blocks (gridpoints):      8507 (    1043005).
MG BCs:     Elided blocks (gridpoints):    180224 (  185797669).
MG BCs: Computational effort saved:  99.9814%.
MG BCs: Charge after coarse-graining:           -9.0009927.
MG DL_MG: Calling solver with defect correction order = 8
MG DL_MG: Solver finished
MG Hartree energy from (\int phi*rho dr):              1209.096748
MG Hartree energy from (\int eps (grad phi)^2 dr):     1208.906478
MG Discrepancy due to finite box and discretization:     -0.190270 (  -0.01574%)
MG Correction to account for finite box:                  0.006269
MG Remaining discrepancy, due to discretization:         -0.184001 (  -0.01522%)
      ideal mu1:      -0.482148583172
             Q0:  -11678.533450136310
             G0:      -0.000000005691
   RMS gradient:       0.000000013314

Reusing previously generated solute cavity.
MG BCs: +ve charge blocks (gridpoints):     29821 (   19379151).
MG BCs: -ve charge blocks (gridpoints):      8507 (    1043005).
MG BCs:     Elided blocks (gridpoints):    180224 (  185797669).
MG BCs: Computational effort saved:  99.9814%.
MG BCs: Charge after coarse-graining:           -9.0009927.
MG DL_MG: Calling solver with defect correction order = 8
MG DL_MG: Solver finished
MG Hartree energy from (\int phi*rho dr):              1209.096770
MG Hartree energy from (\int eps (grad phi)^2 dr):     1208.906501
MG Discrepancy due to finite box and discretization:     -0.190270 (  -0.01574%)
MG Correction to account for finite box:                  0.006269
MG Remaining discrepancy, due to discretization:         -0.184001 (  -0.01522%)
     Trial step:       0.706783912596
             Q1:  -11678.533450138406
 Quadratic coef:       0.000000001926
 Linear coef   :      -0.000000004022
           Qmin:  -11678.533450138410
Quadratic minimum step length (  0.737873069679) accepted
    Initial Ne1:    7192.00000000
      Final Ne1:    7192.00000000

=================== Penalty functional idempotency correction ==================
 RMS occupancy error at iteration   1:  0.000000 (step -0.5000 Ne1=   7192.0000)
            Final RMS occupancy error   :  0.000000 (Ne1=   7192.0000)
               Final occupancy bounds   : [  0.0000,  1.0000]
================================================================================

    8        -1.167853345014E+04     1.3314E-08     1.2043E-08    -3.8417E-09

Reusing previously generated solute cavity.
MG BCs: +ve charge blocks (gridpoints):     29821 (   19379151).
MG BCs: -ve charge blocks (gridpoints):      8507 (    1043005).
MG BCs:     Elided blocks (gridpoints):    180224 (  185797669).
MG BCs: Computational effort saved:  99.9814%.
MG BCs: Charge after coarse-graining:           -9.0009927.
MG DL_MG: Calling solver with defect correction order = 8
MG DL_MG: Solver finished
MG Hartree energy from (\int phi*rho dr):              1209.096771
MG Hartree energy from (\int eps (grad phi)^2 dr):     1208.906502
MG Discrepancy due to finite box and discretization:     -0.190270 (  -0.01574%)
MG Correction to account for finite box:                  0.006269
MG Remaining discrepancy, due to discretization:         -0.184001 (  -0.01522%)
      ideal mu1:      -0.482148566883
             Q0:  -11678.533450138406
             G0:      -0.000000003959
   RMS gradient:       0.000000008994

Reusing previously generated solute cavity.
MG BCs: +ve charge blocks (gridpoints):     29821 (   19379151).
MG BCs: -ve charge blocks (gridpoints):      8507 (    1043005).
MG BCs:     Elided blocks (gridpoints):    180224 (  185797669).
MG BCs: Computational effort saved:  99.9814%.
MG BCs: Charge after coarse-graining:           -9.0009927.
MG DL_MG: Calling solver with defect correction order = 8
MG DL_MG: Solver finished
MG Hartree energy from (\int phi*rho dr):              1209.096690
MG Hartree energy from (\int eps (grad phi)^2 dr):     1208.906420
MG Discrepancy due to finite box and discretization:     -0.190270 (  -0.01574%)
MG Correction to account for finite box:                  0.006269
MG Remaining discrepancy, due to discretization:         -0.184001 (  -0.01522%)
     Trial step:       0.722161211356
             Q1:  -11678.533450140501
 Quadratic coef:       0.000000000764
 Linear coef   :      -0.000000002859
           Qmin:  -11678.533450141080
Quadratic minimum step length (  1.351144503952) accepted
    Initial Ne1:    7192.00000000
      Final Ne1:    7192.00000000

=================== Penalty functional idempotency correction ==================
 RMS occupancy error at iteration   1:  0.000000 (step -0.5000 Ne1=   7192.0000)
            Final RMS occupancy error   :  0.000000 (Ne1=   7192.0000)
               Final occupancy bounds   : [  0.0000,  1.0000]
================================================================================

    9        -1.167853345014E+04     8.9938E-09     8.1347E-09    -2.0955E-09

Reusing previously generated solute cavity.
MG BCs: +ve charge blocks (gridpoints):     29821 (   19379150).
MG BCs: -ve charge blocks (gridpoints):      8507 (    1043005).
MG BCs:     Elided blocks (gridpoints):    180224 (  185797670).
MG BCs: Computational effort saved:  99.9814%.
MG BCs: Charge after coarse-graining:           -9.0009927.
MG DL_MG: Calling solver with defect correction order = 8
MG DL_MG: Solver finished
MG Hartree energy from (\int phi*rho dr):              1209.096619
MG Hartree energy from (\int eps (grad phi)^2 dr):     1208.906349
MG Discrepancy due to finite box and discretization:     -0.190270 (  -0.01574%)
MG Correction to account for finite box:                  0.006269
MG Remaining discrepancy, due to discretization:         -0.184001 (  -0.01522%)
      ideal mu1:      -0.482148490443
   10        -1.167853345014E+04     1.5467E-08     1.3989E-08    -1.9791E-09
Finished density kernel iterations (  10)

Writing density kernel to file "host_17961.dkn" ... done


>>> Density kernel optimised for the current NGWF basis:
     ~~~~~~~~~~~~~~~~~~~~~~~~~~~~~~~~~~~~~~~~~~~~~~~~~~~~~~~~~~~
     Total energy                =  -1.16785334501404E+04  Eh
     Estimated bandgap           =   8.0480E-02  Eh
     RMS occupancy error         =   6.6314E-16
     [H,K] commutator            =   1.3989E-08
     Occupancy bounds            = [  0.000:  1.000]
     ~~~~~~~~~~~~~~~~~~~~~~~~~~~~~~~~~~~~~~~~~~~~~~~~~~~~~~~~~~~




################################################################################
########################### NGWF CG iteration  004 #############################
################################################################################
****** Reciprocal space K.E. preconditioning with k_zero =  3.5000 a0^-1 *******

>>> Checking for convergence of NGWFs: 
           ........................................................
           |         *** NGWF optimisation converged ***          |
           | RMS NGWF gradient =    0.00000196991193              |
           | Criteria satisfied:                                  |
           | -> RMS NGWF gradient lower than set threshold.       |
           ========================================================

Reusing previously generated solute cavity.
MG BCs: +ve charge blocks (gridpoints):     29821 (   19379150).
MG BCs: -ve charge blocks (gridpoints):      8507 (    1043005).
MG BCs:     Elided blocks (gridpoints):    180224 (  185797670).
MG BCs: Computational effort saved:  99.9814%.
MG BCs: Charge after coarse-graining:           -9.0009927.
MG DL_MG: Calling solver with defect correction order = 8
MG DL_MG: Solver finished
MG Hartree energy from (\int phi*rho dr):              1209.096619
MG Hartree energy from (\int eps (grad phi)^2 dr):     1208.906349
MG Discrepancy due to finite box and discretization:     -0.190270 (  -0.01574%)
MG Correction to account for finite box:                  0.006269
MG Remaining discrepancy, due to discretization:         -0.184001 (  -0.01522%)

================================================================================
           ---------------- ENERGY COMPONENTS (Eh) ----------------
           | Kinetic                    :     8528.30179332781154 |
           | Pseudo. (local,OBC,corr'd) :    -5050.32614893646314 |
           | Pseudopotential (non-local):     1403.45401396370107 |
           | Hartree (molecular)        :     1209.09661878519341 |
           | Exchange-correlation       :    -3357.42718952359837 |
           | Ion-ion (open BC)          :   808530.21443523955531 |
           | Dispersion Correction      :       -3.23935891529955 |
           | Smeared ion non-self corr. :  -808482.09993675712030 |
           | Smeared ion self corr.     :   -14457.16956389741972 |
           | Solvent cavitation energy  :        2.35483971655927 |
           | Solute-solvent dis-rep en. :       -1.69295314322737 |
           | Total                      :   -11678.53345014029037 |
           --------------------------------------------------------
           ------ LOCAL ENERGY COMPONENTS FROM MATRIX TRACES ------
           | Pseudopotential (local)    :    -5050.32614893647951 |
           | Hartree                    :    -1993.99317565328602 |
           --------------------------------------------------------
           Integrated density           :     7191.99999999886586
           Integrated density tr(KS)    :     7192.00000000000000
================================================================================


                        <<<<< CALCULATION SUMMARY >>>>>                         
|ITER|    RMS GRADIENT   |     TOTAL ENERGY    |   step   |     Epredicted              
   0     0.00004106819502 -11678.46727194823325   0.625000 -11678.52430094603005        
   1     0.00000980497660 -11678.53292298573069   0.083431 -11678.53335691870961        
   2     0.00000435329421 -11678.53343191568274   0.015478 -11678.53344778476458        
   3     0.00000196991193 -11678.53345014038496  <-- CG                                 

=================== Finished the calculation in solvent ========================
= Adjusting the following parameters: 
= read_denskern: F
= read_tightbox_ngwfs: F
= maxit_pen: 0 (restored to user-specified value)
= restart read filename prefix: ""
= restart write filename prefix: ""
================================================================================

================================================================================
IS: Calculation in solvent completed (NGWFs converged).      

Individual components of total energy in solvent:     hartree           kcal/mol
- Usual non-electrostatic DFT terms:    -12888.29195549891119    -8087525.131107
- Electrostatic fixed charge energy:      1209.09661878519341      758719.566885
- Apolar cavitation energy:                  2.35483971655927        1477.684200
- Apolar dispersion-repulsion energy:       -1.69295314322737       -1062.344113
 -------------------------------------------------------------------------------
- Total energy in solvent:              -11678.53345014038496    -7328390.224136

Components of total energy in solvent:                hartree           kcal/mol
- Usual non-electrostatic DFT terms:    -12888.29195549891119    -8087525.131107
- Electrostatic energy:                   1209.09661878519341      758719.566885
- Apolar energy terms:                       0.66188657333190         415.340087
 -------------------------------------------------------------------------------
- Total energy in solvent:              -11678.53345014038496    -7328390.224136

Calculation of free energy of solvation:              hartree           kcal/mol
- Total energy in solvent:         (+)  -11678.53345014038496    -7328390.224136
- Total energy in vacuum:          (-)  -11674.56391258700751    -7325899.301767
 -------------------------------------------------------------------------------
- Total free energy of solvation:           -3.96953755337745       -2490.922368

Components of polar term in f.e. of solvation:        hartree           kcal/mol
- Electrostatic:                            -4.77359612308533       -2995.476728
- Change in nonelectrostatic DFT terms:      0.14217199637460          89.214273
 -------------------------------------------------------------------------------
- Polar term in f.e. of solvation:          -4.63142412671073       -2906.262455

Components of free energy of solvation:               hartree           kcal/mol
- Polar term in f.e. of solvation: (+)      -4.63142412671073       -2906.262455
- Apolar (cavitation, dis., rep.): (+)       0.66188657333190         415.340087
 -------------------------------------------------------------------------------
- Total free energy of solvation:           -3.96953755337883       -2490.922368
================================================================================


------------------------------ TIMING INFORMATION ------------------------------
AVERAGE TIME:   35055.605s on     60 node(s)                                    
TOTAL TIME:     35055.606s on     60 node(s)                                    
================= AVERAGE TIMINGS FROM ALL NODES (CUMULATIVE) ==================
|| TAG                                    #calls    cpu time   %total  Gflops ||
|| work_imbalance                       :     1        0.00s   0.000%  ------ ||
|| sparse_set_to_garbage                :   188        0.03s   0.000%  ------ ||
|| parallel_prepare_fd_halos_request    :  2061        0.03s   0.000%  ------ ||
|| ngwfs_initialise_from_radial         :     1        0.10s   0.000%  ------ ||
|| basis_extract_function_from_box      :  3794        0.17s   0.000%  ------ ||
|| parallel_prepare_fd_halos_satisfy    :  2061        0.70s   0.002%  ------ ||
|| parallel_prepare_fd_halos_alloc      :  2061        1.70s   0.005%  ------ ||
|| pseudopotentials_nonlocal_mat        :    32        2.40s   0.007%  ------ ||
|| openbc_locps_radial                  :     1        4.78s   0.014%  ------ ||
|| restart_kernel_read                  :     1        8.55s   0.024%  ------ ||
|| parallel_prepare_fd_halos_comms_imbal:  2061       10.87s   0.031%  ------ ||
|| restart_ngwfs_tightbox_input         :     1       11.75s   0.034%  ------ ||
|| density_init_guess_real              :     1       17.47s   0.050%  ------ ||
|| parallel_prepare_fd_halos_clear      :  2061       21.23s   0.061%  ------ ||
|| sparse_init                          :     2       23.09s   0.066%  ------ ||
|| parallel_prepare_fd_halos_comms_wait :  2061       30.09s   0.086%  ------ ||
|| projectors_func_ovlp_box             :    32       30.66s   0.087%  ------ ||
|| function_ops_brappd_ketppd           :    32       33.16s   0.095%  ------ ||
|| palser_mano_kernel_optimise          :     1       33.61s   0.096%  ------ ||
|| projectors_init_fftbox_recip         :   151       34.22s   0.098%  ------ ||
|| basis_copy_function_to_box           : 61580       44.05s   0.126%  ------ ||
|| fourier_apply_box_pair               :  5427       56.27s   0.161% 558.409 ||
|| ngwf_gradient_coeffs                 :    17       56.62s   0.162%  ------ ||
|| pseudo_make_structure_factor         :     2       59.98s   0.171%  ------ ||
|| parallel_prepare_fd_halos            :  2061       64.65s   0.184%  ------ ||
|| sparse_embed_hotelling_invert_embed  :    32       87.25s   0.249%  ------ ||
|| restart_kernel_write                 :    18      113.64s   0.324%  ------ ||
|| finite_difference_derivative         :  2061      154.65s   0.441%  ------ ||
|| projectors_gradient_batch            :   119      160.05s   0.457%  ------ ||
|| integrals_kinetic                    :    32      165.61s   0.472%  ------ ||
|| basis_dot_function_with_box          : 9.208M     184.88s   0.527%  ------ ||
|| fourier_apply_cell_backward          :  1375      218.24s   0.623%  92.314 ||
|| sparse_trace                         :  5509      222.63s   0.635%  ------ ||
|| fourier_apply_cell_forward           :  1373      281.30s   0.802%  71.516 ||
|| openbc_locps_on_grid                 :     2      298.34s   0.851%  ------ ||
|| kernel_purify                        :   525      344.34s   0.982%  ------ ||
|| basis_add_function_to_box            : 19.19M     444.85s   1.269%  ------ ||
|| hamiltonian_energy_components        :     4      508.62s   1.451%  ------ ||
|| lnv_gradient_norm                    :   170      516.98s   1.475%  ------ ||
|| xc_energy_potential                  :   343      571.82s   1.631%  ------ ||
|| kernel_fix                           :   170      581.88s   1.660%  ------ ||
|| ngwf_gradient_build_batch            :   119      832.35s   2.374%  ------ ||
|| integrals_locpot_mat_els_batch       :  1253      858.91s   2.450%  ------ ||
|| ngwf_gradient_batch                  :   119     1173.66s   3.348%  ------ ||
|| density_batch_row_sums               :  2394     1204.72s   3.437%  ------ ||
|| restart_ngwfs_tightbox_output        :    15     1222.98s   3.489%  ------ ||
|| ngwf_gradient_lnv                    :    17     1342.60s   3.830%  ------ ||
|| cell_grid_deposit_box_real           : 39382     1426.46s   4.069%  ------ ||
|| cell_grid_extract_box_real           : 44524     1718.04s   4.901%  ------ ||
|| density_fftbox_deposit_to_cell       : 37278     2057.63s   5.870%  ------ ||
|| sparse_product                       :  6974     2077.23s   5.926%  ------ ||
|| potential_apply_to_ngwf_batch        :  1253     3848.97s  10.980%  ------ ||
|| density_fftbox_interpolate_multiply  : 37278     3879.84s  11.068%  ------ ||
|| integrals_locpot_dbl_grid            :   179     4730.95s  13.496%  ------ ||
|| fourier_apply_box                    : 128.5k    4765.15s  13.593% 756.761 ||
|| multigrid_prepare_bound_cond         :   343     5120.68s  14.607%  ------ ||
|| density_batch_interp_deposit         :  2394     6891.95s  19.660%  ------ ||
|| density_on_dbl_grid                  :   342     8551.57s  24.394%  ------ ||
|| dl_mg_solver_calls                   :   343     9194.30s  26.228%  ------ ||
|| multigrid_calculate_hartree          :   343    14534.04s  41.460%  ------ ||
|| hamiltonian_lhxc_calculate           :   338    23621.04s  67.382%  ------ ||
|| lnv_denskernel_optimise_cg           :    17    29431.10s  83.955%  ------ ||
|| ngwf_cg_optimise                     :     2    34007.90s  97.011%  ------ ||
|| total_time                           :     1    35055.61s 100.000%  ------ ||
================================================================================
Overhead of generating timer report: 
- 0 ms averaging over threads,
- 63 ms ensuring consistency across MPI ranks,
- 0 ms printing in order.

Job completed: 16-03-2020 18:38 (-0000)

Application 39828660 resources: utime ~7316259s, stime ~243490s, Rss ~3682348, inblocks ~370048202, outblocks ~70235204
