 +---------------------------------------------------------------+
 |                                                               |
 |        ####### #     # ####### ####### ####### ######         |
 |        #     # ##    # #          #    #       #     #        |
 |        #     # # #   # #          #    #       #     #        |
 |        #     # #  #  # #####      #    #####   ######         |
 |        #     # #   # # #          #    #       #              |
 |        #     # #    ## #          #    #       #              |
 |        ####### #     # #######    #    ####### #              |
 |                                                               |
 |        Linear-Scaling Ab Initio Total Energy Program          |
 |                                                               |
 |          Release for academic collaborators of ODG            |
 |                                             Version 5.3.2.6.  |
 |                                                               |
 +---------------------------------------------------------------+
 |                                                               |
 |  Authors:                                                     |
 |  Jacek Dziedzic, Peter D. Haynes, Nicholas D. M. Hine,        |
 |  Arash. A. Mostofi, Mike C. Payne and Chris-Kriton Skylaris   |
 |                                                               |
 |  Contributors:                                                |
 |  J. Aarons, L. Andrinopoulos, P. W. Avraam, R. A. Bell,       |
 |  A. Bhandari, G. A. Bramley, R. J. Charlton, S. J. Clark,     |
 |  R. J. Clements, G. C. Constantinescu, F. Corsetti,           |
 |  N. Corsini, O. Dieguez, S. M. M. Dubois, K. K. B. Duff,      |
 |  J. M. Escartin, A. Greco, H. Helal, Q. O. Hill, L. P. Lee,   |
 |  J.-H. Li, E. B. Linscott, G. Moynihan, D. D. O`Regan,        |
 |  O. K. Okan, M. J. S. Phipps, C. J. Pickard,                  |
 |  J. C. A. Prentice, M. I. J. Probert, L. E. Ratcliff,         |
 |  M. Robinson, A. Ruiz Serrano, J. S. Spencer, E. W. Tait,     |
 |  G. Teobaldi, D. Turban, V. Vitale, K. A. Wilkinson,          |
 |  C. Weber, J. C. Womack, N. Yeung and T. J. Zuehlsdorff       |
 |                                                               |
 |                                   Copyright (c) 2004-2019     |
 |                                                               |
 |  Please cite:                                                 |
 |  "Introducing ONETEP: Linear-scaling density functional       |
 |   simulations on parallel computers".                         |
 |   C.-K. Skylaris, P. D. Haynes, A. A. Mostofi, M. C. Payne.   |
 |   J. Chem. Phys. 122 084119 (2005).                           |
 |                                                               |
 |          in all publications arising from your use of ONETEP. |
 |                                                               |
 +---------------------------------------------------------------+
 |                                                               |
 |   ONETEP is based on developments described in the following  |
 |   publications:                                               |
 |                                                               |
 |  "Nonorthogonal generalized Wannier function pseudopotential  |
 |   plane-wave method".                                         |
 |   C.-K. Skylaris, A. A. Mostofi, P. D. Haynes, O. Dieguez,    |
 |   M. C. Payne.                                                |
 |   Phys. Rev. B 66 035119 (2002).                              |
 |                                                               |
 |  "Preconditioned iterative minimization for linear-scaling    |
 |   electronic structure calculations".                         |
 |   A. A. Mostofi, P. D. Haynes, C.-K. Skylaris, M. C. Payne.   |
 |   J. Chem. Phys. 119(17), pp.8842-8848 (2003).                |
 |                                                               |
 |  "Total-energy calculations on a real space grid with         |
 |   localized functions and a plane-wave basis".                |
 |   A. A. Mostofi, C.-K. Skylaris, P. D. Haynes, M. C. Payne.   |
 |   Comput. Phys. Commun. 147, pp.788-802 (2002).               |
 |                                                               |
 |  "Accurate kinetic energy evaluation in electronic structure  |
 |   calculations with localized functions on real space grids"  |
 |   C.-K. Skylaris, A. A. Mostofi, P. D. Haynes, C. J. Pickard, |
 |   M. C. Payne.                                                |
 |   Comput. Phys. Commun. 140, pp.315-322 (2001).               |
 |                                                               |
 |  "Accurate ionic forces and geometry optimization in linear-  |
 |   scaling density-functional theory with local orbitals"      |
 |   N. D. M. Hine, M. Robinson, P. D. Haynes, C.-K. Skylaris,   |
 |   M. C. Payne, and A. A. Mostofi.                             |
 |   Phys. Rev. B 83 195102 (2011).                              |
 |                                                               |
 +---------------------------------------------------------------+

Job started: 27-04-2020 14:19 (+0100)
 
Reading parameters from file "host_4661.dat" ...... done

If your calculation crashes here, before "Checking processes and threads..."
is displayed, then your stack size is insufficient.
If so, use "ulimit -s unlimited" at runtime.
You can disable this check with "check_stack_size F".

Checking processes and threads...
   Determining the default number of threads...
      No default threads set at compilation time: defaulting to 1.
      OpenMP library call suggests 4 threads.
      Hybrid MPI-OpenMP compilation detected.
      Number of MPI processes > 1.
      OMP_NUM_THREADS environment variable present and
      its value matches the one obtained from the OpenMP library call.
      Using this value as default.
      Default threads: 4
      Default applies to threads_max and threads_num_fftboxes.
      Settings in the input file override this default.
   ... done

   Running with 40 MPI processes.
   There are 10 MPI processes running on the same node as the root process.
   Each MPI process is using: 
               1 threads for simulation cell FFTs.
               1 threads for parallel FFT box operations.
               4 threads for loops over batched FFT box operations.
               4 threads in other parallel regions.
... done

Basic input checks...... done

Reading geometry and species blocks from file "host_4661.dat" ...
  <species_atomic_set> block not found: NGWF initialisation set to SOLVE
IS: Dielectric excluded regions:
    - NONE.
    
  Number of PPD points along a3 set to 1.  This is 
  the default value, it may have been provided also in the input file.
... done
 Writing xyz coordinates to file "host_4661.xyz" ... done


--------------------------------------------------------------------------------
---------------------------------- INPUT FILE ----------------------------------
--------------------------------------------------------------------------------

cutoff_energy       : 800 eV                                                    
xc_functional PBE                                                               
task SINGLEPOINT                                                                
write_xyz true                                                                  
output_detail VERBOSE                                                           
ngwf_threshold_orig : 0.000002                                                  
kernel_cutoff       : 1000                                                      
k_zero              : 3.5                                                       
elec_cg_max 0                                                                   
occ_mix 1.0                                                                     
dispersion 1                                                                    
maxit_ngwf_cg 40                                                                
minit_lnv 10                                                                    
maxit_lnv 10                                                                    
write_denskern T                                                                
write_tightbox_ngwfs T                                                          
charge 9                                                                        
is_implicit_solvent T                                                           
is_auto_solvation T                                                             
is_include_apolar T                                                             
is_smeared_ion_rep T                                                            
is_solvent_surf_tension 4.7624E-5 Ha/bohr**2                                    
is_apolar_scaling_factor 0.281075                                               
is_solvation_beta 1.3                                                           
is_density_threshold 0.00035                                                    
is_bulk_permittivity 78.54                                                      
is_dielectric_model fix_initial                                                 
is_smeared_ion_width 0.8                                                        
mg_defco_fd_order 8                                                             
is_bc_coarseness 10                                                             
is_bc_surface_coarseness 1                                                      
fine_grid_scale 2.0                                                             
%block species                                                                  
N   N   7 4 8.0                                                                 
H   H   1 1 8.0                                                                 
C   C   6 4 8.0                                                                 
S   S  16 9 8.0                                                                 
O   O   8 4 8.0                                                                 
%endblock species                                                               
%block species_pot                                                              
N   N_00.recpot                                                                 
H   H_04.recpot                                                                 
C   C_01.recpot                                                                 
S   S_00.recpot                                                                 
O   O_02.recpot                                                                 
%endblock species_pot                                                           
%block lattice_cart                                                             
139.898   0.000   0.000                                                         
0.000 144.87   0.000                                                            
0.000   0.000   168.12                                                          
%endblock lattice_cart                                                          
%block positions_abs                                                            
     Hash =  -000008620191440942805534
%endblock positions_abs                                                         

--------------------------------------------------------------------------------
-------------------------------- END INPUT FILE --------------------------------
--------------------------------------------------------------------------------


 
 ESDF WARNING(1): "kernelcutoff" (esdf_physical) has no units. Assume "bohr".
 ESDF WARNING(2): "kzero" (esdf_physical) has no units. Assume "1/bohr".
 ESDF WARNING(3
 ): "issmearedionwidth" (esdf_physical) has no units. Assume "bohr".
<<<<<<<<<<<<<<<<<<<<<<<<<<<<<<<<< Full system >>>>>>>>>>>>>>>>>>>>>>>>>>>>>>>>>>
<<<<<<<<<<<<<<<<<<<<<<<<< Pseudopotential information >>>>>>>>>>>>>>>>>>>>>>>>>>
File: N_00.recpot [ 2001 points up to Gmax=  52.9 (1/bohr)]
  Atomic number:  7;  ionic charge:  5.000000
    Shell 1: l = 0; rc = 1.48 bohr
File: H_04.recpot [ 2001 points up to Gmax=  52.9 (1/bohr)]
  Atomic number:  1;  ionic charge:  1.000000
    Local potential
File: C_01.recpot [ 2001 points up to Gmax=  52.9 (1/bohr)]
  Atomic number:  6;  ionic charge:  4.000000
    Shell 1: l = 0; rc = 1.48 bohr
File: S_00.recpot [ 2001 points up to Gmax=  52.9 (1/bohr)]
  Atomic number: 16;  ionic charge:  6.000000
    Shell 1: l = 0; rc = 1.90 bohr
    Shell 2: l = 2; rc = 1.84 bohr
File: O_02.recpot [ 2001 points up to Gmax=  52.9 (1/bohr)]
  Atomic number:  8;  ionic charge:  6.000000
    Shell 1: l = 0; rc = 1.31 bohr
<<<<<<<<<<<<<<<<<<<<<<<<<<<<<<<<<<<<<<<<>>>>>>>>>>>>>>>>>>>>>>>>>>>>>>>>>>>>>>>>

-------------------------- Atom counting information ---------------------------
Symbol    Natoms    Nngwfs    Nprojs
  N        236       944       236
  H       1311      1311         0
  C        810      3240       810
  S          6        54        36
  O        239       956       239
.......   ......    ......    ......
Totals:   2602      6505      1321
--------------------------------------------------------------------------------

=============================== PSINC grid sizes ===============================
                      Simulation cell:  275 x 286 x 336
                              FFT-box:   99 x  99 x  99
                                  PPD:    5 x  11 x   1
Grid space d1=  0.508720000000a0 (KE cutoff=  29.35259Eh = 798.72452eV)
Grid space d2=  0.506538461538a0 (KE cutoff=  29.60596Eh = 805.61916eV)
Grid space d3=  0.500357142857a0 (KE cutoff=  30.34197Eh = 825.64705eV)
================================================================================

********************* Fourier parallelisation information **********************
       Coarse grid (whole simulation cell) dimensions:    275   286   336
          Real-space ('12') slabs/node (min max mean):      8     9     8
         Recip-space ('23') slabs/node (min max mean):      3     4     3
********************************************************************************

********************* Fourier parallelisation information **********************
       Double grid (whole simulation cell) dimensions:    550   572   672
          Real-space ('12') slabs/node (min max mean):     16    17    16
         Recip-space ('23') slabs/node (min max mean):      6     7     6
********************************************************************************
ONETEP fine grid is 550 x 572 x 672 gridpoints, 139.8980 x 144.8700 x 168.1200 bohr.
FD multigrid is     545 x 569 x 665 gridpoints, 138.6262 x 144.1102 x 166.3688 bohr.


Calculating local pseudopotential in open BC on a radial grid ...
Discrepancy between calculated realspace psloc and -Z/x on [5a0,262.342a0]:
max |rel. diff| # avg |rel. diff| #  avg rel. diff #  f # pseudopotential file
 0.000258413739    0.000003708905   0.000000070960   56  'N_00.recpot'
 0.000398954828    0.000016185045  -0.000000074508   56  'H_04.recpot'
 0.000375346405    0.000017198923   0.000000144535   56  'C_01.recpot'
 0.000466850533    0.000020125278   0.000000461745   56  'S_00.recpot'
 0.000671508953    0.000026045986   0.000000155458   56  'O_02.recpot'
... done

Atom SCF Calculation for N  : Z (AE atom) =   7 : Z (PS atom) =   5
Config String:
Orbitals (num,occ):  2     2.00 3.00
Orbitals   (num,l):  2        0    1
Real-space Grid (nr,dr,rmax): 1203    0.0066555740    8.0000000000
Spherical Bessel Basis (nsws,lmax,cutoff):   47    1  176.3951722778
Confining potential (l,width,scale):  0    3.0000000000  100.0000000000
Confining potential (l,width,scale):  1    3.0000000000  100.0000000000
  1         -4.7312375307   -3.4155304497    7.0523828109   -1.9351020946
  2         -9.7309464766   -2.0532547791    8.2966052865   -2.2494486027
  3         -9.6627394379   -2.1124926340    8.2327997121   -2.2369778124
  4         -9.6814993499   -2.1215521045    8.2229805960   -2.2365178421
  5         -9.6843326483   -2.1250939529    8.2191374534   -2.2362718126
  6         -9.6859628709   -2.1267894855    8.2172963573   -2.2362066344
  7         -9.6867347035   -2.1276425665    8.2163697352   -2.2361903369
  8         -9.6870802100   -2.1280764625    8.2158983890   -2.2361891460
  9         -9.6872290423   -2.1282977424    8.2156580222   -2.2361920435
 10         -9.6872901988   -2.1284107021    8.2155353368   -2.2361953393
 11         -9.6873135296   -2.1284684031    8.2154726809   -2.2361979819
 12         -9.6873212476   -2.1284978948    8.2154406648   -2.2361998431
 13         -9.6873229586   -2.1285129774    8.2154242957   -2.2362010676
 14         -9.6873226456   -2.1285206957    8.2154159216   -2.2362018403
 15         -9.6873218534   -2.1285246479    8.2154116349   -2.2362023142
 16         -9.6873212599   -2.1285262679    8.2154098784   -2.2362025420
 17         -9.6873207834   -2.1285272564    8.2154088068   -2.2362026955
 18         -9.6873204210   -2.1285278597    8.2154081529   -2.2362027982
 19         -9.6873201550   -2.1285282280    8.2154077538   -2.2362028667
 20         -9.6873199645   -2.1285284529    8.2154075102   -2.2362029121
 21         -9.6873198305   -2.1285285903    8.2154073614   -2.2362029421
 22         -9.6873197377   -2.1285286742    8.2154072705   -2.2362029618
Atom SCF converged after  22 iterations to a total energy of     -9.68731974

Atom SCF Calculation for H  : Z (AE atom) =   1 : Z (PS atom) =   1
Config String:
Orbitals (num,occ):  1     1.00
Orbitals   (num,l):  1        0
Real-space Grid (nr,dr,rmax): 1203    0.0066555740    8.0000000000
Spherical Bessel Basis (nsws,lmax,cutoff):   47    0  176.3951722778
Confining potential (l,width,scale):  0    3.0000000000  100.0000000000
  1         -0.3194257691   -0.2393854593    0.2820953124   -0.2424203209
  2         -0.3951823392   -0.2377116493    0.2886404059   -0.2475147891
  3         -0.4317044583   -0.2352244387    0.2921333887   -0.2514046172
  4         -0.4470703708   -0.2341892222    0.2934391879   -0.2531009782
  5         -0.4532132900   -0.2338556667    0.2938388426   -0.2537313520
  6         -0.4556579251   -0.2337612552    0.2939448584   -0.2539550462
  7         -0.4566418315   -0.2337377355    0.2939680120   -0.2540342273
  8         -0.4570437922   -0.2337331116    0.2939708287   -0.2540627372
  9         -0.4572102946   -0.2337328328    0.2939698291   -0.2540732650
 10         -0.4572800424   -0.2337332404    0.2939687193   -0.2540772588
 11         -0.4573095100   -0.2337335791    0.2939680317   -0.2540788122
 12         -0.4573220379   -0.2337337762    0.2939676699   -0.2540794294
 13         -0.4573273880   -0.2337338775    0.2939674931   -0.2540796787
 14         -0.4573296803   -0.2337339266    0.2939674099   -0.2540797808
 15         -0.4573306647   -0.2337339495    0.2939673718   -0.2540798230
 16         -0.4573310882   -0.2337339601    0.2939673545   -0.2540798406
 17         -0.4573312706   -0.2337339649    0.2939673467   -0.2540798479
 18         -0.4573313493   -0.2337339670    0.2939673433   -0.2540798510
Atom SCF converged after  18 iterations to a total energy of     -0.45733135

Atom SCF Calculation for C  : Z (AE atom) =   6 : Z (PS atom) =   4
Config String:
Orbitals (num,occ):  2     2.00 2.00
Orbitals   (num,l):  2        0    1
Real-space Grid (nr,dr,rmax): 1203    0.0066555740    8.0000000000
Spherical Bessel Basis (nsws,lmax,cutoff):   47    1  176.3951722778
Confining potential (l,width,scale):  0    3.0000000000  100.0000000000
Confining potential (l,width,scale):  1    3.0000000000  100.0000000000
  1         -5.2976922011   -1.3069684169    4.5135249990   -1.4493313817
  2         -5.3721716256   -1.3429755895    4.4750154450   -1.4361613026
  3         -5.3809959565   -1.3617365618    4.4541655428   -1.4305930207
  4         -5.3918938866   -1.3667928461    4.4484735100   -1.4294652294
  5         -5.3956096428   -1.3688539142    4.4461376126   -1.4290734646
  6         -5.3968271862   -1.3696852393    4.4451910874   -1.4289366866
  7         -5.3972028401   -1.3700178062    4.4448112275   -1.4288900460
  8         -5.3973067903   -1.3701500158    4.4446598370   -1.4288749220
  9         -5.3973286940   -1.3702023868    4.4445997329   -1.4288704293
 10         -5.3973289850   -1.3702230869    4.4445759233   -1.4288693188
 11         -5.3973254264   -1.3702312560    4.4445665049   -1.4288691775
 12         -5.3973224003   -1.3702344755    4.4445627836   -1.4288692549
 13         -5.3973208708   -1.3702354890    4.4445616088   -1.4288693270
 14         -5.3973198783   -1.3702360102    4.4445610034   -1.4288693814
 15         -5.3973192535   -1.3702362780    4.4445606917   -1.4288694190
 16         -5.3973188684   -1.3702364155    4.4445605313   -1.4288694437
 17         -5.3973186349   -1.3702364860    4.4445604489   -1.4288694595
 18         -5.3973184951   -1.3702365221    4.4445604065   -1.4288694693
 19         -5.3973184122   -1.3702365405    4.4445603848   -1.4288694753
Atom SCF converged after  19 iterations to a total energy of     -5.39731841

Atom SCF Calculation for S  : Z (AE atom) =  16 : Z (PS atom) =   6
Config String:
Orbitals (num,occ):  3     2.00 4.00 0.00
Orbitals   (num,l):  3        0    1    2
Real-space Grid (nr,dr,rmax): 1203    0.0066555740    8.0000000000
Spherical Bessel Basis (nsws,lmax,cutoff):   47    2  176.3951722778
Confining potential (l,width,scale):  0    3.0000000000  100.0000000000
Confining potential (l,width,scale):  1    3.0000000000  100.0000000000
Confining potential (l,width,scale):  2    3.0000000000  100.0000000000
  1        -12.4735062396   -1.0328741412   10.1554312477   -2.4512393157
  2         -9.9458301913   -2.4607392455    8.3041325857   -2.0306994528
  3        -10.1450417646   -2.2931184565    8.4831893826   -2.0812538287
  4        -10.1528335592   -2.2733105793    8.5050388867   -2.0896035179
  5        -10.1571940363   -2.2633716629    8.5160794258   -2.0939370707
  6        -10.1594380571   -2.2584938667    8.5215163935   -2.0961289008
  7        -10.1605856507   -2.2561081821    8.5241804044   -2.0972291378
  8        -10.1611799191   -2.2549395235    8.5254868240   -2.0977806248
  9        -10.1614918752   -2.2543658586    8.5261285885   -2.0980571586
 10        -10.1616572884   -2.2540839121    8.5264441898   -2.0981959233
 11        -10.1617455602   -2.2539453058    8.5265994231   -2.0982656006
 12        -10.1617928447   -2.2538772062    8.5266757320   -2.0983006047
 13        -10.1618182292   -2.2538437891    8.5267131983   -2.0983181961
 14        -10.1618318741   -2.2538274201    8.5267315620   -2.0983270391
 15        -10.1618392144   -2.2538194197    8.5267405433   -2.0983314852
 16        -10.1618431651   -2.2538155200    8.5267449245   -2.0983337210
 17        -10.1618452923   -2.2538136252    8.5267470551   -2.0983348455
 18        -10.1618464380   -2.2538127080    8.5267480875   -2.0983354110
 19        -10.1618470552   -2.2538122659    8.5267485856   -2.0983356955
 20        -10.1618473878   -2.2538120540    8.5267488248   -2.0983358386
 21        -10.1618475670   -2.2538119530    8.5267489389   -2.0983359106
 22        -10.1618476637   -2.2538119053    8.5267489929   -2.0983359468
Atom SCF converged after  22 iterations to a total energy of    -10.16184766

Atom SCF Calculation for O  : Z (AE atom) =   8 : Z (PS atom) =   6
Config String:
Orbitals (num,occ):  2     2.00 4.00
Orbitals   (num,l):  2        0    1
Real-space Grid (nr,dr,rmax): 1203    0.0066555740    8.0000000000
Spherical Bessel Basis (nsws,lmax,cutoff):   47    1  176.3951722778
Confining potential (l,width,scale):  0    3.0000000000  100.0000000000
Confining potential (l,width,scale):  1    3.0000000000  100.0000000000
  1         -1.8735052164   -7.5539365035   10.1554312477   -2.4512393157
  2        -16.0318313751   -3.1285771268   13.6395848164   -3.2358799643
  3        -15.9524020423   -3.0762819706   13.6967272503   -3.2536856837
  4        -15.8521515939   -3.0781493909   13.6951909330   -3.2561700440
  5        -15.8357139793   -3.0748501933   13.6988803334   -3.2580493133
  6        -15.8246052853   -3.0740779781   13.6997881576   -3.2588327446
  7        -15.8189019501   -3.0737449687   13.7001869911   -3.2592378801
  8        -15.8159785510   -3.0736026016   13.7003615168   -3.2594475790
  9        -15.8144776168   -3.0735437994   13.7004360379   -3.2595560735
 10        -15.8137058024   -3.0735207882   13.7004667348   -3.2596122456
 11        -15.8133083127   -3.0735125946   13.7004786868   -3.2596413656
 12        -15.8131032938   -3.0735102195   13.7004828997   -3.2596564858
 13        -15.8129973902   -3.0735099286   13.7004840891   -3.2596643505
 14        -15.8129426040   -3.0735102506   13.7004842061   -3.2596684489
 15        -15.8129142203   -3.0735106556   13.7004840157   -3.2596705887
 16        -15.8128994940   -3.0735109855   13.7004837906   -3.2596717080
 17        -15.8128918425   -3.0735112169   13.7004836103   -3.2596722946
 18        -15.8128878614   -3.0735113674   13.7004834848   -3.2596726026
 19        -15.8128857871   -3.0735114608   13.7004834035   -3.2596727646
 20        -15.8128847048   -3.0735115170   13.7004833533   -3.2596728500
 21        -15.8128841394   -3.0735115501   13.7004833231   -3.2596728951
 22        -15.8128838436   -3.0735115693   13.7004833054   -3.2596729190
 23        -15.8128836887   -3.0735115802   13.7004832951   -3.2596729316
 24        -15.8128836074   -3.0735115864   13.7004832893   -3.2596729383
Atom SCF converged after  24 iterations to a total energy of    -15.81288361

========================== Calculation in vacuum ==============================
= Adjusting the following parameters: 
= is_implicit_solvent: F
= is_include_apolar: F
= write_denskern: T
= write_tightbox_ngwfs: T
= restart read filename prefix: ""
= restart write filename prefix: "vacuum_"
===============================================================================

Determining parallel strategy ...
... using space-filling curve
... NGWF load balancing: max    163;  min    162;  average    163
... Projector load balancing: max     36;  min     32;  average     33
... done
Calculating direct Ion-Ion energy ...
Ion-Ion Energy        :    824392.56189524976071
======================= Empirical dispersion information =======================
Model : Elstner
Dispersion Correction Energy: -0.32481261E+01 Hartree
================================================================================
Basis initialisation ...... NGWF spheres initialised
... Projector spheres initialised
... NGWF tight boxes initialised
... Tight-boxes gathered
... NGWF basis size (local,global):    1268721  50748499
... Nonlocal pseudopotential projector initialisation
... done

========================== Sparse matrix information ===========================
                        Overlap matrix filling:   6.72%
                        Density kernel filling: 100.00%
              NGWF-Proj overlap matrix filling:   1.78%
                    Hamiltonian matrix filling:   7.59%
                  NGWF diagonal matrix filling:   0.05%
                             KS matrix filling: 100.00% 
                           KSKS matrix filling: 100.00% 
================================================================================

Sparse matrix initialisation ... done

Generating smeared ion density ... done
Smeared ion self correction:     -14457.169564
Smeared ion non-self correction: -824344.391298
NGWF initialisation ...... done
============ Calculation of NGWF S^-1 using Hotelling algorithm ================ 
         Iteration  |  Frobenius norm and Maximum abs value    (of I-S*S_n^-1)   
               1       0.78476907E+02     0.98264509E+00
               2       0.76624092E+02     0.96571531E+00
               3       0.73625535E+02     0.93310450E+00
               4       0.69366042E+02     0.87282330E+00
               5       0.64062371E+02     0.76789705E+00
               6       0.58102155E+02     0.70442308E+00
               7       0.52108524E+02     0.66966506E+00
               8       0.46568930E+02     0.64276376E+00
               9       0.40513248E+02     0.60419735E+00
              10       0.32258760E+02     0.53644281E+00
              11       0.21690230E+02     0.42676858E+00
              12       0.11084768E+02     0.27846623E+00
              13       0.36595008E+01     0.13482496E+00
              14       0.59053914E+00     0.34654196E-01
              15       0.31817433E-01     0.32816209E-02
              16       0.23593830E-03     0.35564900E-04
              17       0.23897497E-07     0.43300373E-08
              18       0.95920369E-13     0.53290705E-14
================================================================================
Calculating local pseudopotential in open BC on the fine real space grid ...
... done

MG BCs: +ve charge blocks (gridpoints):     20259 (   15928837).
MG BCs: -ve charge blocks (gridpoints):      7928 (    1073656).
MG BCs:     Elided blocks (gridpoints):    189786 (  189217332).
MG BCs: Computational effort saved:  99.9863%.
MG BCs: Charge after coarse-graining:           -9.0002240.
MG DL_MG: Calling solver with defect correction order = 8
MG DL_MG: Solver finished
MG Hartree energy from (\int phi*rho dr):              1462.161778
MG Hartree energy from (\int eps (grad phi)^2 dr):     1461.552894
MG Discrepancy due to finite box and discretization:     -0.608883 (  -0.04164%)
MG Correction to account for finite box:                  0.454849
MG Remaining discrepancy, due to discretization:         -0.154035 (  -0.01053%)
Up spin density kernel initialisation ... 
======= Optimisation of K by Palser-Manolopoulos canonical purification ======== 
         Iteration  |  Band structure energy |    c_n   
               1       -2579.53034200362163    0.5267940
               2       -2755.48184409452551    0.5169833
               3       -2935.80111011596728    0.5153374
               4       -3086.25922747736513    0.5287742
               5       -3178.66150781465240    0.5643899
               6       -3217.23575464733040    0.6084221
               7       -3230.35668418971909    0.6190846
               8       -3236.06436487618521    0.6180176
               9       -3238.79342709989214    0.6308143
              10       -3239.90735626837704    0.6440607
              11       -3240.35346372728691    0.6389783
              12       -3240.55443123374152    0.6042783
              13       -3240.65549479474112    0.5445787
              14       -3240.70205381481310    0.4660681
              15       -3240.71357498135421    0.4051769
              16       -3240.71494815826964    0.4231165
              17       -3240.71572350856150    0.4664839
              18       -3240.71633657829170    0.4935435
              19       -3240.71669723987634    0.4997600
              20       -3240.71679837129022    0.4999997
              21       -3240.71680470261072    0.5000001
              22       -3240.71680472536218    0.5000001
Termination criterion satisfied: band energy change below threshold.
Final occupancy bounds: [    0.00000000000005:    1.00000000000000]
Closest occupancy to 0.5:     1.00000000000000
================================================================================
... done

Writing density kernel to file "host_4661.vacuum_dkn" ... done

>>> Optimising kernel for current NGWFs:
   Initial electron number for spin 1:    7192.00000000
     Final electron number for spin 1:    7192.00000000

=================== Penalty functional idempotency correction ==================
 RMS occupancy error at iteration   1:  0.000000 (step -0.5000 Ne1=   7192.0000)
            Final RMS occupancy error   :  0.000000 (Ne1=   7192.0000)
               Final occupancy bounds   : [ -0.0000,  1.0000]
================================================================================

................................................................................
<<<<<<<<<<<<<< LNV (Original version) density kernel optimisation >>>>>>>>>>>>>>
~~~~~~~~~~~~~~~~~~~~~~~~~~~~~~~~~~~~~~~~~~~~~~~~~~~~~~~~~~~~~~~~~~~~~~~~~~~~~~~~
   iter  |      energy (Eh)       | rms gradient |  commutator  |   dE (Eh)
MG BCs: +ve charge blocks (gridpoints):     30733 (   17109321).
MG BCs: -ve charge blocks (gridpoints):      8268 (    1106139).
MG BCs:     Elided blocks (gridpoints):    179299 (  188004365).
MG BCs: Computational effort saved:  99.9811%.
MG BCs: Charge after coarse-graining:           -9.0009491.
MG DL_MG: Calling solver with defect correction order = 8
MG DL_MG: Solver finished
MG Hartree energy from (\int phi*rho dr):              1416.371792
MG Hartree energy from (\int eps (grad phi)^2 dr):     1415.705815
MG Discrepancy due to finite box and discretization:     -0.665977 (  -0.04702%)
MG Correction to account for finite box:                  0.468198
MG Remaining discrepancy, due to discretization:         -0.197779 (  -0.01396%)
      ideal mu1:      -0.701709448217
             Q0:  -11506.322683371254
             G0:    -144.298060220060
   RMS gradient:       0.001846643006
MG BCs: +ve charge blocks (gridpoints):     30757 (   17188358).
MG BCs: -ve charge blocks (gridpoints):      8168 (    1086014).
MG BCs:     Elided blocks (gridpoints):    179274 (  187945453).
MG BCs: Computational effort saved:  99.9811%.
MG BCs: Charge after coarse-graining:           -9.0009704.
MG DL_MG: Calling solver with defect correction order = 8
MG DL_MG: Solver finished
MG Hartree energy from (\int phi*rho dr):              1441.861296
MG Hartree energy from (\int eps (grad phi)^2 dr):     1441.212211
MG Discrepancy due to finite box and discretization:     -0.649085 (  -0.04502%)
MG Correction to account for finite box:                  0.467480
MG Remaining discrepancy, due to discretization:         -0.181604 (  -0.01260%)
     Trial step:       0.500000000000
             Q1:  -11517.743077745079
 Quadratic coef:      60.728635736205
 Linear coef   :     -72.149030110030
           Qmin:  -11527.751958385885
Quadratic minimum step length (  0.297014041380) accepted
    Initial Ne1:    7192.00000000
      Final Ne1:    7192.00000000

=================== Penalty functional idempotency correction ==================
 RMS occupancy error at iteration   1:  0.003388 (step -0.4885 Ne1=   7192.0000)
 RMS occupancy error at iteration   2:  0.000027 (step -0.5001 Ne1=   7192.0000)
            Final RMS occupancy error   :  0.000000 (Ne1=   7192.0000)
               Final occupancy bounds   : [  0.0000,  1.0000]
================================================================================

    1        -1.150632268337E+04     1.8466E-03     1.6702E-03
MG BCs: +ve charge blocks (gridpoints):     30752 (   17157249).
MG BCs: -ve charge blocks (gridpoints):      8222 (    1094461).
MG BCs:     Elided blocks (gridpoints):    179280 (  187968115).
MG BCs: Computational effort saved:  99.9811%.
MG BCs: Charge after coarse-graining:           -9.0009620.
MG DL_MG: Calling solver with defect correction order = 8
MG DL_MG: Solver finished
MG Hartree energy from (\int phi*rho dr):              1423.609595
MG Hartree energy from (\int eps (grad phi)^2 dr):     1422.954586
MG Discrepancy due to finite box and discretization:     -0.655009 (  -0.04601%)
MG Correction to account for finite box:                  0.467685
MG Remaining discrepancy, due to discretization:         -0.187324 (  -0.01316%)
      ideal mu1:      -0.745813995056
             Q0:  -11528.148913200595
             G0:     -12.120006357070
   RMS gradient:       0.000531601723
MG BCs: +ve charge blocks (gridpoints):     30745 (   17173620).
MG BCs: -ve charge blocks (gridpoints):      8194 (    1089485).
MG BCs:     Elided blocks (gridpoints):    179285 (  187956720).
MG BCs: Computational effort saved:  99.9811%.
MG BCs: Charge after coarse-graining:           -9.0009657.
MG DL_MG: Calling solver with defect correction order = 8
MG DL_MG: Solver finished
MG Hartree energy from (\int phi*rho dr):              1428.874448
MG Hartree energy from (\int eps (grad phi)^2 dr):     1428.223585
MG Discrepancy due to finite box and discretization:     -0.650863 (  -0.04555%)
MG Correction to account for finite box:                  0.466780
MG Remaining discrepancy, due to discretization:         -0.184083 (  -0.01288%)
     Trial step:       0.385366086585
             Q1:  -11530.981857840205
 Quadratic coef:       1.837694779602
 Linear coef   :      -4.670639419212
           Qmin:  -11531.116608492875
Quadratic minimum step length (  0.489718438233) accepted
    Initial Ne1:    7191.99988132
      Final Ne1:    7192.00000000

=================== Penalty functional idempotency correction ==================
 RMS occupancy error at iteration   1:  0.001808 (step -0.4928 Ne1=   7192.0000)
 RMS occupancy error at iteration   2:  0.000014 (step -0.5004 Ne1=   7192.0000)
            Final RMS occupancy error   :  0.000000 (Ne1=   7192.0000)
               Final occupancy bounds   : [  0.0000,  1.0000]
================================================================================

    2        -1.152814891320E+04     5.3160E-04     4.8082E-04    -2.1826E+01
MG BCs: +ve charge blocks (gridpoints):     30751 (   17177968).
MG BCs: -ve charge blocks (gridpoints):      8187 (    1088155).
MG BCs:     Elided blocks (gridpoints):    179278 (  187953702).
MG BCs: Computational effort saved:  99.9811%.
MG BCs: Charge after coarse-graining:           -9.0009668.
MG DL_MG: Calling solver with defect correction order = 8
MG DL_MG: Solver finished
MG Hartree energy from (\int phi*rho dr):              1430.349249
MG Hartree energy from (\int eps (grad phi)^2 dr):     1429.699435
MG Discrepancy due to finite box and discretization:     -0.649814 (  -0.04543%)
MG Correction to account for finite box:                  0.466546
MG Remaining discrepancy, due to discretization:         -0.183268 (  -0.01281%)
      ideal mu1:      -0.770140203438
             Q0:  -11531.153660316719
             G0:      -1.916416795096
   RMS gradient:       0.000211442442
MG BCs: +ve charge blocks (gridpoints):     30744 (   17177412).
MG BCs: -ve charge blocks (gridpoints):      8194 (    1089227).
MG BCs:     Elided blocks (gridpoints):    179285 (  187953186).
MG BCs: Computational effort saved:  99.9811%.
MG BCs: Charge after coarse-graining:           -9.0009663.
MG DL_MG: Calling solver with defect correction order = 8
MG DL_MG: Solver finished
MG Hartree energy from (\int phi*rho dr):              1428.105355
MG Hartree energy from (\int eps (grad phi)^2 dr):     1427.456115
MG Discrepancy due to finite box and discretization:     -0.649239 (  -0.04546%)
MG Correction to account for finite box:                  0.466162
MG Remaining discrepancy, due to discretization:         -0.183077 (  -0.01282%)
     Trial step:       0.434420163057
             Q1:  -11531.643114044913
 Quadratic coef:       0.343076368417
 Linear coef   :      -0.832530096611
           Qmin:  -11531.658727428277
Quadratic minimum step length (  0.527095267430) accepted
    Initial Ne1:    7191.99985204
      Final Ne1:    7192.00000000

=================== Penalty functional idempotency correction ==================
 RMS occupancy error at iteration   1:  0.000639 (step -0.4967 Ne1=   7192.0000)
 RMS occupancy error at iteration   2:  0.000004 (step -0.5000 Ne1=   7192.0000)
            Final RMS occupancy error   :  0.000000 (Ne1=   7192.0000)
               Final occupancy bounds   : [  0.0000,  1.0000]
================================================================================

    3        -1.153115366032E+04     2.1144E-04     1.9124E-04    -3.0047E+00
MG BCs: +ve charge blocks (gridpoints):     30746 (   17177417).
MG BCs: -ve charge blocks (gridpoints):      8196 (    1089415).
MG BCs:     Elided blocks (gridpoints):    179283 (  187952993).
MG BCs: Computational effort saved:  99.9811%.
MG BCs: Charge after coarse-graining:           -9.0009661.
MG DL_MG: Calling solver with defect correction order = 8
MG DL_MG: Solver finished
MG Hartree energy from (\int phi*rho dr):              1427.636159
MG Hartree energy from (\int eps (grad phi)^2 dr):     1426.987031
MG Discrepancy due to finite box and discretization:     -0.649128 (  -0.04547%)
MG Correction to account for finite box:                  0.466082
MG Remaining discrepancy, due to discretization:         -0.183046 (  -0.01282%)
      ideal mu1:      -0.771245544535
             Q0:  -11531.663405714789
             G0:      -0.490065341698
   RMS gradient:       0.000107078398
MG BCs: +ve charge blocks (gridpoints):     30744 (   17178444).
MG BCs: -ve charge blocks (gridpoints):      8194 (    1089146).
MG BCs:     Elided blocks (gridpoints):    179284 (  187952235).
MG BCs: Computational effort saved:  99.9811%.
MG BCs: Charge after coarse-graining:           -9.0009663.
MG DL_MG: Calling solver with defect correction order = 8
MG DL_MG: Solver finished
MG Hartree energy from (\int phi*rho dr):              1428.949608
MG Hartree energy from (\int eps (grad phi)^2 dr):     1428.300552
MG Discrepancy due to finite box and discretization:     -0.649056 (  -0.04542%)
MG Correction to account for finite box:                  0.465901
MG Remaining discrepancy, due to discretization:         -0.183156 (  -0.01282%)
     Trial step:       0.478519395661
             Q1:  -11531.786693903734
 Quadratic coef:       0.111217582200
 Linear coef   :      -0.234505771144
           Qmin:  -11531.787021413880
Quadratic minimum step length (  0.504486600351) accepted
    Initial Ne1:    7191.99996384
      Final Ne1:    7192.00000000

=================== Penalty functional idempotency correction ==================
 RMS occupancy error at iteration   1:  0.000289 (step -0.4947 Ne1=   7192.0000)
 RMS occupancy error at iteration   2:  0.000003 (step -0.5000 Ne1=   7192.0000)
            Final RMS occupancy error   :  0.000000 (Ne1=   7192.0000)
               Final occupancy bounds   : [  0.0000,  1.0000]
================================================================================

    4        -1.153166340571E+04     1.0708E-04     9.6850E-05    -5.0975E-01
MG BCs: +ve charge blocks (gridpoints):     30744 (   17178516).
MG BCs: -ve charge blocks (gridpoints):      8194 (    1089123).
MG BCs:     Elided blocks (gridpoints):    179284 (  187952186).
MG BCs: Computational effort saved:  99.9811%.
MG BCs: Charge after coarse-graining:           -9.0009663.
MG DL_MG: Calling solver with defect correction order = 8
MG DL_MG: Solver finished
MG Hartree energy from (\int phi*rho dr):              1429.021480
MG Hartree energy from (\int eps (grad phi)^2 dr):     1428.372427
MG Discrepancy due to finite box and discretization:     -0.649053 (  -0.04542%)
MG Correction to account for finite box:                  0.465891
MG Remaining discrepancy, due to discretization:         -0.183162 (  -0.01282%)
      ideal mu1:      -0.771612621194
             Q0:  -11531.787577901385
             G0:      -0.192296429446
   RMS gradient:       0.000067275228
MG BCs: +ve charge blocks (gridpoints):     30744 (   17178610).
MG BCs: -ve charge blocks (gridpoints):      8191 (    1088934).
MG BCs:     Elided blocks (gridpoints):    179284 (  187952281).
MG BCs: Computational effort saved:  99.9811%.
MG BCs: Charge after coarse-graining:           -9.0009663.
MG DL_MG: Calling solver with defect correction order = 8
MG DL_MG: Solver finished
MG Hartree energy from (\int phi*rho dr):              1429.411715
MG Hartree energy from (\int eps (grad phi)^2 dr):     1428.762527
MG Discrepancy due to finite box and discretization:     -0.649188 (  -0.04542%)
MG Correction to account for finite box:                  0.465863
MG Remaining discrepancy, due to discretization:         -0.183325 (  -0.01283%)
     Trial step:       0.491331479878
             Q1:  -11531.852641430218
 Quadratic coef:       0.029417760421
 Linear coef   :      -0.094481289255
           Qmin:  -11531.863439505833
Quadratic minimum step length (  0.789006895936) accepted
    Initial Ne1:    7191.99997744
      Final Ne1:    7192.00000000

=================== Penalty functional idempotency correction ==================
 RMS occupancy error at iteration   1:  0.000660 (step -0.4583 Ne1=   7192.0000)
 RMS occupancy error at iteration   2:  0.000020 (step -0.4999 Ne1=   7192.0000)
            Final RMS occupancy error   :  0.000000 (Ne1=   7192.0000)
               Final occupancy bounds   : [ -0.0000,  1.0000]
================================================================================

    5        -1.153178757790E+04     6.7275E-05     6.0849E-05    -1.2417E-01
MG BCs: +ve charge blocks (gridpoints):     30745 (   17178703).
MG BCs: -ve charge blocks (gridpoints):      8194 (    1088856).
MG BCs:     Elided blocks (gridpoints):    179283 (  187952266).
MG BCs: Computational effort saved:  99.9811%.
MG BCs: Charge after coarse-graining:           -9.0009662.
MG DL_MG: Calling solver with defect correction order = 8
MG DL_MG: Solver finished
MG Hartree energy from (\int phi*rho dr):              1429.644789
MG Hartree energy from (\int eps (grad phi)^2 dr):     1428.995517
MG Discrepancy due to finite box and discretization:     -0.649272 (  -0.04541%)
MG Correction to account for finite box:                  0.465849
MG Remaining discrepancy, due to discretization:         -0.183423 (  -0.01283%)
      ideal mu1:      -0.771545945282
             Q0:  -11531.861225917120
             G0:      -0.238152932772
   RMS gradient:       0.000076494708
MG BCs: +ve charge blocks (gridpoints):     30748 (   17177987).
MG BCs: -ve charge blocks (gridpoints):      8197 (    1089207).
MG BCs:     Elided blocks (gridpoints):    179280 (  187952631).
MG BCs: Computational effort saved:  99.9811%.
MG BCs: Charge after coarse-graining:           -9.0009659.
MG DL_MG: Calling solver with defect correction order = 8
MG DL_MG: Solver finished
MG Hartree energy from (\int phi*rho dr):              1428.189700
MG Hartree energy from (\int eps (grad phi)^2 dr):     1427.540410
MG Discrepancy due to finite box and discretization:     -0.649290 (  -0.04546%)
MG Correction to account for finite box:                  0.465874
MG Remaining discrepancy, due to discretization:         -0.183415 (  -0.01284%)
     Trial step:       0.622626634360
             Q1:  -11531.964938876219
 Quadratic coef:       0.044567399897
 Linear coef   :      -0.148280358995
           Qmin:  -11531.984561948135
Quadratic minimum step length (  1.035771674775) accepted
    Initial Ne1:    7192.00001619
      Final Ne1:    7192.00000000

=================== Penalty functional idempotency correction ==================
 RMS occupancy error at iteration   1:  0.005604 (step -0.2723 Ne1=   7192.0000)
 RMS occupancy error at iteration   2:  0.000468 (step -0.4775 Ne1=   7192.0000)
 RMS occupancy error at iteration   3:  0.000013 (step -0.5002 Ne1=   7192.0000)
            Final RMS occupancy error   :  0.000000 (Ne1=   7192.0000)
               Final occupancy bounds   : [  0.0000,  1.0000]
================================================================================

    6        -1.153186122592E+04     7.6495E-05     6.9188E-05    -7.3648E-02
MG BCs: +ve charge blocks (gridpoints):     30751 (   17177513).
MG BCs: -ve charge blocks (gridpoints):      8199 (    1089440).
MG BCs:     Elided blocks (gridpoints):    179277 (  187952872).
MG BCs: Computational effort saved:  99.9811%.
MG BCs: Charge after coarse-graining:           -9.0009658.
MG DL_MG: Calling solver with defect correction order = 8
MG DL_MG: Solver finished
MG Hartree energy from (\int phi*rho dr):              1427.266803
MG Hartree energy from (\int eps (grad phi)^2 dr):     1426.617498
MG Discrepancy due to finite box and discretization:     -0.649305 (  -0.04549%)
MG Correction to account for finite box:                  0.465883
MG Remaining discrepancy, due to discretization:         -0.183422 (  -0.01285%)
      ideal mu1:      -0.770590774457
             Q0:  -11531.957712904317
             G0:      -0.429204161444
   RMS gradient:       0.000100712798
MG BCs: +ve charge blocks (gridpoints):     30741 (   17179337).
MG BCs: -ve charge blocks (gridpoints):      8191 (    1088621).
MG BCs:     Elided blocks (gridpoints):    179287 (  187951867).
MG BCs: Computational effort saved:  99.9811%.
MG BCs: Charge after coarse-graining:           -9.0009666.
MG DL_MG: Calling solver with defect correction order = 8
MG DL_MG: Solver finished
MG Hartree energy from (\int phi*rho dr):              1429.577817
MG Hartree energy from (\int eps (grad phi)^2 dr):     1428.928872
MG Discrepancy due to finite box and discretization:     -0.648945 (  -0.04539%)
MG Correction to account for finite box:                  0.465844
MG Remaining discrepancy, due to discretization:         -0.183101 (  -0.01281%)
     Trial step:       0.803056057714
             Q1:  -11532.096110150567
 Quadratic coef:       0.206277755593
 Linear coef   :      -0.344675001843
           Qmin:  -11532.101694566996
Quadratic minimum step length (  0.670923889435) accepted
    Initial Ne1:    7191.99989620
      Final Ne1:    7192.00000000

=================== Penalty functional idempotency correction ==================
 RMS occupancy error at iteration   1:  0.000251 (step -0.4850 Ne1=   7192.0000)
 RMS occupancy error at iteration   2:  0.000002 (step -0.5000 Ne1=   7192.0000)
            Final RMS occupancy error   :  0.000000 (Ne1=   7192.0000)
               Final occupancy bounds   : [  0.0000,  1.0000]
================================================================================

    7        -1.153195771290E+04     1.0071E-04     9.1092E-05    -9.6487E-02
MG BCs: +ve charge blocks (gridpoints):     30741 (   17178968).
MG BCs: -ve charge blocks (gridpoints):      8191 (    1088794).
MG BCs:     Elided blocks (gridpoints):    179287 (  187952063).
MG BCs: Computational effort saved:  99.9811%.
MG BCs: Charge after coarse-graining:           -9.0009665.
MG DL_MG: Calling solver with defect correction order = 8
MG DL_MG: Solver finished
MG Hartree energy from (\int phi*rho dr):              1429.196446
MG Hartree energy from (\int eps (grad phi)^2 dr):     1428.547442
MG Discrepancy due to finite box and discretization:     -0.649004 (  -0.04541%)
MG Correction to account for finite box:                  0.465851
MG Remaining discrepancy, due to discretization:         -0.183152 (  -0.01282%)
      ideal mu1:      -0.771873305635
             Q0:  -11532.101972879609
             G0:      -0.289989879559
   RMS gradient:       0.000082719976
MG BCs: +ve charge blocks (gridpoints):     30739 (   17178785).
MG BCs: -ve charge blocks (gridpoints):      8188 (    1088685).
MG BCs:     Elided blocks (gridpoints):    179289 (  187952355).
MG BCs: Computational effort saved:  99.9811%.
MG BCs: Charge after coarse-graining:           -9.0009666.
MG DL_MG: Calling solver with defect correction order = 8
MG DL_MG: Solver finished
MG Hartree energy from (\int phi*rho dr):              1429.052246
MG Hartree energy from (\int eps (grad phi)^2 dr):     1428.403359
MG Discrepancy due to finite box and discretization:     -0.648887 (  -0.04541%)
MG Correction to account for finite box:                  0.465904
MG Remaining discrepancy, due to discretization:         -0.182983 (  -0.01280%)
     Trial step:       0.734022815501
             Q1:  -11532.206332673784
 Quadratic coef:       0.108499393686
 Linear coef   :      -0.212859187860
           Qmin:  -11532.206372158529
Quadratic minimum step length (  0.720020154357) accepted
    Initial Ne1:    7191.99992423
      Final Ne1:    7192.00000000

=================== Penalty functional idempotency correction ==================
 RMS occupancy error at iteration   1:  0.001118 (step -0.4412 Ne1=   7192.0000)
 RMS occupancy error at iteration   2:  0.000022 (step -0.4998 Ne1=   7192.0000)
            Final RMS occupancy error   :  0.000000 (Ne1=   7192.0000)
               Final occupancy bounds   : [ -0.0000,  1.0000]
================================================================================

    8        -1.153210197288E+04     8.2720E-05     7.4818E-05    -1.4426E-01
MG BCs: +ve charge blocks (gridpoints):     30738 (   17178791).
MG BCs: -ve charge blocks (gridpoints):      8188 (    1088684).
MG BCs:     Elided blocks (gridpoints):    179290 (  187952350).
MG BCs: Computational effort saved:  99.9811%.
MG BCs: Charge after coarse-graining:           -9.0009666.
MG DL_MG: Calling solver with defect correction order = 8
MG DL_MG: Solver finished
MG Hartree energy from (\int phi*rho dr):              1429.056434
MG Hartree energy from (\int eps (grad phi)^2 dr):     1428.407541
MG Discrepancy due to finite box and discretization:     -0.648893 (  -0.04541%)
MG Correction to account for finite box:                  0.465906
MG Remaining discrepancy, due to discretization:         -0.182986 (  -0.01280%)
      ideal mu1:      -0.771406288235
             Q0:  -11532.207068740972
             G0:      -0.208612246026
   RMS gradient:       0.000069708901
MG BCs: +ve charge blocks (gridpoints):     30742 (   17178095).
MG BCs: -ve charge blocks (gridpoints):      8188 (    1089023).
MG BCs:     Elided blocks (gridpoints):    179286 (  187952707).
MG BCs: Computational effort saved:  99.9811%.
MG BCs: Charge after coarse-graining:           -9.0009664.
MG DL_MG: Calling solver with defect correction order = 8
MG DL_MG: Solver finished
MG Hartree energy from (\int phi*rho dr):              1428.246702
MG Hartree energy from (\int eps (grad phi)^2 dr):     1427.597862
MG Discrepancy due to finite box and discretization:     -0.648841 (  -0.04543%)
MG Correction to account for finite box:                  0.465879
MG Remaining discrepancy, due to discretization:         -0.182962 (  -0.01281%)
     Trial step:       0.726987772193
             Q1:  -11532.282089693821
 Quadratic coef:       0.076637599142
 Linear coef   :      -0.151658551991
           Qmin:  -11532.282098219483
Quadratic minimum step length (  0.719319981834) accepted
    Initial Ne1:    7191.99998530
      Final Ne1:    7192.00000000

=================== Penalty functional idempotency correction ==================
 RMS occupancy error at iteration   1:  0.002237 (step -0.3962 Ne1=   7192.0000)
 RMS occupancy error at iteration   2:  0.000049 (step -0.4994 Ne1=   7192.0000)
            Final RMS occupancy error   :  0.000000 (Ne1=   7192.0000)
               Final occupancy bounds   : [ -0.0000,  1.0000]
================================================================================

    9        -1.153220706874E+04     6.9709E-05     6.3050E-05    -1.0510E-01
MG BCs: +ve charge blocks (gridpoints):     30742 (   17178103).
MG BCs: -ve charge blocks (gridpoints):      8188 (    1089021).
MG BCs:     Elided blocks (gridpoints):    179286 (  187952701).
MG BCs: Computational effort saved:  99.9811%.
MG BCs: Charge after coarse-graining:           -9.0009664.
MG DL_MG: Calling solver with defect correction order = 8
MG DL_MG: Solver finished
MG Hartree energy from (\int phi*rho dr):              1428.257338
MG Hartree energy from (\int eps (grad phi)^2 dr):     1427.608481
MG Discrepancy due to finite box and discretization:     -0.648856 (  -0.04543%)
MG Correction to account for finite box:                  0.465896
MG Remaining discrepancy, due to discretization:         -0.182961 (  -0.01281%)
      ideal mu1:      -0.770336296860
   10        -1.153228490910E+04     5.5375E-05     5.0085E-05    -7.7840E-02
Finished density kernel iterations (  10)

Writing density kernel to file "host_4661.vacuum_dkn" ... done


>>> Density kernel optimised for the current NGWF basis:
     ~~~~~~~~~~~~~~~~~~~~~~~~~~~~~~~~~~~~~~~~~~~~~~~~~~~~~~~~~~~
     Total energy                =  -1.15322849091019E+04  Eh
     Estimated bandgap           =  -5.2190E-01  Eh
     RMS occupancy error         =   1.1120E-07
     [H,K] commutator            =   5.0085E-05
     Occupancy bounds            = [ -0.000:  1.000]
     ~~~~~~~~~~~~~~~~~~~~~~~~~~~~~~~~~~~~~~~~~~~~~~~~~~~~~~~~~~~




################################################################################
########################### NGWF CG iteration  001 #############################
################################################################################
****** Reciprocal space K.E. preconditioning with k_zero =  3.5000 a0^-1 *******

>>> Checking for convergence of NGWFs:   NOT CONVERGED
  ========================================================================
         NGWF RMS gradient =  1.6023E-03 >  2.0000E-06  | above tolerance
  ========================================================================

>>> Improving NGWFs using line search:
============ Calculation of NGWF S^-1 using Hotelling algorithm ================ 
         Iteration  |  Frobenius norm and Maximum abs value    (of I-S*S_n^-1)   
               1       0.19932108E+00     0.52260944E-02
               2       0.92941609E-03     0.40331817E-04
               3       0.35055385E-07     0.24835947E-08
               4       0.13057231E-12     0.55511151E-14
================================================================================
MG BCs: +ve charge blocks (gridpoints):     30301 (   17122175).
MG BCs: -ve charge blocks (gridpoints):      8204 (    1088666).
MG BCs:     Elided blocks (gridpoints):    179732 (  188008984).
MG BCs: Computational effort saved:  99.9813%.
MG BCs: Charge after coarse-graining:           -9.0009707.
MG DL_MG: Calling solver with defect correction order = 8
MG DL_MG: Solver finished
MG Hartree energy from (\int phi*rho dr):              1396.426442
MG Hartree energy from (\int eps (grad phi)^2 dr):     1395.778533
MG Discrepancy due to finite box and discretization:     -0.647909 (  -0.04640%)
MG Correction to account for finite box:                  0.465797
MG Remaining discrepancy, due to discretization:         -0.182111 (  -0.01304%)
============ Calculation of NGWF S^-1 using Hotelling algorithm ================ 
         Iteration  |  Frobenius norm and Maximum abs value    (of I-S*S_n^-1)   
               1       0.18446011E+01     0.40912874E-01
               2       0.70947354E-01     0.22506455E-02
               3       0.14446777E-03     0.80363788E-05
               4       0.10959231E-08     0.11519952E-09
               5       0.11052945E-12     0.86597396E-14
================================================================================
------------------------------- NGWF line search -------------------------------
RMS gradient                =       0.00160225057310
Trial step length           =               0.122474
Gradient along search dir.  =       -277.77643568394
Functional at step 0        =  -11532.28490910190158
Functional at step 1        =  -11563.68781421915628
Functional predicted        =  -11642.82383492459121
Selected quadratic step     =               0.795884
--------------------------- NGWF line search finished --------------------------
                                               
Writing NGWFs to file "host_4661.vacuum_tightbox_ngwfs"....  done

>>> Optimising kernel for current NGWFs:
   Initial electron number for spin 1:    7226.60990817
     Final electron number for spin 1:    7192.00000000

=================== Penalty functional idempotency correction ==================
 RMS occupancy error at iteration   1:  0.004331 (step -0.4856 Ne1=   7192.0000)
 RMS occupancy error at iteration   2:  0.000073 (step -0.5003 Ne1=   7192.0000)
            Final RMS occupancy error   :  0.000000 (Ne1=   7192.0000)
               Final occupancy bounds   : [  0.0000,  1.0000]
================================================================================

................................................................................
<<<<<<<<<<<<<< LNV (Original version) density kernel optimisation >>>>>>>>>>>>>>
~~~~~~~~~~~~~~~~~~~~~~~~~~~~~~~~~~~~~~~~~~~~~~~~~~~~~~~~~~~~~~~~~~~~~~~~~~~~~~~~
   iter  |      energy (Eh)       | rms gradient |  commutator  |   dE (Eh)
MG BCs: +ve charge blocks (gridpoints):     24689 (   16826566).
MG BCs: -ve charge blocks (gridpoints):      8315 (    1072046).
MG BCs:     Elided blocks (gridpoints):    185356 (  188321213).
MG BCs: Computational effort saved:  99.9840%.
MG BCs: Charge after coarse-graining:           -9.0006670.
MG DL_MG: Calling solver with defect correction order = 8
MG DL_MG: Solver finished
MG Hartree energy from (\int phi*rho dr):              1243.354410
MG Hartree energy from (\int eps (grad phi)^2 dr):     1242.706915
MG Discrepancy due to finite box and discretization:     -0.647495 (  -0.05208%)
MG Correction to account for finite box:                  0.465338
MG Remaining discrepancy, due to discretization:         -0.182157 (  -0.01465%)
      ideal mu1:      -0.710928098997
             Q0:  -11642.037216530880
             G0:     -10.006013312045
   RMS gradient:       0.000486276450
MG BCs: +ve charge blocks (gridpoints):     24764 (   16840319).
MG BCs: -ve charge blocks (gridpoints):      8302 (    1068720).
MG BCs:     Elided blocks (gridpoints):    185281 (  188310786).
MG BCs: Computational effort saved:  99.9840%.
MG BCs: Charge after coarse-graining:           -9.0006630.
MG DL_MG: Calling solver with defect correction order = 8
MG DL_MG: Solver finished
MG Hartree energy from (\int phi*rho dr):              1258.515182
MG Hartree energy from (\int eps (grad phi)^2 dr):     1257.862579
MG Discrepancy due to finite box and discretization:     -0.652602 (  -0.05185%)
MG Correction to account for finite box:                  0.464381
MG Remaining discrepancy, due to discretization:         -0.188221 (  -0.01496%)
     Trial step:       0.723143713993
             Q1:  -11641.357634078828
 Quadratic coef:       7.915368080790
 Linear coef   :      -7.235785628738
           Qmin:  -11643.690853895898
Quadratic minimum step length (  0.330528715773) accepted
    Initial Ne1:    7191.99956840
      Final Ne1:    7192.00000000

=================== Penalty functional idempotency correction ==================
 RMS occupancy error at iteration   1:  0.000359 (step -0.4986 Ne1=   7192.0000)
 RMS occupancy error at iteration   2:  0.000000 (step -0.5000 Ne1=   7192.0000)
            Final RMS occupancy error   :  0.000000 (Ne1=   7192.0000)
               Final occupancy bounds   : [  0.0000,  1.0000]
================================================================================

    1        -1.164203721653E+04     4.8628E-04     4.3983E-04
MG BCs: +ve charge blocks (gridpoints):     24721 (   16832992).
MG BCs: -ve charge blocks (gridpoints):      8304 (    1070508).
MG BCs:     Elided blocks (gridpoints):    185324 (  188316325).
MG BCs: Computational effort saved:  99.9840%.
MG BCs: Charge after coarse-graining:           -9.0006651.
MG DL_MG: Calling solver with defect correction order = 8
MG DL_MG: Solver finished
MG Hartree energy from (\int phi*rho dr):              1249.325368
MG Hartree energy from (\int eps (grad phi)^2 dr):     1248.675642
MG Discrepancy due to finite box and discretization:     -0.649726 (  -0.05201%)
MG Correction to account for finite box:                  0.464876
MG Remaining discrepancy, due to discretization:         -0.184850 (  -0.01480%)
      ideal mu1:      -0.717401797078
             Q0:  -11643.665314072277
             G0:      -0.994495666074
   RMS gradient:       0.000153956155
MG BCs: +ve charge blocks (gridpoints):     24727 (   16832430).
MG BCs: -ve charge blocks (gridpoints):      8304 (    1071328).
MG BCs:     Elided blocks (gridpoints):    185318 (  188316067).
MG BCs: Computational effort saved:  99.9840%.
MG BCs: Charge after coarse-graining:           -9.0006651.
MG DL_MG: Calling solver with defect correction order = 8
MG DL_MG: Solver finished
MG Hartree energy from (\int phi*rho dr):              1250.366774
MG Hartree energy from (\int eps (grad phi)^2 dr):     1249.716839
MG Discrepancy due to finite box and discretization:     -0.649934 (  -0.05198%)
MG Correction to account for finite box:                  0.464700
MG Remaining discrepancy, due to discretization:         -0.185234 (  -0.01481%)
     Trial step:       0.488896474834
             Q1:  -11643.872527542524
 Quadratic coef:       0.278991955134
 Linear coef   :      -0.486205425381
           Qmin:  -11643.877144298311
Quadratic minimum step length (  0.426005327644) accepted
    Initial Ne1:    7191.99994423
      Final Ne1:    7192.00000000

=================== Penalty functional idempotency correction ==================
 RMS occupancy error at iteration   1:  0.000150 (step -0.4991 Ne1=   7192.0000)
 RMS occupancy error at iteration   2:  0.000000 (step -0.5000 Ne1=   7192.0000)
            Final RMS occupancy error   :  0.000000 (Ne1=   7192.0000)
               Final occupancy bounds   : [  0.0000,  1.0000]
================================================================================

    2        -1.164366531407E+04     1.5396E-04     1.3925E-04    -1.6281E+00
MG BCs: +ve charge blocks (gridpoints):     24727 (   16832508).
MG BCs: -ve charge blocks (gridpoints):      8306 (    1071212).
MG BCs:     Elided blocks (gridpoints):    185318 (  188316105).
MG BCs: Computational effort saved:  99.9840%.
MG BCs: Charge after coarse-graining:           -9.0006651.
MG DL_MG: Calling solver with defect correction order = 8
MG DL_MG: Solver finished
MG Hartree energy from (\int phi*rho dr):              1250.232568
MG Hartree energy from (\int eps (grad phi)^2 dr):     1249.582662
MG Discrepancy due to finite box and discretization:     -0.649906 (  -0.05198%)
MG Correction to account for finite box:                  0.464723
MG Remaining discrepancy, due to discretization:         -0.185183 (  -0.01481%)
      ideal mu1:      -0.718312174475
             Q0:  -11643.877595879952
             G0:      -0.167478619163
   RMS gradient:       0.000062845154
MG BCs: +ve charge blocks (gridpoints):     24725 (   16831959).
MG BCs: -ve charge blocks (gridpoints):      8305 (    1071566).
MG BCs:     Elided blocks (gridpoints):    185320 (  188316300).
MG BCs: Computational effort saved:  99.9840%.
MG BCs: Charge after coarse-graining:           -9.0006652.
MG DL_MG: Calling solver with defect correction order = 8
MG DL_MG: Solver finished
MG Hartree energy from (\int phi*rho dr):              1249.816943
MG Hartree energy from (\int eps (grad phi)^2 dr):     1249.167209
MG Discrepancy due to finite box and discretization:     -0.649734 (  -0.05199%)
MG Correction to account for finite box:                  0.464565
MG Remaining discrepancy, due to discretization:         -0.185169 (  -0.01482%)
     Trial step:       0.456368823372
             Q1:  -11643.930130140856
 Quadratic coef:       0.023897759464
 Linear coef   :      -0.076432020367
           Qmin:  -11643.938708865737
Quadratic minimum step length (  0.729800449623) accepted
    Initial Ne1:    7191.99998406
      Final Ne1:    7192.00000000

=================== Penalty functional idempotency correction ==================
 RMS occupancy error at iteration   1:  0.000166 (step -0.4911 Ne1=   7192.0000)
 RMS occupancy error at iteration   2:  0.000002 (step -0.5000 Ne1=   7192.0000)
            Final RMS occupancy error   :  0.000000 (Ne1=   7192.0000)
               Final occupancy bounds   : [  0.0000,  1.0000]
================================================================================

    3        -1.164387759588E+04     6.2845E-05     5.6842E-05    -2.1228E-01
MG BCs: +ve charge blocks (gridpoints):     24725 (   16831657).
MG BCs: -ve charge blocks (gridpoints):      8307 (    1071761).
MG BCs:     Elided blocks (gridpoints):    185320 (  188316407).
MG BCs: Computational effort saved:  99.9840%.
MG BCs: Charge after coarse-graining:           -9.0006652.
MG DL_MG: Calling solver with defect correction order = 8
MG DL_MG: Solver finished
MG Hartree energy from (\int phi*rho dr):              1249.568578
MG Hartree energy from (\int eps (grad phi)^2 dr):     1248.918946
MG Discrepancy due to finite box and discretization:     -0.649632 (  -0.05199%)
MG Correction to account for finite box:                  0.464470
MG Remaining discrepancy, due to discretization:         -0.185161 (  -0.01482%)
      ideal mu1:      -0.717621113753
             Q0:  -11643.938789176173
             G0:      -0.061939371854
   RMS gradient:       0.000038204713
MG BCs: +ve charge blocks (gridpoints):     24723 (   16831472).
MG BCs: -ve charge blocks (gridpoints):      8307 (    1071806).
MG BCs:     Elided blocks (gridpoints):    185322 (  188316547).
MG BCs: Computational effort saved:  99.9840%.
MG BCs: Charge after coarse-graining:           -9.0006652.
MG DL_MG: Calling solver with defect correction order = 8
MG DL_MG: Solver finished
MG Hartree energy from (\int phi*rho dr):              1249.523144
MG Hartree energy from (\int eps (grad phi)^2 dr):     1248.873773
MG Discrepancy due to finite box and discretization:     -0.649371 (  -0.05197%)
MG Correction to account for finite box:                  0.464342
MG Remaining discrepancy, due to discretization:         -0.185029 (  -0.01481%)
     Trial step:       0.577111923712
             Q1:  -11643.959546535043
 Quadratic coef:       0.014988591174
 Linear coef   :      -0.035745950044
           Qmin:  -11643.960101601899
Quadratic minimum step length (  0.688170547689) accepted
    Initial Ne1:    7191.99999409
      Final Ne1:    7192.00000000

=================== Penalty functional idempotency correction ==================
 RMS occupancy error at iteration   1:  0.000210 (step -0.4857 Ne1=   7192.0000)
 RMS occupancy error at iteration   2:  0.000002 (step -0.5000 Ne1=   7192.0000)
            Final RMS occupancy error   :  0.000000 (Ne1=   7192.0000)
               Final occupancy bounds   : [  0.0000,  1.0000]
================================================================================

    4        -1.164393878918E+04     3.8205E-05     3.4555E-05    -6.1193E-02
MG BCs: +ve charge blocks (gridpoints):     24723 (   16831425).
MG BCs: -ve charge blocks (gridpoints):      8306 (    1071827).
MG BCs:     Elided blocks (gridpoints):    185322 (  188316573).
MG BCs: Computational effort saved:  99.9840%.
MG BCs: Charge after coarse-graining:           -9.0006652.
MG DL_MG: Calling solver with defect correction order = 8
MG DL_MG: Solver finished
MG Hartree energy from (\int phi*rho dr):              1249.515184
MG Hartree energy from (\int eps (grad phi)^2 dr):     1248.865863
MG Discrepancy due to finite box and discretization:     -0.649321 (  -0.05197%)
MG Correction to account for finite box:                  0.464317
MG Remaining discrepancy, due to discretization:         -0.185004 (  -0.01481%)
      ideal mu1:      -0.717891633853
             Q0:  -11643.960119508673
             G0:      -0.045794710758
   RMS gradient:       0.000032836376
MG BCs: +ve charge blocks (gridpoints):     24721 (   16832454).
MG BCs: -ve charge blocks (gridpoints):      8306 (    1071472).
MG BCs:     Elided blocks (gridpoints):    185324 (  188315899).
MG BCs: Computational effort saved:  99.9840%.
MG BCs: Charge after coarse-graining:           -9.0006650.
MG DL_MG: Calling solver with defect correction order = 8
MG DL_MG: Solver finished
MG Hartree energy from (\int phi*rho dr):              1250.215282
MG Hartree energy from (\int eps (grad phi)^2 dr):     1249.566222
MG Discrepancy due to finite box and discretization:     -0.649060 (  -0.05192%)
MG Correction to account for finite box:                  0.464117
MG Remaining discrepancy, due to discretization:         -0.184943 (  -0.01479%)
     Trial step:       0.630199514931
             Q1:  -11643.977381109493
 Quadratic coef:       0.011598203686
 Linear coef   :      -0.028859804506
           Qmin:  -11643.978072467999
Quadratic minimum step length (  0.784062570941) accepted
    Initial Ne1:    7191.99999469
      Final Ne1:    7192.00000000

=================== Penalty functional idempotency correction ==================
 RMS occupancy error at iteration   1:  0.000499 (step -0.4674 Ne1=   7192.0000)
 RMS occupancy error at iteration   2:  0.000008 (step -0.4996 Ne1=   7192.0000)
            Final RMS occupancy error   :  0.000000 (Ne1=   7192.0000)
               Final occupancy bounds   : [ -0.0000,  1.0000]
================================================================================

    5        -1.164396011951E+04     3.2836E-05     2.9700E-05    -2.1330E-02
MG BCs: +ve charge blocks (gridpoints):     24721 (   16832731).
MG BCs: -ve charge blocks (gridpoints):      8305 (    1071356).
MG BCs:     Elided blocks (gridpoints):    185324 (  188315738).
MG BCs: Computational effort saved:  99.9840%.
MG BCs: Charge after coarse-graining:           -9.0006649.
MG DL_MG: Calling solver with defect correction order = 8
MG DL_MG: Solver finished
MG Hartree energy from (\int phi*rho dr):              1250.387225
MG Hartree energy from (\int eps (grad phi)^2 dr):     1249.738227
MG Discrepancy due to finite box and discretization:     -0.648998 (  -0.05190%)
MG Correction to account for finite box:                  0.464070
MG Remaining discrepancy, due to discretization:         -0.184928 (  -0.01479%)
      ideal mu1:      -0.718968694372
             Q0:  -11643.978144265013
             G0:      -0.034642018713
   RMS gradient:       0.000028372261
MG BCs: +ve charge blocks (gridpoints):     24720 (   16832687).
MG BCs: -ve charge blocks (gridpoints):      8305 (    1071435).
MG BCs:     Elided blocks (gridpoints):    185325 (  188315703).
MG BCs: Computational effort saved:  99.9840%.
MG BCs: Charge after coarse-graining:           -9.0006650.
MG DL_MG: Calling solver with defect correction order = 8
MG DL_MG: Solver finished
MG Hartree energy from (\int phi*rho dr):              1250.202002
MG Hartree energy from (\int eps (grad phi)^2 dr):     1249.553179
MG Discrepancy due to finite box and discretization:     -0.648823 (  -0.05190%)
MG Correction to account for finite box:                  0.463882
MG Remaining discrepancy, due to discretization:         -0.184941 (  -0.01479%)
     Trial step:       0.702933746439
             Q1:  -11643.994015766191
 Quadratic coef:       0.008479542819
 Linear coef   :      -0.024351043998
           Qmin:  -11643.995626733007
Quadratic minimum step length (  1.009321549059) accepted
    Initial Ne1:    7192.00006249
      Final Ne1:    7192.00000000

=================== Penalty functional idempotency correction ==================
 RMS occupancy error at iteration   1:  0.001100 (step -0.4362 Ne1=   7192.0000)
 RMS occupancy error at iteration   2:  0.000030 (step -0.4986 Ne1=   7192.0000)
            Final RMS occupancy error   :  0.000000 (Ne1=   7192.0000)
               Final occupancy bounds   : [ -0.0000,  1.0000]
================================================================================

    6        -1.164397814427E+04     2.8372E-05     2.5662E-05    -1.8025E-02
MG BCs: +ve charge blocks (gridpoints):     24720 (   16832724).
MG BCs: -ve charge blocks (gridpoints):      8305 (    1071434).
MG BCs:     Elided blocks (gridpoints):    185325 (  188315667).
MG BCs: Computational effort saved:  99.9840%.
MG BCs: Charge after coarse-graining:           -9.0006649.
MG DL_MG: Calling solver with defect correction order = 8
MG DL_MG: Solver finished
MG Hartree energy from (\int phi*rho dr):              1250.122549
MG Hartree energy from (\int eps (grad phi)^2 dr):     1249.473797
MG Discrepancy due to finite box and discretization:     -0.648752 (  -0.05190%)
MG Correction to account for finite box:                  0.463806
MG Remaining discrepancy, due to discretization:         -0.184947 (  -0.01479%)
      ideal mu1:      -0.719085050868
             Q0:  -11643.995801392826
             G0:      -0.033221588574
   RMS gradient:       0.000028019662
MG BCs: +ve charge blocks (gridpoints):     24720 (   16831455).
MG BCs: -ve charge blocks (gridpoints):      8309 (    1071734).
MG BCs:     Elided blocks (gridpoints):    185325 (  188316636).
MG BCs: Computational effort saved:  99.9840%.
MG BCs: Charge after coarse-graining:           -9.0006653.
MG DL_MG: Calling solver with defect correction order = 8
MG DL_MG: Solver finished
MG Hartree energy from (\int phi*rho dr):              1249.650566
MG Hartree energy from (\int eps (grad phi)^2 dr):     1249.001744
MG Discrepancy due to finite box and discretization:     -0.648822 (  -0.05192%)
MG Correction to account for finite box:                  0.463832
MG Remaining discrepancy, due to discretization:         -0.184990 (  -0.01480%)
     Trial step:       0.842310024778
             Q1:  -11644.001397583634
 Quadratic coef:       0.022386686287
 Linear coef   :      -0.027982877095
           Qmin:  -11644.004545891683
Quadratic minimum step length (  0.526434720993) accepted
    Initial Ne1:    7192.00028882
      Final Ne1:    7192.00000000

=================== Penalty functional idempotency correction ==================
 RMS occupancy error at iteration   1:  0.000012 (step -0.4993 Ne1=   7192.0000)
            Final RMS occupancy error   :  0.000000 (Ne1=   7192.0000)
               Final occupancy bounds   : [ -0.0000,  1.0000]
================================================================================

    7        -1.164399580139E+04     2.8020E-05     2.5343E-05    -1.7657E-02
MG BCs: +ve charge blocks (gridpoints):     24720 (   16831895).
MG BCs: -ve charge blocks (gridpoints):      8307 (    1071632).
MG BCs:     Elided blocks (gridpoints):    185325 (  188316298).
MG BCs: Computational effort saved:  99.9840%.
MG BCs: Charge after coarse-graining:           -9.0006652.
MG DL_MG: Calling solver with defect correction order = 8
MG DL_MG: Solver finished
MG Hartree energy from (\int phi*rho dr):              1249.825988
MG Hartree energy from (\int eps (grad phi)^2 dr):     1249.177191
MG Discrepancy due to finite box and discretization:     -0.648797 (  -0.05191%)
MG Correction to account for finite box:                  0.463823
MG Remaining discrepancy, due to discretization:         -0.184974 (  -0.01480%)
      ideal mu1:      -0.718711255174
             Q0:  -11644.004546926008
             G0:      -0.021550291761
   RMS gradient:       0.000022564750
MG BCs: +ve charge blocks (gridpoints):     24721 (   16831715).
MG BCs: -ve charge blocks (gridpoints):      8308 (    1071684).
MG BCs:     Elided blocks (gridpoints):    185324 (  188316426).
MG BCs: Computational effort saved:  99.9840%.
MG BCs: Charge after coarse-graining:           -9.0006652.
MG DL_MG: Calling solver with defect correction order = 8
MG DL_MG: Solver finished
MG Hartree energy from (\int phi*rho dr):              1249.662364
MG Hartree energy from (\int eps (grad phi)^2 dr):     1249.013543
MG Discrepancy due to finite box and discretization:     -0.648822 (  -0.05192%)
MG Correction to account for finite box:                  0.463812
MG Remaining discrepancy, due to discretization:         -0.185010 (  -0.01480%)
     Trial step:       0.665898823308
             Q1:  -11644.014629293582
 Quadratic coef:       0.004267946351
 Linear coef   :      -0.014350313926
           Qmin:  -11644.016609607495
Quadratic minimum step length (  1.119491245984) accepted
    Initial Ne1:    7192.00048842
      Final Ne1:    7192.00000000

=================== Penalty functional idempotency correction ==================
[...]
MG DL_MG: Calling solver with defect correction order = 8
MG DL_MG: Solver finished
MG Hartree energy from (\int phi*rho dr):              1207.608160
MG Hartree energy from (\int eps (grad phi)^2 dr):     1207.417853
MG Discrepancy due to finite box and discretization:     -0.190307 (  -0.01576%)
MG Correction to account for finite box:                  0.006253
MG Remaining discrepancy, due to discretization:         -0.184054 (  -0.01524%)
             Q2:  -11678.649183757138
  Cubic LS coeff:       0.932055843125
Predicted energy:  -11678.649183757228
Cubic minimum step length accepted
    Initial Ne1:    7192.00000000
      Final Ne1:    7192.00000000

=================== Penalty functional idempotency correction ==================
 RMS occupancy error at iteration   1:  0.000000 (step -0.5000 Ne1=   7192.0000)
            Final RMS occupancy error   :  0.000000 (Ne1=   7192.0000)
               Final occupancy bounds   : [  0.0000,  1.0000]
================================================================================

    7        -1.167864918375E+04     6.5193E-09     5.8966E-09    -1.0477E-09

Reusing previously generated solute cavity.
MG BCs: +ve charge blocks (gridpoints):     29009 (   19023960).
MG BCs: -ve charge blocks (gridpoints):      8301 (    1040739).
MG BCs:     Elided blocks (gridpoints):    181036 (  186155126).
MG BCs: Computational effort saved:  99.9819%.
MG BCs: Charge after coarse-graining:           -9.0009436.
MG DL_MG: Calling solver with defect correction order = 8
MG DL_MG: Solver finished
MG Hartree energy from (\int phi*rho dr):              1207.608156
MG Hartree energy from (\int eps (grad phi)^2 dr):     1207.417849
MG Discrepancy due to finite box and discretization:     -0.190307 (  -0.01576%)
MG Correction to account for finite box:                  0.006253
MG Remaining discrepancy, due to discretization:         -0.184054 (  -0.01524%)
      ideal mu1:      -0.481756087386
             Q0:  -11678.649183757254
             G0:      -0.000000001652
   RMS gradient:       0.000000006083

Reusing previously generated solute cavity.
MG BCs: +ve charge blocks (gridpoints):     29009 (   19023960).
MG BCs: -ve charge blocks (gridpoints):      8301 (    1040739).
MG BCs:     Elided blocks (gridpoints):    181036 (  186155126).
MG BCs: Computational effort saved:  99.9819%.
MG BCs: Charge after coarse-graining:           -9.0009436.
MG DL_MG: Calling solver with defect correction order = 8
MG DL_MG: Solver finished
MG Hartree energy from (\int phi*rho dr):              1207.608132
MG Hartree energy from (\int eps (grad phi)^2 dr):     1207.417825
MG Discrepancy due to finite box and discretization:     -0.190307 (  -0.01576%)
MG Correction to account for finite box:                  0.006253
MG Remaining discrepancy, due to discretization:         -0.184054 (  -0.01524%)
     Trial step:       0.616334063789
             Q1:  -11678.649183756905
 Quadratic coef:       0.000000001368
 Linear coef   :      -0.000000001018
           Qmin:  -11678.649183757443
Quadratic minimum step length (  0.229330293337) accepted
    Initial Ne1:    7192.00000000
      Final Ne1:    7192.00000000

=================== Penalty functional idempotency correction ==================
 RMS occupancy error at iteration   1:  0.000000 (step -0.5000 Ne1=   7192.0000)
            Final RMS occupancy error   :  0.000000 (Ne1=   7192.0000)
               Final occupancy bounds   : [ -0.0000,  1.0000]
================================================================================

    8        -1.167864918376E+04     6.0830E-09     5.5020E-09    -2.3283E-09

Reusing previously generated solute cavity.
MG BCs: +ve charge blocks (gridpoints):     29009 (   19023960).
MG BCs: -ve charge blocks (gridpoints):      8301 (    1040739).
MG BCs:     Elided blocks (gridpoints):    181036 (  186155126).
MG BCs: Computational effort saved:  99.9819%.
MG BCs: Charge after coarse-graining:           -9.0009436.
MG DL_MG: Calling solver with defect correction order = 8
MG DL_MG: Solver finished
MG Hartree energy from (\int phi*rho dr):              1207.608147
MG Hartree energy from (\int eps (grad phi)^2 dr):     1207.417840
MG Discrepancy due to finite box and discretization:     -0.190307 (  -0.01576%)
MG Correction to account for finite box:                  0.006253
MG Remaining discrepancy, due to discretization:         -0.184054 (  -0.01524%)
      ideal mu1:      -0.481756074565
             Q0:  -11678.649183757254
             G0:      -0.000000001231
   RMS gradient:       0.000000004124

Reusing previously generated solute cavity.
MG BCs: +ve charge blocks (gridpoints):     29009 (   19023960).
MG BCs: -ve charge blocks (gridpoints):      8301 (    1040739).
MG BCs:     Elided blocks (gridpoints):    181036 (  186155126).
MG BCs: Computational effort saved:  99.9819%.
MG BCs: Charge after coarse-graining:           -9.0009436.
MG DL_MG: Calling solver with defect correction order = 8
MG DL_MG: Solver finished
MG Hartree energy from (\int phi*rho dr):              1207.608141
MG Hartree energy from (\int eps (grad phi)^2 dr):     1207.417834
MG Discrepancy due to finite box and discretization:     -0.190307 (  -0.01576%)
MG Correction to account for finite box:                  0.006253
MG Remaining discrepancy, due to discretization:         -0.184054 (  -0.01524%)
     Trial step:       0.375957539680
             Q1:  -11678.649183756672
 Quadratic coef:       0.000000001046
 Linear coef   :      -0.000000000463
           Qmin:  -11678.649183757305
Quadratic minimum step length (  0.083201744154) accepted
    Initial Ne1:    7192.00000000
      Final Ne1:    7192.00000000

=================== Penalty functional idempotency correction ==================
 RMS occupancy error at iteration   1:  0.000000 (step -0.5000 Ne1=   7192.0000)
            Final RMS occupancy error   :  0.000000 (Ne1=   7192.0000)
               Final occupancy bounds   : [  0.0000,  1.0000]
================================================================================

    9        -1.167864918376E+04     4.1238E-09     3.7299E-09     0.0000E+00

Reusing previously generated solute cavity.
MG BCs: +ve charge blocks (gridpoints):     29009 (   19023960).
MG BCs: -ve charge blocks (gridpoints):      8301 (    1040739).
MG BCs:     Elided blocks (gridpoints):    181036 (  186155126).
MG BCs: Computational effort saved:  99.9819%.
MG BCs: Charge after coarse-graining:           -9.0009436.
MG DL_MG: Calling solver with defect correction order = 8
MG DL_MG: Solver finished
MG Hartree energy from (\int phi*rho dr):              1207.608146
MG Hartree energy from (\int eps (grad phi)^2 dr):     1207.417839
MG Discrepancy due to finite box and discretization:     -0.190307 (  -0.01576%)
MG Correction to account for finite box:                  0.006253
MG Remaining discrepancy, due to discretization:         -0.184054 (  -0.01524%)
      ideal mu1:      -0.481756070039
   10        -1.167864918376E+04     3.2212E-09     2.9135E-09     0.0000E+00
Finished density kernel iterations (  10)

Writing density kernel to file "host_4661.dkn" ... done


>>> Density kernel optimised for the current NGWF basis:
     ~~~~~~~~~~~~~~~~~~~~~~~~~~~~~~~~~~~~~~~~~~~~~~~~~~~~~~~~~~~
     Total energy                =  -1.16786491837573E+04  Eh
     Estimated bandgap           =   1.0365E-01  Eh
     RMS occupancy error         =   4.3920E-16
     [H,K] commutator            =   2.9135E-09
     Occupancy bounds            = [  0.000:  1.000]
     ~~~~~~~~~~~~~~~~~~~~~~~~~~~~~~~~~~~~~~~~~~~~~~~~~~~~~~~~~~~




################################################################################
########################### NGWF CG iteration  004 #############################
################################################################################
****** Reciprocal space K.E. preconditioning with k_zero =  3.5000 a0^-1 *******

>>> Checking for convergence of NGWFs: 
           ........................................................
           |         *** NGWF optimisation converged ***          |
           | RMS NGWF gradient =    0.00000198249799              |
           | Criteria satisfied:                                  |
           | -> RMS NGWF gradient lower than set threshold.       |
           ========================================================

Reusing previously generated solute cavity.
MG BCs: +ve charge blocks (gridpoints):     29009 (   19023960).
MG BCs: -ve charge blocks (gridpoints):      8301 (    1040739).
MG BCs:     Elided blocks (gridpoints):    181036 (  186155126).
MG BCs: Computational effort saved:  99.9819%.
MG BCs: Charge after coarse-graining:           -9.0009436.
MG DL_MG: Calling solver with defect correction order = 8
MG DL_MG: Solver finished
MG Hartree energy from (\int phi*rho dr):              1207.608146
MG Hartree energy from (\int eps (grad phi)^2 dr):     1207.417839
MG Discrepancy due to finite box and discretization:     -0.190307 (  -0.01576%)
MG Correction to account for finite box:                  0.006253
MG Remaining discrepancy, due to discretization:         -0.184054 (  -0.01524%)

================================================================================
           ---------------- ENERGY COMPONENTS (Eh) ----------------
           | Kinetic                    :     8533.52904695590041 |
           | Pseudo. (local,OBC,corr'd) :    -5052.74946543631359 |
           | Pseudopotential (non-local):     1403.26772638165221 |
           | Hartree (molecular)        :     1207.60814583526872 |
           | Exchange-correlation       :    -3358.71641735573212 |
           | Ion-ion (open BC)          :   824392.56189524976071 |
           | Dispersion Correction      :       -3.24812607711504 |
           | Smeared ion non-self corr. :  -824344.39129787287675 |
           | Smeared ion self corr.     :   -14457.16956389741972 |
           | Solvent cavitation energy  :        2.34411619560872 |
           | Solute-solvent dis-rep en. :       -1.68524373592800 |
           | Total                      :   -11678.64918375723755 |
           --------------------------------------------------------
           ------ LOCAL ENERGY COMPONENTS FROM MATRIX TRACES ------
           | Pseudopotential (local)    :    -5052.74946543634815 |
           | Hartree                    :    -1993.02704665818737 |
           --------------------------------------------------------
           Integrated density           :     7191.99999999814008
           Integrated density tr(KS)    :     7192.00000000000182
================================================================================


                        <<<<< CALCULATION SUMMARY >>>>>                         
|ITER|    RMS GRADIENT   |     TOTAL ENERGY    |   step   |     Epredicted              
   0     0.00003972171240 -11678.58848731673788   0.613666 -11678.64087058648693        
   1     0.00001016134404 -11678.64857801061589   0.090615 -11678.64908419141648        
   2     0.00000446392929 -11678.64916354673915   0.016406 -11678.64918123284224        
   3     0.00000198249799 -11678.64918375725392  <-- CG                                 

=================== Finished the calculation in solvent ========================
= Adjusting the following parameters: 
= read_denskern: F
= read_tightbox_ngwfs: F
= maxit_pen: 0 (restored to user-specified value)
= restart read filename prefix: ""
= restart write filename prefix: ""
================================================================================

================================================================================
IS: Calculation in solvent completed (NGWFs converged).      

Individual components of total energy in solvent:     hartree           kcal/mol
- Usual non-electrostatic DFT terms:    -12886.91620205220352    -8086661.832804
- Electrostatic fixed charge energy:      1207.60814583526872      757785.536027
- Apolar cavitation energy:                  2.34411619560872        1470.955089
- Apolar dispersion-repulsion energy:       -1.68524373592800       -1057.506387
 -------------------------------------------------------------------------------
- Total energy in solvent:              -11678.64918375725392    -7328462.848075

Components of total energy in solvent:                hartree           kcal/mol
- Usual non-electrostatic DFT terms:    -12886.91620205220352    -8086661.832804
- Electrostatic energy:                   1207.60814583526872      757785.536027
- Apolar energy terms:                       0.65887245968072         413.448702
 -------------------------------------------------------------------------------
- Total energy in solvent:              -11678.64918375725392    -7328462.848075

Calculation of free energy of solvation:              hartree           kcal/mol
- Total energy in solvent:         (+)  -11678.64918375725392    -7328462.848075
- Total energy in vacuum:          (-)  -11674.84579967870377    -7326076.188584
 -------------------------------------------------------------------------------
- Total free energy of solvation:           -3.80338407855015       -2386.659491

Components of polar term in f.e. of solvation:        hartree           kcal/mol
- Electrostatic:                            -4.70049028296489       -2949.602121
- Change in nonelectrostatic DFT terms:      0.23823374473432         149.493929
 -------------------------------------------------------------------------------
- Polar term in f.e. of solvation:          -4.46225653823058       -2800.108193

Components of free energy of solvation:               hartree           kcal/mol
- Polar term in f.e. of solvation: (+)      -4.46225653823058       -2800.108193
- Apolar (cavitation, dis., rep.): (+)       0.65887245968072         413.448702
 -------------------------------------------------------------------------------
- Total free energy of solvation:           -3.80338407854985       -2386.659491
================================================================================


------------------------------ TIMING INFORMATION ------------------------------
AVERAGE TIME:   30427.815s on     40 node(s)                                    
TOTAL TIME:     30427.815s on     40 node(s)                                    
================= AVERAGE TIMINGS FROM ALL NODES (CUMULATIVE) ==================
|| TAG                                    #calls    cpu time   %total  Gflops ||
|| work_imbalance                       :     1        0.00s   0.000%  ------ ||
|| parallel_prepare_fd_halos_request    :  2187        0.02s   0.000%  ------ ||
|| sparse_set_to_garbage                :   200        0.04s   0.000%  ------ ||
|| parallel_prepare_fd_halos_satisfy    :  2187        0.07s   0.000%  ------ ||
|| ngwfs_initialise_from_radial         :     1        0.16s   0.001%  ------ ||
|| basis_extract_function_from_box      :  6017        0.23s   0.001%  ------ ||
|| parallel_prepare_fd_halos_alloc      :  2187        0.24s   0.001%  ------ ||
|| pseudopotentials_nonlocal_mat        :    34        1.50s   0.005%  ------ ||
|| restart_ngwfs_tightbox_input         :     1        1.78s   0.006%  ------ ||
|| density_init_guess_real              :     1        3.97s   0.013%  ------ ||
|| parallel_prepare_fd_halos_comms_imbal:  2187        4.31s   0.014%  ------ ||
|| openbc_locps_radial                  :     1        4.58s   0.015%  ------ ||
|| restart_kernel_read                  :     1        4.65s   0.015%  ------ ||
|| parallel_prepare_fd_halos_clear      :  2187       16.14s   0.053%  ------ ||
|| sparse_init                          :     2       22.54s   0.074%  ------ ||
|| projectors_func_ovlp_box             :    34       25.77s   0.085%  ------ ||
|| parallel_prepare_fd_halos_comms_wait :  2187       27.76s   0.091%  ------ ||
|| projectors_init_fftbox_recip         :   232       29.72s   0.098%  ------ ||
|| function_ops_brappd_ketppd           :    34       30.92s   0.102%  ------ ||
|| palser_mano_kernel_optimise          :     1       39.57s   0.130%  ------ ||
|| parallel_prepare_fd_halos            :  2187       48.54s   0.160%  ------ ||
|| pseudo_make_structure_factor         :     2       57.34s   0.188%  ------ ||
|| fourier_apply_box_pair               :  8629       59.70s   0.196% 557.941 ||
|| basis_copy_function_to_box           : 97900       61.64s   0.203%  ------ ||
|| restart_kernel_write                 :    19       69.43s   0.228%  ------ ||
|| ngwf_gradient_coeffs                 :    18       72.21s   0.237%  ------ ||
|| sparse_embed_hotelling_invert_embed  :    34      104.49s   0.343%  ------ ||
|| finite_difference_derivative         :  2187      131.35s   0.432%  ------ ||
|| restart_ngwfs_tightbox_output        :    16      167.09s   0.549%  ------ ||
|| integrals_kinetic                    :    34      183.42s   0.603%  ------ ||
|| openbc_locps_on_grid                 :     2      200.07s   0.658%  ------ ||
|| projectors_gradient_batch            :   198      236.55s   0.777%  ------ ||
|| fourier_apply_cell_backward          :  1459      245.35s   0.806%  87.131 ||
|| fourier_apply_cell_forward           :  1457      262.18s   0.862%  81.426 ||
|| sparse_trace                         :  6112      289.49s   0.951%  ------ ||
|| basis_dot_function_with_box          : 14.78M     292.77s   0.962%  ------ ||
|| kernel_purify                        :   557      399.75s   1.314%  ------ ||
|| hamiltonian_energy_components        :     4      424.75s   1.396%  ------ ||
|| xc_energy_potential                  :   364      597.47s   1.964%  ------ ||
|| basis_add_function_to_box            : 30.92M     605.91s   1.991%  ------ ||
|| lnv_gradient_norm                    :   180      655.53s   2.154%  ------ ||
|| kernel_fix                           :   180      769.38s   2.529%  ------ ||
|| ngwf_gradient_build_batch            :   198      852.04s   2.800%  ------ ||
|| cell_grid_deposit_box_real           : 61420      951.42s   3.127%  ------ ||
|| integrals_locpot_mat_els_batch       :  2079     1044.39s   3.432%  ------ ||
|| cell_grid_extract_box_real           : 58318     1104.35s   3.629%  ------ ||
|| ngwf_gradient_batch                  :   198     1181.50s   3.883%  ------ ||
|| ngwf_gradient_lnv                    :    18     1368.33s   4.497%  ------ ||
|| density_batch_row_sums               :  3993     1393.08s   4.578%  ------ ||
|| density_fftbox_deposit_to_cell       : 59169     1629.20s   5.354%  ------ ||
|| sparse_product                       :  7573     2514.91s   8.265%  ------ ||
|| multigrid_prepare_bound_cond         :   364     2883.65s   9.477%  ------ ||
|| potential_apply_to_ngwf_batch        :  2079     3562.25s  11.707%  ------ ||
|| density_fftbox_interpolate_multiply  : 59169     4106.49s  13.496%  ------ ||
|| fourier_apply_box                    : 204.2k    4120.39s  13.542% 927.218 ||
|| integrals_locpot_dbl_grid            :   189     4631.49s  15.221%  ------ ||
|| density_batch_interp_deposit         :  3993     6455.07s  21.214%  ------ ||
|| dl_mg_solver_calls                   :   364     7884.89s  25.913%  ------ ||
|| density_on_dbl_grid                  :   363     8342.63s  27.418%  ------ ||
|| multigrid_calculate_hartree          :   364    10953.53s  35.998%  ------ ||
|| hamiltonian_lhxc_calculate           :   359    19944.90s  65.548%  ------ ||
|| lnv_denskernel_optimise_cg           :    18    26237.52s  86.229%  ------ ||
|| ngwf_cg_optimise                     :     2    29592.84s  97.256%  ------ ||
|| total_time                           :     1    30427.81s 100.000%  ------ ||
================================================================================
Overhead of generating timer report: 
- 0 ms averaging over threads,
- 5 ms ensuring consistency across MPI ranks,
- 2 ms printing in order.

Job completed: 27-04-2020 22:46 (+0100)

