 +---------------------------------------------------------------+
 |                                                               |
 |        ####### #     # ####### ####### ####### ######         |
 |        #     # ##    # #          #    #       #     #        |
 |        #     # # #   # #          #    #       #     #        |
 |        #     # #  #  # #####      #    #####   ######         |
 |        #     # #   # # #          #    #       #              |
 |        #     # #    ## #          #    #       #              |
 |        ####### #     # #######    #    ####### #              |
 |                                                               |
 |        Linear-Scaling Ab Initio Total Energy Program          |
 |                                                               |
 |          Release for academic collaborators of ODG            |
 |                                             Version 5.3.2.6.  |
 |                                                               |
 +---------------------------------------------------------------+
 |                                                               |
 |  Authors:                                                     |
 |  Jacek Dziedzic, Peter D. Haynes, Nicholas D. M. Hine,        |
 |  Arash. A. Mostofi, Mike C. Payne and Chris-Kriton Skylaris   |
 |                                                               |
 |  Contributors:                                                |
 |  J. Aarons, L. Andrinopoulos, P. W. Avraam, R. A. Bell,       |
 |  A. Bhandari, G. A. Bramley, R. J. Charlton, S. J. Clark,     |
 |  R. J. Clements, G. C. Constantinescu, F. Corsetti,           |
 |  N. Corsini, O. Dieguez, S. M. M. Dubois, K. K. B. Duff,      |
 |  J. M. Escartin, A. Greco, H. Helal, Q. O. Hill, L. P. Lee,   |
 |  J.-H. Li, E. B. Linscott, G. Moynihan, D. D. O`Regan,        |
 |  O. K. Okan, M. J. S. Phipps, C. J. Pickard,                  |
 |  J. C. A. Prentice, M. I. J. Probert, L. E. Ratcliff,         |
 |  M. Robinson, A. Ruiz Serrano, J. S. Spencer, E. W. Tait,     |
 |  G. Teobaldi, D. Turban, V. Vitale, K. A. Wilkinson,          |
 |  C. Weber, J. C. Womack, N. Yeung and T. J. Zuehlsdorff       |
 |                                                               |
 |                                   Copyright (c) 2004-2019     |
 |                                                               |
 |  Please cite:                                                 |
 |  "Introducing ONETEP: Linear-scaling density functional       |
 |   simulations on parallel computers".                         |
 |   C.-K. Skylaris, P. D. Haynes, A. A. Mostofi, M. C. Payne.   |
 |   J. Chem. Phys. 122 084119 (2005).                           |
 |                                                               |
 |          in all publications arising from your use of ONETEP. |
 |                                                               |
 +---------------------------------------------------------------+
 |                                                               |
 |   ONETEP is based on developments described in the following  |
 |   publications:                                               |
 |                                                               |
 |  "Nonorthogonal generalized Wannier function pseudopotential  |
 |   plane-wave method".                                         |
 |   C.-K. Skylaris, A. A. Mostofi, P. D. Haynes, O. Dieguez,    |
 |   M. C. Payne.                                                |
 |   Phys. Rev. B 66 035119 (2002).                              |
 |                                                               |
 |  "Preconditioned iterative minimization for linear-scaling    |
 |   electronic structure calculations".                         |
 |   A. A. Mostofi, P. D. Haynes, C.-K. Skylaris, M. C. Payne.   |
 |   J. Chem. Phys. 119(17), pp.8842-8848 (2003).                |
 |                                                               |
 |  "Total-energy calculations on a real space grid with         |
 |   localized functions and a plane-wave basis".                |
 |   A. A. Mostofi, C.-K. Skylaris, P. D. Haynes, M. C. Payne.   |
 |   Comput. Phys. Commun. 147, pp.788-802 (2002).               |
 |                                                               |
 |  "Accurate kinetic energy evaluation in electronic structure  |
 |   calculations with localized functions on real space grids"  |
 |   C.-K. Skylaris, A. A. Mostofi, P. D. Haynes, C. J. Pickard, |
 |   M. C. Payne.                                                |
 |   Comput. Phys. Commun. 140, pp.315-322 (2001).               |
 |                                                               |
 |  "Accurate ionic forces and geometry optimization in linear-  |
 |   scaling density-functional theory with local orbitals"      |
 |   N. D. M. Hine, M. Robinson, P. D. Haynes, C.-K. Skylaris,   |
 |   M. C. Payne, and A. A. Mostofi.                             |
 |   Phys. Rev. B 83 195102 (2011).                              |
 |                                                               |
 +---------------------------------------------------------------+

Job started: 03-05-2020 14:52 (+0100)
 
Reading parameters from file "host_36581.dat" ...... done

If your calculation crashes here, before "Checking processes and threads..."
is displayed, then your stack size is insufficient.
If so, use "ulimit -s unlimited" at runtime.
You can disable this check with "check_stack_size F".

Checking processes and threads...
   Determining the default number of threads...
      No default threads set at compilation time: defaulting to 1.
      OpenMP library call suggests 4 threads.
      Hybrid MPI-OpenMP compilation detected.
      Number of MPI processes > 1.
      OMP_NUM_THREADS environment variable present and
      its value matches the one obtained from the OpenMP library call.
      Using this value as default.
      Default threads: 4
      Default applies to threads_max and threads_num_fftboxes.
      Settings in the input file override this default.
   ... done

   Running with 60 MPI processes.
   There are 6 MPI processes running on the same node as the root process.
   Each MPI process is using: 
               1 threads for simulation cell FFTs.
               1 threads for parallel FFT box operations.
               4 threads for loops over batched FFT box operations.
               4 threads in other parallel regions.
... done

Basic input checks...... done

Reading geometry and species blocks from file "host_36581.dat" ...
  <species_atomic_set> block not found: NGWF initialisation set to SOLVE
IS: Dielectric excluded regions:
    - NONE.
    
  Number of PPD points along a3 set to 1.  This is 
  the default value, it may have been provided also in the input file.
... done
 Writing xyz coordinates to file "host_36581.xyz" ... done


--------------------------------------------------------------------------------
---------------------------------- INPUT FILE ----------------------------------
--------------------------------------------------------------------------------

cutoff_energy       : 800 eV                                                    
xc_functional PBE                                                               
task SINGLEPOINT                                                                
write_xyz true                                                                  
output_detail VERBOSE                                                           
ngwf_threshold_orig : 0.000002                                                  
kernel_cutoff       : 1000                                                      
k_zero              : 3.5                                                       
elec_cg_max 0                                                                   
occ_mix 1.0                                                                     
dispersion 1                                                                    
maxit_ngwf_cg 40                                                                
minit_lnv 10                                                                    
maxit_lnv 10                                                                    
write_denskern T                                                                
write_tightbox_ngwfs T                                                          
charge 9                                                                        
is_implicit_solvent T                                                           
is_auto_solvation T                                                             
is_include_apolar T                                                             
is_smeared_ion_rep T                                                            
is_solvent_surf_tension 4.7624E-5 Ha/bohr**2                                    
is_apolar_scaling_factor 0.281075                                               
is_solvation_beta 1.3                                                           
is_density_threshold 0.00035                                                    
is_bulk_permittivity 78.54                                                      
is_dielectric_model fix_initial                                                 
is_smeared_ion_width 0.8                                                        
mg_defco_fd_order 8                                                             
is_bc_coarseness 10                                                             
is_bc_surface_coarseness 1                                                      
fine_grid_scale 2.0                                                             
%block species                                                                  
N   N   7 4 8.0                                                                 
H   H   1 1 8.0                                                                 
C   C   6 4 8.0                                                                 
S   S  16 9 8.0                                                                 
O   O   8 4 8.0                                                                 
%endblock species                                                               
%block species_pot                                                              
N   N_00.recpot                                                                 
H   H_04.recpot                                                                 
C   C_01.recpot                                                                 
S   S_00.recpot                                                                 
O   O_02.recpot                                                                 
%endblock species_pot                                                           
%block lattice_cart                                                             
139.898   0.000   0.000                                                         
0.000 144.87   0.000                                                            
0.000   0.000   168.12                                                          
%endblock lattice_cart                                                          
%block positions_abs                                                            
     Hash =  -000000503037594357343611
%endblock positions_abs                                                         

--------------------------------------------------------------------------------
-------------------------------- END INPUT FILE --------------------------------
--------------------------------------------------------------------------------


 
 ESDF WARNING(1): "kernelcutoff" (esdf_physical) has no units. Assume "bohr".
 ESDF WARNING(2): "kzero" (esdf_physical) has no units. Assume "1/bohr".
 ESDF WARNING(3
 ): "issmearedionwidth" (esdf_physical) has no units. Assume "bohr".
<<<<<<<<<<<<<<<<<<<<<<<<<<<<<<<<< Full system >>>>>>>>>>>>>>>>>>>>>>>>>>>>>>>>>>
<<<<<<<<<<<<<<<<<<<<<<<<< Pseudopotential information >>>>>>>>>>>>>>>>>>>>>>>>>>
File: N_00.recpot [ 2001 points up to Gmax=  52.9 (1/bohr)]
  Atomic number:  7;  ionic charge:  5.000000
    Shell 1: l = 0; rc = 1.48 bohr
File: H_04.recpot [ 2001 points up to Gmax=  52.9 (1/bohr)]
  Atomic number:  1;  ionic charge:  1.000000
    Local potential
File: C_01.recpot [ 2001 points up to Gmax=  52.9 (1/bohr)]
  Atomic number:  6;  ionic charge:  4.000000
    Shell 1: l = 0; rc = 1.48 bohr
File: S_00.recpot [ 2001 points up to Gmax=  52.9 (1/bohr)]
  Atomic number: 16;  ionic charge:  6.000000
    Shell 1: l = 0; rc = 1.90 bohr
    Shell 2: l = 2; rc = 1.84 bohr
File: O_02.recpot [ 2001 points up to Gmax=  52.9 (1/bohr)]
  Atomic number:  8;  ionic charge:  6.000000
    Shell 1: l = 0; rc = 1.31 bohr
<<<<<<<<<<<<<<<<<<<<<<<<<<<<<<<<<<<<<<<<>>>>>>>>>>>>>>>>>>>>>>>>>>>>>>>>>>>>>>>>

-------------------------- Atom counting information ---------------------------
Symbol    Natoms    Nngwfs    Nprojs
  N        236       944       236
  H       1311      1311         0
  C        810      3240       810
  S          6        54        36
  O        239       956       239
.......   ......    ......    ......
Totals:   2602      6505      1321
--------------------------------------------------------------------------------

=============================== PSINC grid sizes ===============================
                      Simulation cell:  275 x 286 x 336
                              FFT-box:   99 x  99 x  99
                                  PPD:    5 x  11 x   1
Grid space d1=  0.508720000000a0 (KE cutoff=  29.35259Eh = 798.72452eV)
Grid space d2=  0.506538461538a0 (KE cutoff=  29.60596Eh = 805.61916eV)
Grid space d3=  0.500357142857a0 (KE cutoff=  30.34197Eh = 825.64705eV)
================================================================================

********************* Fourier parallelisation information **********************
       Coarse grid (whole simulation cell) dimensions:    275   286   336
          Real-space ('12') slabs/node (min max mean):      5     6     5
         Recip-space ('23') slabs/node (min max mean):      2     3     2
********************************************************************************

********************* Fourier parallelisation information **********************
       Double grid (whole simulation cell) dimensions:    550   572   672
          Real-space ('12') slabs/node (min max mean):     11    12    11
         Recip-space ('23') slabs/node (min max mean):      4     5     4
********************************************************************************
ONETEP fine grid is 550 x 572 x 672 gridpoints, 139.8980 x 144.8700 x 168.1200 bohr.
FD multigrid is     545 x 569 x 665 gridpoints, 138.6262 x 144.1102 x 166.3688 bohr.


Calculating local pseudopotential in open BC on a radial grid ...
Discrepancy between calculated realspace psloc and -Z/x on [5a0,262.342a0]:
max |rel. diff| # avg |rel. diff| #  avg rel. diff #  f # pseudopotential file
 0.000258413739    0.000003708905   0.000000070960   56  'N_00.recpot'
 0.000398954828    0.000016185045  -0.000000074508   56  'H_04.recpot'
 0.000375346405    0.000017198923   0.000000144535   56  'C_01.recpot'
 0.000466850533    0.000020125278   0.000000461745   56  'S_00.recpot'
 0.000671508953    0.000026045986   0.000000155458   56  'O_02.recpot'
... done

Atom SCF Calculation for N  : Z (AE atom) =   7 : Z (PS atom) =   5
Config String:
Orbitals (num,occ):  2     2.00 3.00
Orbitals   (num,l):  2        0    1
Real-space Grid (nr,dr,rmax): 1203    0.0066555740    8.0000000000
Spherical Bessel Basis (nsws,lmax,cutoff):   47    1  176.3951722778
Confining potential (l,width,scale):  0    3.0000000000  100.0000000000
Confining potential (l,width,scale):  1    3.0000000000  100.0000000000
  1         -4.7312375307   -3.4155304497    7.0523828109   -1.9351020946
  2         -9.7309464766   -2.0532547791    8.2966052865   -2.2494486027
  3         -9.6627394379   -2.1124926340    8.2327997121   -2.2369778124
  4         -9.6814993499   -2.1215521045    8.2229805960   -2.2365178421
  5         -9.6843326483   -2.1250939529    8.2191374534   -2.2362718126
  6         -9.6859628709   -2.1267894855    8.2172963573   -2.2362066344
  7         -9.6867347035   -2.1276425665    8.2163697352   -2.2361903369
  8         -9.6870802100   -2.1280764625    8.2158983890   -2.2361891460
  9         -9.6872290423   -2.1282977424    8.2156580222   -2.2361920435
 10         -9.6872901988   -2.1284107021    8.2155353368   -2.2361953393
 11         -9.6873135296   -2.1284684031    8.2154726809   -2.2361979819
 12         -9.6873212476   -2.1284978948    8.2154406648   -2.2361998431
 13         -9.6873229586   -2.1285129774    8.2154242957   -2.2362010676
 14         -9.6873226456   -2.1285206957    8.2154159216   -2.2362018403
 15         -9.6873218534   -2.1285246479    8.2154116349   -2.2362023142
 16         -9.6873212599   -2.1285262679    8.2154098784   -2.2362025420
 17         -9.6873207834   -2.1285272564    8.2154088068   -2.2362026955
 18         -9.6873204210   -2.1285278596    8.2154081529   -2.2362027982
 19         -9.6873201550   -2.1285282280    8.2154077538   -2.2362028667
 20         -9.6873199645   -2.1285284529    8.2154075102   -2.2362029121
 21         -9.6873198305   -2.1285285903    8.2154073614   -2.2362029421
 22         -9.6873197377   -2.1285286742    8.2154072705   -2.2362029618
Atom SCF converged after  22 iterations to a total energy of     -9.68731974

Atom SCF Calculation for H  : Z (AE atom) =   1 : Z (PS atom) =   1
Config String:
Orbitals (num,occ):  1     1.00
Orbitals   (num,l):  1        0
Real-space Grid (nr,dr,rmax): 1203    0.0066555740    8.0000000000
Spherical Bessel Basis (nsws,lmax,cutoff):   47    0  176.3951722778
Confining potential (l,width,scale):  0    3.0000000000  100.0000000000
  1         -0.3194257691   -0.2393854593    0.2820953124   -0.2424203209
  2         -0.3951823392   -0.2377116493    0.2886404059   -0.2475147891
  3         -0.4317044583   -0.2352244387    0.2921333887   -0.2514046172
  4         -0.4470703708   -0.2341892222    0.2934391879   -0.2531009782
  5         -0.4532132900   -0.2338556667    0.2938388426   -0.2537313520
  6         -0.4556579251   -0.2337612552    0.2939448584   -0.2539550462
  7         -0.4566418315   -0.2337377355    0.2939680120   -0.2540342273
  8         -0.4570437922   -0.2337331116    0.2939708287   -0.2540627372
  9         -0.4572102946   -0.2337328328    0.2939698291   -0.2540732650
 10         -0.4572800424   -0.2337332404    0.2939687193   -0.2540772588
 11         -0.4573095100   -0.2337335791    0.2939680317   -0.2540788122
 12         -0.4573220379   -0.2337337762    0.2939676699   -0.2540794294
 13         -0.4573273880   -0.2337338775    0.2939674931   -0.2540796787
 14         -0.4573296803   -0.2337339266    0.2939674099   -0.2540797808
 15         -0.4573306647   -0.2337339495    0.2939673718   -0.2540798230
 16         -0.4573310882   -0.2337339601    0.2939673545   -0.2540798406
 17         -0.4573312706   -0.2337339649    0.2939673467   -0.2540798479
 18         -0.4573313493   -0.2337339670    0.2939673433   -0.2540798510
Atom SCF converged after  18 iterations to a total energy of     -0.45733135

Atom SCF Calculation for C  : Z (AE atom) =   6 : Z (PS atom) =   4
Config String:
Orbitals (num,occ):  2     2.00 2.00
Orbitals   (num,l):  2        0    1
Real-space Grid (nr,dr,rmax): 1203    0.0066555740    8.0000000000
Spherical Bessel Basis (nsws,lmax,cutoff):   47    1  176.3951722778
Confining potential (l,width,scale):  0    3.0000000000  100.0000000000
Confining potential (l,width,scale):  1    3.0000000000  100.0000000000
  1         -5.2976922011   -1.3069684169    4.5135249990   -1.4493313817
  2         -5.3721716256   -1.3429755895    4.4750154450   -1.4361613026
  3         -5.3809959565   -1.3617365618    4.4541655428   -1.4305930207
  4         -5.3918938866   -1.3667928461    4.4484735100   -1.4294652294
  5         -5.3956096428   -1.3688539142    4.4461376126   -1.4290734646
  6         -5.3968271862   -1.3696852393    4.4451910874   -1.4289366866
  7         -5.3972028401   -1.3700178062    4.4448112275   -1.4288900460
  8         -5.3973067903   -1.3701500158    4.4446598370   -1.4288749220
  9         -5.3973286940   -1.3702023868    4.4445997329   -1.4288704293
 10         -5.3973289850   -1.3702230869    4.4445759233   -1.4288693188
 11         -5.3973254264   -1.3702312560    4.4445665049   -1.4288691775
 12         -5.3973224003   -1.3702344755    4.4445627836   -1.4288692549
 13         -5.3973208708   -1.3702354890    4.4445616088   -1.4288693270
 14         -5.3973198783   -1.3702360102    4.4445610034   -1.4288693814
 15         -5.3973192535   -1.3702362780    4.4445606917   -1.4288694190
 16         -5.3973188684   -1.3702364155    4.4445605313   -1.4288694437
 17         -5.3973186349   -1.3702364860    4.4445604489   -1.4288694595
 18         -5.3973184951   -1.3702365221    4.4445604065   -1.4288694693
 19         -5.3973184122   -1.3702365405    4.4445603848   -1.4288694753
Atom SCF converged after  19 iterations to a total energy of     -5.39731841

Atom SCF Calculation for S  : Z (AE atom) =  16 : Z (PS atom) =   6
Config String:
Orbitals (num,occ):  3     2.00 4.00 0.00
Orbitals   (num,l):  3        0    1    2
Real-space Grid (nr,dr,rmax): 1203    0.0066555740    8.0000000000
Spherical Bessel Basis (nsws,lmax,cutoff):   47    2  176.3951722778
Confining potential (l,width,scale):  0    3.0000000000  100.0000000000
Confining potential (l,width,scale):  1    3.0000000000  100.0000000000
Confining potential (l,width,scale):  2    3.0000000000  100.0000000000
  1        -12.4735062396   -1.0328741412   10.1554312477   -2.4512393157
  2         -9.9458301913   -2.4607392455    8.3041325857   -2.0306994528
  3        -10.1450417646   -2.2931184565    8.4831893826   -2.0812538287
  4        -10.1528335592   -2.2733105793    8.5050388867   -2.0896035179
  5        -10.1571940363   -2.2633716629    8.5160794258   -2.0939370707
  6        -10.1594380571   -2.2584938667    8.5215163935   -2.0961289008
  7        -10.1605856507   -2.2561081821    8.5241804044   -2.0972291378
  8        -10.1611799191   -2.2549395235    8.5254868240   -2.0977806248
  9        -10.1614918752   -2.2543658586    8.5261285885   -2.0980571586
 10        -10.1616572884   -2.2540839121    8.5264441898   -2.0981959233
 11        -10.1617455602   -2.2539453058    8.5265994231   -2.0982656006
 12        -10.1617928447   -2.2538772062    8.5266757320   -2.0983006047
 13        -10.1618182292   -2.2538437891    8.5267131983   -2.0983181961
 14        -10.1618318741   -2.2538274201    8.5267315620   -2.0983270391
 15        -10.1618392144   -2.2538194197    8.5267405433   -2.0983314852
 16        -10.1618431651   -2.2538155200    8.5267449245   -2.0983337210
 17        -10.1618452923   -2.2538136252    8.5267470551   -2.0983348455
 18        -10.1618464380   -2.2538127080    8.5267480875   -2.0983354110
 19        -10.1618470552   -2.2538122659    8.5267485856   -2.0983356955
 20        -10.1618473878   -2.2538120540    8.5267488248   -2.0983358386
 21        -10.1618475670   -2.2538119530    8.5267489389   -2.0983359106
 22        -10.1618476637   -2.2538119053    8.5267489929   -2.0983359468
Atom SCF converged after  22 iterations to a total energy of    -10.16184766

Atom SCF Calculation for O  : Z (AE atom) =   8 : Z (PS atom) =   6
Config String:
Orbitals (num,occ):  2     2.00 4.00
Orbitals   (num,l):  2        0    1
Real-space Grid (nr,dr,rmax): 1203    0.0066555740    8.0000000000
Spherical Bessel Basis (nsws,lmax,cutoff):   47    1  176.3951722778
Confining potential (l,width,scale):  0    3.0000000000  100.0000000000
Confining potential (l,width,scale):  1    3.0000000000  100.0000000000
  1         -1.8735052164   -7.5539365035   10.1554312477   -2.4512393157
  2        -16.0318313751   -3.1285771268   13.6395848164   -3.2358799643
  3        -15.9524020423   -3.0762819706   13.6967272503   -3.2536856837
  4        -15.8521515939   -3.0781493909   13.6951909330   -3.2561700440
  5        -15.8357139793   -3.0748501933   13.6988803334   -3.2580493133
  6        -15.8246052853   -3.0740779781   13.6997881576   -3.2588327446
  7        -15.8189019501   -3.0737449687   13.7001869911   -3.2592378801
  8        -15.8159785510   -3.0736026016   13.7003615168   -3.2594475790
  9        -15.8144776168   -3.0735437994   13.7004360379   -3.2595560735
 10        -15.8137058024   -3.0735207882   13.7004667348   -3.2596122456
 11        -15.8133083127   -3.0735125946   13.7004786868   -3.2596413656
 12        -15.8131032938   -3.0735102195   13.7004828997   -3.2596564858
 13        -15.8129973902   -3.0735099286   13.7004840891   -3.2596643505
 14        -15.8129426040   -3.0735102506   13.7004842061   -3.2596684489
 15        -15.8129142203   -3.0735106556   13.7004840157   -3.2596705887
 16        -15.8128994940   -3.0735109855   13.7004837906   -3.2596717080
 17        -15.8128918425   -3.0735112169   13.7004836103   -3.2596722946
 18        -15.8128878614   -3.0735113674   13.7004834848   -3.2596726026
 19        -15.8128857871   -3.0735114608   13.7004834035   -3.2596727646
 20        -15.8128847048   -3.0735115170   13.7004833533   -3.2596728500
 21        -15.8128841394   -3.0735115501   13.7004833231   -3.2596728951
 22        -15.8128838436   -3.0735115693   13.7004833054   -3.2596729190
 23        -15.8128836887   -3.0735115802   13.7004832951   -3.2596729316
 24        -15.8128836074   -3.0735115864   13.7004832893   -3.2596729383
Atom SCF converged after  24 iterations to a total energy of    -15.81288361

========================== Calculation in vacuum ==============================
= Adjusting the following parameters: 
= is_implicit_solvent: F
= is_include_apolar: F
= write_denskern: T
= write_tightbox_ngwfs: T
= restart read filename prefix: ""
= restart write filename prefix: "vacuum_"
===============================================================================

Determining parallel strategy ...
... using space-filling curve
... NGWF load balancing: max    109;  min    108;  average    108
... Projector load balancing: max     25;  min     21;  average     22
... done
Calculating direct Ion-Ion energy ...
Ion-Ion Energy        :    829749.09978415980004
======================= Empirical dispersion information =======================
Model : Elstner
Dispersion Correction Energy: -0.32116670E+01 Hartree
================================================================================
Basis initialisation ...... NGWF spheres initialised
... Projector spheres initialised
... NGWF tight boxes initialised
... Tight-boxes gathered
... NGWF basis size (local,global):    1034172  62085147
... Nonlocal pseudopotential projector initialisation
... done

========================== Sparse matrix information ===========================
                        Overlap matrix filling:   6.69%
                        Density kernel filling: 100.00%
              NGWF-Proj overlap matrix filling:   1.75%
                    Hamiltonian matrix filling:   7.54%
                  NGWF diagonal matrix filling:   0.05%
                             KS matrix filling: 100.00% 
                           KSKS matrix filling: 100.00% 
================================================================================

Sparse matrix initialisation ... done

Generating smeared ion density ... done
Smeared ion self correction:     -14457.169564
Smeared ion non-self correction: -829701.290515
NGWF initialisation ...... done
============ Calculation of NGWF S^-1 using Hotelling algorithm ================ 
         Iteration  |  Frobenius norm and Maximum abs value    (of I-S*S_n^-1)   
               1       0.78579769E+02     0.98332352E+00
               2       0.76799482E+02     0.96704408E+00
               3       0.73890709E+02     0.93565638E+00
               4       0.69710714E+02     0.87746555E+00
               5       0.64457698E+02     0.77729717E+00
               6       0.58514038E+02     0.70817528E+00
               7       0.52486786E+02     0.67267676E+00
               8       0.46915133E+02     0.64792580E+00
               9       0.40943662E+02     0.60983475E+00
              10       0.32860308E+02     0.54334443E+00
              11       0.22406577E+02     0.44506550E+00
              12       0.11704839E+02     0.31090128E+00
              13       0.39953737E+01     0.15410026E+00
              14       0.67346412E+00     0.38523229E-01
              15       0.36627051E-01     0.31914002E-02
              16       0.25249396E-03     0.28154286E-04
              17       0.20606535E-07     0.31137892E-08
              18       0.99398358E-13     0.47045701E-14
================================================================================
Calculating local pseudopotential in open BC on the fine real space grid ...
... done

MG BCs: +ve charge blocks (gridpoints):     20202 (   15951849).
MG BCs: -ve charge blocks (gridpoints):      7995 (    1074049).
MG BCs:     Elided blocks (gridpoints):    189843 (  189193927).
MG BCs: Computational effort saved:  99.9863%.
MG BCs: Charge after coarse-graining:           -9.0002159.
MG DL_MG: Calling solver with defect correction order = 8
MG DL_MG: Solver finished
MG Hartree energy from (\int phi*rho dr):              1462.631130
MG Hartree energy from (\int eps (grad phi)^2 dr):     1462.023120
MG Discrepancy due to finite box and discretization:     -0.608011 (  -0.04157%)
MG Correction to account for finite box:                  0.454046
MG Remaining discrepancy, due to discretization:         -0.153965 (  -0.01053%)
Up spin density kernel initialisation ... 
======= Optimisation of K by Palser-Manolopoulos canonical purification ======== 
         Iteration  |  Band structure energy |    c_n   
               1       -2589.21268257665815    0.5262923
               2       -2764.88479906618295    0.5166197
               3       -2944.21536982358884    0.5154308
               4       -3092.99387087486502    0.5295546
               5       -3183.65049161204570    0.5659194
               6       -3221.27450718999171    0.6100586
               7       -3234.11138073346274    0.6203141
               8       -3239.73024109968264    0.6162095
               9       -3242.46597533253043    0.6241411
              10       -3243.60524664093646    0.6391892
              11       -3244.04631474997041    0.6513030
              12       -3244.22535074844018    0.6470630
              13       -3244.30661816705742    0.6001402
              14       -3244.35112680659722    0.5157934
              15       -3244.37358611416039    0.4192350
              16       -3244.37665351686792    0.3781269
              17       -3244.37741750394480    0.3856541
              18       -3244.37785166948561    0.4270488
              19       -3244.37823907900338    0.4694571
              20       -3244.37855817433137    0.4944120
              21       -3244.37874943809675    0.4998150
              22       -3244.37880559176028    0.4999998
              23       -3244.37880940531113    0.5000003
              24       -3244.37880942128595    0.5000003
Termination criterion satisfied: band energy change below threshold.
Final occupancy bounds: [    0.00000000000001:    1.00000000000000]
Closest occupancy to 0.5:     0.99999999999999
================================================================================
... done

Writing density kernel to file "host_36581.vacuum_dkn" ... done

>>> Optimising kernel for current NGWFs:
   Initial electron number for spin 1:    7192.00000000
     Final electron number for spin 1:    7192.00000000

=================== Penalty functional idempotency correction ==================
 RMS occupancy error at iteration   1:  0.000000 (step -0.5000 Ne1=   7192.0000)
            Final RMS occupancy error   :  0.000000 (Ne1=   7192.0000)
               Final occupancy bounds   : [  0.0000,  1.0000]
================================================================================

................................................................................
<<<<<<<<<<<<<< LNV (Original version) density kernel optimisation >>>>>>>>>>>>>>
~~~~~~~~~~~~~~~~~~~~~~~~~~~~~~~~~~~~~~~~~~~~~~~~~~~~~~~~~~~~~~~~~~~~~~~~~~~~~~~~
   iter  |      energy (Eh)       | rms gradient |  commutator  |   dE (Eh)
MG BCs: +ve charge blocks (gridpoints):     30578 (   17116659).
MG BCs: -ve charge blocks (gridpoints):      8362 (    1107551).
MG BCs:     Elided blocks (gridpoints):    179452 (  187995615).
MG BCs: Computational effort saved:  99.9811%.
MG BCs: Charge after coarse-graining:           -9.0009260.
MG DL_MG: Calling solver with defect correction order = 8
MG DL_MG: Solver finished
MG Hartree energy from (\int phi*rho dr):              1419.085360
MG Hartree energy from (\int eps (grad phi)^2 dr):     1418.422724
MG Discrepancy due to finite box and discretization:     -0.662636 (  -0.04669%)
MG Correction to account for finite box:                  0.465528
MG Remaining discrepancy, due to discretization:         -0.197109 (  -0.01389%)
      ideal mu1:      -0.711599274732
             Q0:  -11505.981004097732
             G0:    -145.296813901200
   RMS gradient:       0.001853022722
MG BCs: +ve charge blocks (gridpoints):     30564 (   17194111).
MG BCs: -ve charge blocks (gridpoints):      8280 (    1087815).
MG BCs:     Elided blocks (gridpoints):    179465 (  187937899).
MG BCs: Computational effort saved:  99.9812%.
MG BCs: Charge after coarse-graining:           -9.0009468.
MG DL_MG: Calling solver with defect correction order = 8
MG DL_MG: Solver finished
MG Hartree energy from (\int phi*rho dr):              1443.493246
MG Hartree energy from (\int eps (grad phi)^2 dr):     1442.846990
MG Discrepancy due to finite box and discretization:     -0.646256 (  -0.04477%)
MG Correction to account for finite box:                  0.465192
MG Remaining discrepancy, due to discretization:         -0.181064 (  -0.01254%)
     Trial step:       0.500000000000
             Q1:  -11517.672256768448
 Quadratic coef:      60.957154279884
 Linear coef   :     -72.648406950600
           Qmin:  -11527.626498768575
Quadratic minimum step length (  0.297948648558) accepted
    Initial Ne1:    7192.00000000
      Final Ne1:    7192.00000000

=================== Penalty functional idempotency correction ==================
 RMS occupancy error at iteration   1:  0.003442 (step -0.4884 Ne1=   7192.0000)
 RMS occupancy error at iteration   2:  0.000028 (step -0.5001 Ne1=   7192.0000)
            Final RMS occupancy error   :  0.000000 (Ne1=   7192.0000)
               Final occupancy bounds   : [  0.0000,  1.0000]
================================================================================

    1        -1.150598100410E+04     1.8530E-03     1.6760E-03
MG BCs: +ve charge blocks (gridpoints):     30572 (   17164399).
MG BCs: -ve charge blocks (gridpoints):      8307 (    1096116).
MG BCs:     Elided blocks (gridpoints):    179458 (  187959310).
MG BCs: Computational effort saved:  99.9811%.
MG BCs: Charge after coarse-graining:           -9.0009382.
MG DL_MG: Calling solver with defect correction order = 8
MG DL_MG: Solver finished
MG Hartree energy from (\int phi*rho dr):              1425.686886
MG Hartree energy from (\int eps (grad phi)^2 dr):     1425.034970
MG Discrepancy due to finite box and discretization:     -0.651916 (  -0.04573%)
MG Correction to account for finite box:                  0.465217
MG Remaining discrepancy, due to discretization:         -0.186699 (  -0.01310%)
      ideal mu1:      -0.753286712067
             Q0:  -11528.032201834139
             G0:     -12.221628172359
   RMS gradient:       0.000533797025
MG BCs: +ve charge blocks (gridpoints):     30569 (   17180026).
MG BCs: -ve charge blocks (gridpoints):      8284 (    1090938).
MG BCs:     Elided blocks (gridpoints):    179461 (  187948861).
MG BCs: Computational effort saved:  99.9812%.
MG BCs: Charge after coarse-graining:           -9.0009420.
MG DL_MG: Calling solver with defect correction order = 8
MG DL_MG: Solver finished
MG Hartree energy from (\int phi*rho dr):              1430.661023
MG Hartree energy from (\int eps (grad phi)^2 dr):     1430.013057
MG Discrepancy due to finite box and discretization:     -0.647966 (  -0.04529%)
MG Correction to account for finite box:                  0.464507
MG Remaining discrepancy, due to discretization:         -0.183459 (  -0.01282%)
     Trial step:       0.385971921620
             Q1:  -11530.907945060171
 Quadratic coef:       1.841462084980
 Linear coef   :      -4.717205311012
           Qmin:  -11531.053174425395
Quadratic minimum step length (  0.494364997634) accepted
    Initial Ne1:    7191.99987679
      Final Ne1:    7192.00000000

=================== Penalty functional idempotency correction ==================
 RMS occupancy error at iteration   1:  0.001847 (step -0.4927 Ne1=   7192.0000)
 RMS occupancy error at iteration   2:  0.000014 (step -0.5003 Ne1=   7192.0000)
            Final RMS occupancy error   :  0.000000 (Ne1=   7192.0000)
               Final occupancy bounds   : [  0.0000,  1.0000]
================================================================================

    2        -1.152803220183E+04     5.3380E-04     4.8281E-04    -2.2051E+01
MG BCs: +ve charge blocks (gridpoints):     30563 (   17184481).
MG BCs: -ve charge blocks (gridpoints):      8273 (    1089414).
MG BCs:     Elided blocks (gridpoints):    179467 (  187945930).
MG BCs: Computational effort saved:  99.9812%.
MG BCs: Charge after coarse-graining:           -9.0009431.
MG DL_MG: Calling solver with defect correction order = 8
MG DL_MG: Solver finished
MG Hartree energy from (\int phi*rho dr):              1432.109720
MG Hartree energy from (\int eps (grad phi)^2 dr):     1431.462784
MG Discrepancy due to finite box and discretization:     -0.646936 (  -0.04517%)
MG Correction to account for finite box:                  0.464321
MG Remaining discrepancy, due to discretization:         -0.182615 (  -0.01275%)
      ideal mu1:      -0.776061702927
             Q0:  -11531.090739347390
             G0:      -1.948300476652
   RMS gradient:       0.000213224286
MG BCs: +ve charge blocks (gridpoints):     30567 (   17183980).
MG BCs: -ve charge blocks (gridpoints):      8280 (    1090323).
MG BCs:     Elided blocks (gridpoints):    179463 (  187945522).
MG BCs: Computational effort saved:  99.9812%.
MG BCs: Charge after coarse-graining:           -9.0009427.
MG DL_MG: Calling solver with defect correction order = 8
MG DL_MG: Solver finished
MG Hartree energy from (\int phi*rho dr):              1429.980573
MG Hartree energy from (\int eps (grad phi)^2 dr):     1429.334190
MG Discrepancy due to finite box and discretization:     -0.646383 (  -0.04520%)
MG Correction to account for finite box:                  0.463938
MG Remaining discrepancy, due to discretization:         -0.182445 (  -0.01276%)
     Trial step:       0.436819193853
             Q1:  -11531.594996011932
 Quadratic coef:       0.346798379052
 Linear coef   :      -0.851055043595
           Qmin:  -11531.612868869166
Quadratic minimum step length (  0.535984595839) accepted
    Initial Ne1:    7191.99988505
      Final Ne1:    7192.00000000

=================== Penalty functional idempotency correction ==================
 RMS occupancy error at iteration   1:  0.000669 (step -0.4965 Ne1=   7192.0000)
 RMS occupancy error at iteration   2:  0.000004 (step -0.5000 Ne1=   7192.0000)
            Final RMS occupancy error   :  0.000000 (Ne1=   7192.0000)
               Final occupancy bounds   : [  0.0000,  1.0000]
================================================================================

    3        -1.153109073935E+04     2.1322E-04     1.9286E-04    -3.0585E+00
MG BCs: +ve charge blocks (gridpoints):     30570 (   17183818).
MG BCs: -ve charge blocks (gridpoints):      8281 (    1090560).
MG BCs:     Elided blocks (gridpoints):    179460 (  187945447).
MG BCs: Computational effort saved:  99.9812%.
MG BCs: Charge after coarse-graining:           -9.0009427.
MG DL_MG: Calling solver with defect correction order = 8
MG DL_MG: Solver finished
MG Hartree energy from (\int phi*rho dr):              1429.507298
MG Hartree energy from (\int eps (grad phi)^2 dr):     1428.861028
MG Discrepancy due to finite box and discretization:     -0.646270 (  -0.04521%)
MG Correction to account for finite box:                  0.463853
MG Remaining discrepancy, due to discretization:         -0.182417 (  -0.01276%)
      ideal mu1:      -0.776862457870
             Q0:  -11531.617835030658
             G0:      -0.522969363465
   RMS gradient:       0.000110585928
MG BCs: +ve charge blocks (gridpoints):     30570 (   17184729).
MG BCs: -ve charge blocks (gridpoints):      8276 (    1090350).
MG BCs:     Elided blocks (gridpoints):    179460 (  187944746).
MG BCs: Computational effort saved:  99.9812%.
MG BCs: Charge after coarse-graining:           -9.0009428.
MG DL_MG: Calling solver with defect correction order = 8
MG DL_MG: Solver finished
MG Hartree energy from (\int phi*rho dr):              1430.778929
MG Hartree energy from (\int eps (grad phi)^2 dr):     1430.132756
MG Discrepancy due to finite box and discretization:     -0.646173 (  -0.04516%)
MG Correction to account for finite box:                  0.463655
MG Remaining discrepancy, due to discretization:         -0.182519 (  -0.01276%)
     Trial step:       0.483868121570
             Q1:  -11531.753047726583
 Quadratic coef:       0.117835507614
 Linear coef   :      -0.253048203538
           Qmin:  -11531.753688379556
Quadratic minimum step length (  0.519546108777) accepted
    Initial Ne1:    7191.99997031
      Final Ne1:    7192.00000000

=================== Penalty functional idempotency correction ==================
 RMS occupancy error at iteration   1:  0.000339 (step -0.4933 Ne1=   7192.0000)
 RMS occupancy error at iteration   2:  0.000005 (step -0.5000 Ne1=   7192.0000)
            Final RMS occupancy error   :  0.000000 (Ne1=   7192.0000)
               Final occupancy bounds   : [  0.0000,  1.0000]
================================================================================

    4        -1.153161783503E+04     1.1059E-04     1.0002E-04    -5.2710E-01
MG BCs: +ve charge blocks (gridpoints):     30570 (   17184790).
MG BCs: -ve charge blocks (gridpoints):      8276 (    1090341).
MG BCs:     Elided blocks (gridpoints):    179460 (  187944694).
MG BCs: Computational effort saved:  99.9812%.
MG BCs: Charge after coarse-graining:           -9.0009429.
MG DL_MG: Calling solver with defect correction order = 8
MG DL_MG: Solver finished
MG Hartree energy from (\int phi*rho dr):              1430.873479
MG Hartree energy from (\int eps (grad phi)^2 dr):     1430.227312
MG Discrepancy due to finite box and discretization:     -0.646167 (  -0.04516%)
MG Correction to account for finite box:                  0.463640
MG Remaining discrepancy, due to discretization:         -0.182527 (  -0.01276%)
      ideal mu1:      -0.777067673575
             Q0:  -11531.754345862078
             G0:      -0.216394700281
   RMS gradient:       0.000071359532
MG BCs: +ve charge blocks (gridpoints):     30566 (   17184861).
MG BCs: -ve charge blocks (gridpoints):      8278 (    1090174).
MG BCs:     Elided blocks (gridpoints):    179464 (  187944790).
MG BCs: Computational effort saved:  99.9812%.
MG BCs: Charge after coarse-graining:           -9.0009428.
MG DL_MG: Calling solver with defect correction order = 8
MG DL_MG: Solver finished
MG Hartree energy from (\int phi*rho dr):              1431.295390
MG Hartree energy from (\int eps (grad phi)^2 dr):     1430.649125
MG Discrepancy due to finite box and discretization:     -0.646266 (  -0.04515%)
MG Correction to account for finite box:                  0.463552
MG Remaining discrepancy, due to discretization:         -0.182714 (  -0.01277%)
     Trial step:       0.501389867990
             Q1:  -11531.825813760282
 Quadratic coef:       0.037030212005
 Linear coef   :      -0.108498110208
           Qmin:  -11531.833820426775
Quadratic minimum step length (  0.734533374365) accepted
    Initial Ne1:    7191.99998197
      Final Ne1:    7192.00000000

=================== Penalty functional idempotency correction ==================
 RMS occupancy error at iteration   1:  0.000681 (step -0.4652 Ne1=   7192.0000)
 RMS occupancy error at iteration   2:  0.000017 (step -0.5001 Ne1=   7192.0000)
            Final RMS occupancy error   :  0.000000 (Ne1=   7192.0000)
               Final occupancy bounds   : [  0.0000,  1.0000]
================================================================================

    5        -1.153175434586E+04     7.1360E-05     6.4543E-05    -1.3651E-01
MG BCs: +ve charge blocks (gridpoints):     30565 (   17184953).
MG BCs: -ve charge blocks (gridpoints):      8278 (    1090042).
MG BCs:     Elided blocks (gridpoints):    179465 (  187944830).
MG BCs: Computational effort saved:  99.9812%.
MG BCs: Charge after coarse-graining:           -9.0009428.
MG DL_MG: Calling solver with defect correction order = 8
MG DL_MG: Solver finished
MG Hartree energy from (\int phi*rho dr):              1431.491380
MG Hartree energy from (\int eps (grad phi)^2 dr):     1430.845068
MG Discrepancy due to finite box and discretization:     -0.646312 (  -0.04515%)
MG Correction to account for finite box:                  0.463511
MG Remaining discrepancy, due to discretization:         -0.182801 (  -0.01277%)
      ideal mu1:      -0.777184353493
             Q0:  -11531.832640485256
             G0:      -0.210920981018
   RMS gradient:       0.000071294140
MG BCs: +ve charge blocks (gridpoints):     30564 (   17184120).
MG BCs: -ve charge blocks (gridpoints):      8279 (    1090578).
MG BCs:     Elided blocks (gridpoints):    179466 (  187945127).
MG BCs: Computational effort saved:  99.9812%.
MG BCs: Charge after coarse-graining:           -9.0009425.
MG DL_MG: Calling solver with defect correction order = 8
MG DL_MG: Solver finished
MG Hartree energy from (\int phi*rho dr):              1429.959025
MG Hartree energy from (\int eps (grad phi)^2 dr):     1429.312795
MG Discrepancy due to finite box and discretization:     -0.646229 (  -0.04519%)
MG Correction to account for finite box:                  0.463455
MG Remaining discrepancy, due to discretization:         -0.182774 (  -0.01278%)
     Trial step:       0.606867029593
             Q1:  -11531.920923255384
 Quadratic coef:       0.039718219101
 Linear coef   :      -0.128000989229
           Qmin:  -11531.935768556043
Quadratic minimum step length (  0.977883473593) accepted
    Initial Ne1:    7191.99985123
      Final Ne1:    7192.00000000

=================== Penalty functional idempotency correction ==================
 RMS occupancy error at iteration   1:  0.003579 (step -0.3490 Ne1=   7192.0000)
 RMS occupancy error at iteration   2:  0.000207 (step -0.4966 Ne1=   7192.0000)
 RMS occupancy error at iteration   3:  0.000003 (step -0.5000 Ne1=   7192.0000)
            Final RMS occupancy error   :  0.000000 (Ne1=   7192.0000)
               Final occupancy bounds   : [  0.0000,  1.0000]
================================================================================

    6        -1.153183264049E+04     7.1294E-05     6.4484E-05    -7.8295E-02
MG BCs: +ve charge blocks (gridpoints):     30566 (   17183609).
MG BCs: -ve charge blocks (gridpoints):      8279 (    1090860).
MG BCs:     Elided blocks (gridpoints):    179464 (  187945356).
MG BCs: Computational effort saved:  99.9812%.
MG BCs: Charge after coarse-graining:           -9.0009425.
MG DL_MG: Calling solver with defect correction order = 8
MG DL_MG: Solver finished
MG Hartree energy from (\int phi*rho dr):              1429.041892
MG Hartree energy from (\int eps (grad phi)^2 dr):     1428.395694
MG Discrepancy due to finite box and discretization:     -0.646198 (  -0.04522%)
MG Correction to account for finite box:                  0.463439
MG Remaining discrepancy, due to discretization:         -0.182759 (  -0.01279%)
      ideal mu1:      -0.776416433299
             Q0:  -11531.928095667507
             G0:      -0.269815670111
   RMS gradient:       0.000079852089
MG BCs: +ve charge blocks (gridpoints):     30568 (   17185563).
MG BCs: -ve charge blocks (gridpoints):      8272 (    1089839).
MG BCs:     Elided blocks (gridpoints):    179462 (  187944423).
MG BCs: Computational effort saved:  99.9812%.
MG BCs: Charge after coarse-graining:           -9.0009431.
MG DL_MG: Calling solver with defect correction order = 8
MG DL_MG: Solver finished
MG Hartree energy from (\int phi*rho dr):              1431.518858
MG Hartree energy from (\int eps (grad phi)^2 dr):     1430.872851
MG Discrepancy due to finite box and discretization:     -0.646007 (  -0.04513%)
MG Correction to account for finite box:                  0.463442
MG Remaining discrepancy, due to discretization:         -0.182565 (  -0.01275%)
     Trial step:       0.770353969879
             Q1:  -11532.017285004375
 Quadratic coef:       0.118664235737
 Linear coef   :      -0.207853572606
           Qmin:  -11532.019115315037
Quadratic minimum step length (  0.674680217741) accepted
    Initial Ne1:    7191.99999916
      Final Ne1:    7192.00000000

=================== Penalty functional idempotency correction ==================
 RMS occupancy error at iteration   1:  0.000181 (step -0.4889 Ne1=   7192.0000)
 RMS occupancy error at iteration   2:  0.000001 (step -0.5000 Ne1=   7192.0000)
            Final RMS occupancy error   :  0.000000 (Ne1=   7192.0000)
               Final occupancy bounds   : [  0.0000,  1.0000]
================================================================================

    7        -1.153192809567E+04     7.9852E-05     7.2224E-05    -9.5455E-02
MG BCs: +ve charge blocks (gridpoints):     30566 (   17185303).
MG BCs: -ve charge blocks (gridpoints):      8273 (    1089995).
MG BCs:     Elided blocks (gridpoints):    179464 (  187944527).
MG BCs: Computational effort saved:  99.9812%.
MG BCs: Charge after coarse-graining:           -9.0009430.
MG DL_MG: Calling solver with defect correction order = 8
MG DL_MG: Solver finished
MG Hartree energy from (\int phi*rho dr):              1431.210421
MG Hartree energy from (\int eps (grad phi)^2 dr):     1430.564391
MG Discrepancy due to finite box and discretization:     -0.646029 (  -0.04514%)
MG Correction to account for finite box:                  0.463441
MG Remaining discrepancy, due to discretization:         -0.182588 (  -0.01276%)
      ideal mu1:      -0.777621454793
             Q0:  -11532.019194746856
             G0:      -0.211663080445
   RMS gradient:       0.000070739036
MG BCs: +ve charge blocks (gridpoints):     30567 (   17185176).
MG BCs: -ve charge blocks (gridpoints):      8273 (    1090003).
MG BCs:     Elided blocks (gridpoints):    179463 (  187944646).
MG BCs: Computational effort saved:  99.9812%.
MG BCs: Charge after coarse-graining:           -9.0009430.
MG DL_MG: Calling solver with defect correction order = 8
MG DL_MG: Solver finished
MG Hartree energy from (\int phi*rho dr):              1431.026789
MG Hartree energy from (\int eps (grad phi)^2 dr):     1430.380743
MG Discrepancy due to finite box and discretization:     -0.646047 (  -0.04515%)
MG Correction to account for finite box:                  0.463620
MG Remaining discrepancy, due to discretization:         -0.182427 (  -0.01275%)
     Trial step:       0.720931747210
             Q1:  -11532.109238121193
 Quadratic coef:       0.062551260067
 Linear coef   :      -0.152594634405
           Qmin:  -11532.112258909050
Quadratic minimum step length (  0.879361313252) accepted
    Initial Ne1:    7191.99999896
      Final Ne1:    7192.00000000

=================== Penalty functional idempotency correction ==================
 RMS occupancy error at iteration   1:  0.001405 (step -0.4244 Ne1=   7192.0000)
 RMS occupancy error at iteration   2:  0.000042 (step -0.4988 Ne1=   7192.0000)
 RMS occupancy error at iteration   3:  0.000000 (step -0.5000 Ne1=   7192.0000)
            Final RMS occupancy error   :  0.000000 (Ne1=   7192.0000)
               Final occupancy bounds   : [  0.0000,  1.0000]
================================================================================

    8        -1.153201919475E+04     7.0739E-05     6.3982E-05    -9.1099E-02
MG BCs: +ve charge blocks (gridpoints):     30566 (   17185151).
MG BCs: -ve charge blocks (gridpoints):      8275 (    1090034).
MG BCs:     Elided blocks (gridpoints):    179464 (  187944640).
MG BCs: Computational effort saved:  99.9812%.
MG BCs: Charge after coarse-graining:           -9.0009430.
MG DL_MG: Calling solver with defect correction order = 8
MG DL_MG: Solver finished
MG Hartree energy from (\int phi*rho dr):              1430.990770
MG Hartree energy from (\int eps (grad phi)^2 dr):     1430.344720
MG Discrepancy due to finite box and discretization:     -0.646050 (  -0.04515%)
MG Correction to account for finite box:                  0.463658
MG Remaining discrepancy, due to discretization:         -0.182392 (  -0.01275%)
      ideal mu1:      -0.777416529144
             Q0:  -11532.110212230706
             G0:      -0.224911267270
   RMS gradient:       0.000073687137
MG BCs: +ve charge blocks (gridpoints):     30567 (   17184393).
MG BCs: -ve charge blocks (gridpoints):      8280 (    1090535).
MG BCs:     Elided blocks (gridpoints):    179463 (  187944897).
MG BCs: Computational effort saved:  99.9812%.
MG BCs: Charge after coarse-graining:           -9.0009428.
MG DL_MG: Calling solver with defect correction order = 8
MG DL_MG: Solver finished
MG Hartree energy from (\int phi*rho dr):              1429.693678
MG Hartree energy from (\int eps (grad phi)^2 dr):     1429.047407
MG Discrepancy due to finite box and discretization:     -0.646271 (  -0.04520%)
MG Correction to account for finite box:                  0.463954
MG Remaining discrepancy, due to discretization:         -0.182317 (  -0.01275%)
     Trial step:       0.796215729556
             Q1:  -11532.179617146612
 Quadratic coef:       0.109672972849
 Linear coef   :      -0.179077888754
           Qmin:  -11532.183313400044
Quadratic minimum step length (  0.650044528466) accepted
    Initial Ne1:    7191.99999916
      Final Ne1:    7192.00000000

=================== Penalty functional idempotency correction ==================
 RMS occupancy error at iteration   1:  0.003114 (step -0.3613 Ne1=   7192.0000)
 RMS occupancy error at iteration   2:  0.000146 (step -0.4954 Ne1=   7192.0000)
 RMS occupancy error at iteration   3:  0.000002 (step -0.5000 Ne1=   7192.0000)
            Final RMS occupancy error   :  0.000000 (Ne1=   7192.0000)
               Final occupancy bounds   : [  0.0000,  1.0000]
================================================================================

    9        -1.153211021223E+04     7.3687E-05     6.6648E-05    -9.1017E-02
MG BCs: +ve charge blocks (gridpoints):     30567 (   17184522).
MG BCs: -ve charge blocks (gridpoints):      8278 (    1090433).
MG BCs:     Elided blocks (gridpoints):    179463 (  187944870).
MG BCs: Computational effort saved:  99.9812%.
MG BCs: Charge after coarse-graining:           -9.0009428.
MG DL_MG: Calling solver with defect correction order = 8
MG DL_MG: Solver finished
MG Hartree energy from (\int phi*rho dr):              1429.933236
MG Hartree energy from (\int eps (grad phi)^2 dr):     1429.286999
MG Discrepancy due to finite box and discretization:     -0.646237 (  -0.04519%)
MG Correction to account for finite box:                  0.463909
MG Remaining discrepancy, due to discretization:         -0.182327 (  -0.01275%)
      ideal mu1:      -0.776608775620
   10        -1.153218785292E+04     5.9717E-05     5.4012E-05    -7.7641E-02
Finished density kernel iterations (  10)

Writing density kernel to file "host_36581.vacuum_dkn" ... done


>>> Density kernel optimised for the current NGWF basis:
     ~~~~~~~~~~~~~~~~~~~~~~~~~~~~~~~~~~~~~~~~~~~~~~~~~~~~~~~~~~~
     Total energy                =  -1.15321878529168E+04  Eh
     Estimated bandgap           =  -4.6345E-01  Eh
     RMS occupancy error         =   5.1361E-10
     [H,K] commutator            =   5.4012E-05
     Occupancy bounds            = [  0.000:  1.000]
     ~~~~~~~~~~~~~~~~~~~~~~~~~~~~~~~~~~~~~~~~~~~~~~~~~~~~~~~~~~~




################################################################################
########################### NGWF CG iteration  001 #############################
################################################################################
****** Reciprocal space K.E. preconditioning with k_zero =  3.5000 a0^-1 *******

>>> Checking for convergence of NGWFs:   NOT CONVERGED
  ========================================================================
         NGWF RMS gradient =  1.5999E-03 >  2.0000E-06  | above tolerance
  ========================================================================

>>> Improving NGWFs using line search:
============ Calculation of NGWF S^-1 using Hotelling algorithm ================ 
         Iteration  |  Frobenius norm and Maximum abs value    (of I-S*S_n^-1)   
               1       0.19756442E+00     0.51530937E-02
               2       0.91297287E-03     0.40715495E-04
               3       0.33959940E-07     0.28439433E-08
               4       0.12395942E-12     0.51070259E-14
================================================================================
MG BCs: +ve charge blocks (gridpoints):     30158 (   17129191).
MG BCs: -ve charge blocks (gridpoints):      8287 (    1090192).
MG BCs:     Elided blocks (gridpoints):    179873 (  188000442).
MG BCs: Computational effort saved:  99.9814%.
MG BCs: Charge after coarse-graining:           -9.0009436.
MG DL_MG: Calling solver with defect correction order = 8
MG DL_MG: Solver finished
MG Hartree energy from (\int phi*rho dr):              1398.173262
MG Hartree energy from (\int eps (grad phi)^2 dr):     1397.527874
MG Discrepancy due to finite box and discretization:     -0.645388 (  -0.04616%)
MG Correction to account for finite box:                  0.463823
MG Remaining discrepancy, due to discretization:         -0.181565 (  -0.01299%)
============ Calculation of NGWF S^-1 using Hotelling algorithm ================ 
         Iteration  |  Frobenius norm and Maximum abs value    (of I-S*S_n^-1)   
               1       0.18385671E+01     0.40479857E-01
               2       0.70406221E-01     0.24378267E-02
               3       0.14113985E-03     0.10379709E-04
               4       0.10998719E-08     0.19821100E-09
               5       0.10848743E-12     0.44408921E-14
================================================================================
------------------------------- NGWF line search -------------------------------
RMS gradient                =       0.00159987123613
Trial step length           =               0.122474
Gradient along search dir.  =       -276.95205400647
Functional at step 0        =  -11532.18785291677341
Functional at step 1        =  -11563.50208324426785
Functional predicted        =  -11642.59002893252000
Selected quadratic step     =               0.797266
--------------------------- NGWF line search finished --------------------------
                                               
Writing NGWFs to file "host_36581.vacuum_tightbox_ngwfs"....  done

>>> Optimising kernel for current NGWFs:
   Initial electron number for spin 1:    7226.47672912
     Final electron number for spin 1:    7192.00000000

=================== Penalty functional idempotency correction ==================
 RMS occupancy error at iteration   1:  0.004295 (step -0.4857 Ne1=   7192.0000)
 RMS occupancy error at iteration   2:  0.000073 (step -0.5003 Ne1=   7192.0000)
            Final RMS occupancy error   :  0.000000 (Ne1=   7192.0000)
               Final occupancy bounds   : [  0.0000,  1.0000]
================================================================================

................................................................................
<<<<<<<<<<<<<< LNV (Original version) density kernel optimisation >>>>>>>>>>>>>>
~~~~~~~~~~~~~~~~~~~~~~~~~~~~~~~~~~~~~~~~~~~~~~~~~~~~~~~~~~~~~~~~~~~~~~~~~~~~~~~~
   iter  |      energy (Eh)       | rms gradient |  commutator  |   dE (Eh)
MG BCs: +ve charge blocks (gridpoints):     24455 (   16815604).
MG BCs: -ve charge blocks (gridpoints):      8407 (    1073806).
MG BCs:     Elided blocks (gridpoints):    185590 (  188330415).
MG BCs: Computational effort saved:  99.9841%.
MG BCs: Charge after coarse-graining:           -9.0006511.
MG DL_MG: Calling solver with defect correction order = 8
MG DL_MG: Solver finished
MG Hartree energy from (\int phi*rho dr):              1245.132186
MG Hartree energy from (\int eps (grad phi)^2 dr):     1244.486732
MG Discrepancy due to finite box and discretization:     -0.645454 (  -0.05184%)
MG Correction to account for finite box:                  0.463425
MG Remaining discrepancy, due to discretization:         -0.182029 (  -0.01462%)
      ideal mu1:      -0.716674462204
             Q0:  -11641.802154827863
             G0:      -9.901598869021
   RMS gradient:       0.000483732607
MG BCs: +ve charge blocks (gridpoints):     24525 (   16830300).
MG BCs: -ve charge blocks (gridpoints):      8401 (    1070435).
MG BCs:     Elided blocks (gridpoints):    185520 (  188319090).
MG BCs: Computational effort saved:  99.9840%.
MG BCs: Charge after coarse-graining:           -9.0006467.
MG DL_MG: Calling solver with defect correction order = 8
MG DL_MG: Solver finished
MG Hartree energy from (\int phi*rho dr):              1260.669385
MG Hartree energy from (\int eps (grad phi)^2 dr):     1260.018822
MG Discrepancy due to finite box and discretization:     -0.650563 (  -0.05160%)
MG Correction to account for finite box:                  0.462528
MG Remaining discrepancy, due to discretization:         -0.188035 (  -0.01492%)
     Trial step:       0.719427326751
             Q1:  -11641.195078377146
 Quadratic coef:       7.730557255616
 Linear coef   :      -7.123480804900
           Qmin:  -11643.443174262164
Quadratic minimum step length (  0.331465545314) accepted
    Initial Ne1:    7191.99955031
      Final Ne1:    7192.00000000

=================== Penalty functional idempotency correction ==================
 RMS occupancy error at iteration   1:  0.000360 (step -0.4986 Ne1=   7192.0000)
 RMS occupancy error at iteration   2:  0.000000 (step -0.5000 Ne1=   7192.0000)
            Final RMS occupancy error   :  0.000000 (Ne1=   7192.0000)
               Final occupancy bounds   : [  0.0000,  1.0000]
================================================================================

    1        -1.164180215483E+04     4.8373E-04     4.3753E-04
MG BCs: +ve charge blocks (gridpoints):     24490 (   16822612).
MG BCs: -ve charge blocks (gridpoints):      8398 (    1072136).
MG BCs:     Elided blocks (gridpoints):    185555 (  188325077).
MG BCs: Computational effort saved:  99.9841%.
MG BCs: Charge after coarse-graining:           -9.0006490.
MG DL_MG: Calling solver with defect correction order = 8
MG DL_MG: Solver finished
MG Hartree energy from (\int phi*rho dr):              1251.350119
MG Hartree energy from (\int eps (grad phi)^2 dr):     1250.702414
MG Discrepancy due to finite box and discretization:     -0.647705 (  -0.05176%)
MG Correction to account for finite box:                  0.462985
MG Remaining discrepancy, due to discretization:         -0.184720 (  -0.01476%)
      ideal mu1:      -0.723920520246
             Q0:  -11643.417418802157
             G0:      -1.010346777238
   RMS gradient:       0.000155181493
MG BCs: +ve charge blocks (gridpoints):     24495 (   16821972).
MG BCs: -ve charge blocks (gridpoints):      8400 (    1073138).
MG BCs:     Elided blocks (gridpoints):    185550 (  188324715).
MG BCs: Computational effort saved:  99.9840%.
MG BCs: Charge after coarse-graining:           -9.0006489.
MG DL_MG: Calling solver with defect correction order = 8
MG DL_MG: Solver finished
MG Hartree energy from (\int phi*rho dr):              1252.300498
MG Hartree energy from (\int eps (grad phi)^2 dr):     1251.652466
MG Discrepancy due to finite box and discretization:     -0.648032 (  -0.05175%)
MG Correction to account for finite box:                  0.462900
MG Remaining discrepancy, due to discretization:         -0.185132 (  -0.01478%)
     Trial step:       0.488329162733
             Q1:  -11643.628913260181
 Quadratic coef:       0.281887337775
 Linear coef   :      -0.493381795798
           Qmin:  -11643.633307886026
Quadratic minimum step length (  0.427356406201) accepted
    Initial Ne1:    7191.99994032
      Final Ne1:    7192.00000000

=================== Penalty functional idempotency correction ==================
 RMS occupancy error at iteration   1:  0.000150 (step -0.4993 Ne1=   7192.0000)
            Final RMS occupancy error   :  0.000000 (Ne1=   7192.0000)
               Final occupancy bounds   : [ -0.0000,  1.0000]
================================================================================

    2        -1.164341741880E+04     1.5518E-04     1.4036E-04    -1.6153E+00
MG BCs: +ve charge blocks (gridpoints):     24496 (   16822077).
MG BCs: -ve charge blocks (gridpoints):      8401 (    1073002).
MG BCs:     Elided blocks (gridpoints):    185549 (  188324746).
MG BCs: Computational effort saved:  99.9840%.
MG BCs: Charge after coarse-graining:           -9.0006489.
MG DL_MG: Calling solver with defect correction order = 8
MG DL_MG: Solver finished
MG Hartree energy from (\int phi*rho dr):              1252.181688
MG Hartree energy from (\int eps (grad phi)^2 dr):     1251.533698
MG Discrepancy due to finite box and discretization:     -0.647990 (  -0.05175%)
MG Correction to account for finite box:                  0.462911
MG Remaining discrepancy, due to discretization:         -0.185079 (  -0.01478%)
      ideal mu1:      -0.724810420730
             Q0:  -11643.633771816269
             G0:      -0.161022826736
   RMS gradient:       0.000061621087
MG BCs: +ve charge blocks (gridpoints):     24494 (   16821355).
MG BCs: -ve charge blocks (gridpoints):      8402 (    1073420).
MG BCs:     Elided blocks (gridpoints):    185551 (  188325050).
MG BCs: Computational effort saved:  99.9840%.
MG BCs: Charge after coarse-graining:           -9.0006490.
MG DL_MG: Calling solver with defect correction order = 8
MG DL_MG: Solver finished
MG Hartree energy from (\int phi*rho dr):              1251.663781
MG Hartree energy from (\int eps (grad phi)^2 dr):     1251.015894
MG Discrepancy due to finite box and discretization:     -0.647888 (  -0.05176%)
MG Correction to account for finite box:                  0.462824
MG Remaining discrepancy, due to discretization:         -0.185063 (  -0.01479%)
     Trial step:       0.456826658623
             Q1:  -11643.684481563163
 Quadratic coef:       0.022849773006
 Linear coef   :      -0.073559519900
           Qmin:  -11643.692973749768
Quadratic minimum step length (  0.735323490462) accepted
    Initial Ne1:    7192.00136134
      Final Ne1:    7192.00000000

=================== Penalty functional idempotency correction ==================
 RMS occupancy error at iteration   1:  0.000136 (step -0.4950 Ne1=   7192.0000)
 RMS occupancy error at iteration   2:  0.000001 (step -0.5000 Ne1=   7192.0000)
            Final RMS occupancy error   :  0.000000 (Ne1=   7192.0000)
               Final occupancy bounds   : [  0.0000,  1.0000]
================================================================================

    3        -1.164363377182E+04     6.1621E-05     5.5735E-05    -2.1635E-01
MG BCs: +ve charge blocks (gridpoints):     24490 (   16820879).
MG BCs: -ve charge blocks (gridpoints):      8400 (    1073678).
MG BCs:     Elided blocks (gridpoints):    185555 (  188325268).
MG BCs: Computational effort saved:  99.9841%.
MG BCs: Charge after coarse-graining:           -9.0006491.
MG DL_MG: Calling solver with defect correction order = 8
MG DL_MG: Solver finished
MG Hartree energy from (\int phi*rho dr):              1251.348093
MG Hartree energy from (\int eps (grad phi)^2 dr):     1250.700269
MG Discrepancy due to finite box and discretization:     -0.647824 (  -0.05177%)
MG Correction to account for finite box:                  0.462769
MG Remaining discrepancy, due to discretization:         -0.185055 (  -0.01479%)
      ideal mu1:      -0.723930277745
             Q0:  -11643.693049180787
             G0:      -0.062474633474
   RMS gradient:       0.000038379619
MG BCs: +ve charge blocks (gridpoints):     24487 (   16820962).
MG BCs: -ve charge blocks (gridpoints):      8400 (    1073598).
MG BCs:     Elided blocks (gridpoints):    185558 (  188325265).
MG BCs: Computational effort saved:  99.9841%.
MG BCs: Charge after coarse-graining:           -9.0006490.
MG DL_MG: Calling solver with defect correction order = 8
MG DL_MG: Solver finished
MG Hartree energy from (\int phi*rho dr):              1251.402509
MG Hartree energy from (\int eps (grad phi)^2 dr):     1250.754886
MG Discrepancy due to finite box and discretization:     -0.647623 (  -0.05175%)
MG Correction to account for finite box:                  0.462699
MG Remaining discrepancy, due to discretization:         -0.184924 (  -0.01478%)
     Trial step:       0.579582067661
             Q1:  -11643.715592572000
 Quadratic coef:       0.013665786033
 Linear coef   :      -0.036209177245
           Qmin:  -11643.717034345520
Quadratic minimum step length (  0.767836909106) accepted
    Initial Ne1:    7192.00055136
      Final Ne1:    7192.00000000

=================== Penalty functional idempotency correction ==================
 RMS occupancy error at iteration   1:  0.000229 (step -0.4872 Ne1=   7192.0000)
 RMS occupancy error at iteration   2:  0.000001 (step -0.5000 Ne1=   7192.0000)
            Final RMS occupancy error   :  0.000000 (Ne1=   7192.0000)
               Final occupancy bounds   : [  0.0000,  1.0000]
================================================================================

    4        -1.164369304918E+04     3.8380E-05     3.4713E-05    -5.9277E-02
MG BCs: +ve charge blocks (gridpoints):     24488 (   16820927).
MG BCs: -ve charge blocks (gridpoints):      8401 (    1073610).
MG BCs:     Elided blocks (gridpoints):    185557 (  188325288).
MG BCs: Computational effort saved:  99.9841%.
MG BCs: Charge after coarse-graining:           -9.0006491.
MG DL_MG: Calling solver with defect correction order = 8
MG DL_MG: Solver finished
MG Hartree energy from (\int phi*rho dr):              1251.421284
MG Hartree energy from (\int eps (grad phi)^2 dr):     1250.773728
MG Discrepancy due to finite box and discretization:     -0.647556 (  -0.05175%)
MG Correction to account for finite box:                  0.462674
MG Remaining discrepancy, due to discretization:         -0.184882 (  -0.01477%)
      ideal mu1:      -0.724378261907
             Q0:  -11643.717009371379
             G0:      -0.058622646634
   RMS gradient:       0.000037204881
MG BCs: +ve charge blocks (gridpoints):     24491 (   16822311).
MG BCs: -ve charge blocks (gridpoints):      8398 (    1073121).
MG BCs:     Elided blocks (gridpoints):    185554 (  188324393).
MG BCs: Computational effort saved:  99.9841%.
MG BCs: Charge after coarse-graining:           -9.0006488.
MG DL_MG: Calling solver with defect correction order = 8
MG DL_MG: Solver finished
MG Hartree energy from (\int phi*rho dr):              1252.274424
MG Hartree energy from (\int eps (grad phi)^2 dr):     1251.627164
MG Discrepancy due to finite box and discretization:     -0.647260 (  -0.05169%)
MG Correction to account for finite box:                  0.462459
MG Remaining discrepancy, due to discretization:         -0.184801 (  -0.01476%)
     Trial step:       0.667101569033
             Q1:  -11643.741269759601
 Quadratic coef:       0.014846871329
 Linear coef   :      -0.039107259550
           Qmin:  -11643.742761897209
Quadratic minimum step length (  0.878586256624) accepted
    Initial Ne1:    7192.00059261
      Final Ne1:    7192.00000000

=================== Penalty functional idempotency correction ==================
 RMS occupancy error at iteration   1:  0.000823 (step -0.4553 Ne1=   7192.0000)
 RMS occupancy error at iteration   2:  0.000008 (step -0.5000 Ne1=   7192.0000)
            Final RMS occupancy error   :  0.000000 (Ne1=   7192.0000)
               Final occupancy bounds   : [  0.0000,  1.0000]
================================================================================

    5        -1.164371700937E+04     3.7205E-05     3.3651E-05    -2.3960E-02
MG BCs: +ve charge blocks (gridpoints):     24492 (   16822767).
MG BCs: -ve charge blocks (gridpoints):      8398 (    1072939).
MG BCs:     Elided blocks (gridpoints):    185553 (  188324119).
MG BCs: Computational effort saved:  99.9841%.
MG BCs: Charge after coarse-graining:           -9.0006487.
MG DL_MG: Calling solver with defect correction order = 8
MG DL_MG: Solver finished
MG Hartree energy from (\int phi*rho dr):              1252.546720
MG Hartree energy from (\int eps (grad phi)^2 dr):     1251.899554
MG Discrepancy due to finite box and discretization:     -0.647166 (  -0.05167%)
MG Correction to account for finite box:                  0.462391
MG Remaining discrepancy, due to discretization:         -0.184775 (  -0.01475%)
      ideal mu1:      -0.725786608856
             Q0:  -11643.742666090373
             G0:      -0.060383671767
   RMS gradient:       0.000037536641
MG BCs: +ve charge blocks (gridpoints):     24493 (   16822763).
MG BCs: -ve charge blocks (gridpoints):      8398 (    1073086).
MG BCs:     Elided blocks (gridpoints):    185552 (  188323976).
MG BCs: Computational effort saved:  99.9841%.
MG BCs: Charge after coarse-graining:           -9.0006487.
MG DL_MG: Calling solver with defect correction order = 8
MG DL_MG: Solver finished
MG Hartree energy from (\int phi*rho dr):              1252.282247
MG Hartree energy from (\int eps (grad phi)^2 dr):     1251.635449
MG Discrepancy due to finite box and discretization:     -0.646797 (  -0.05165%)
MG Correction to account for finite box:                  0.462019
MG Remaining discrepancy, due to discretization:         -0.184778 (  -0.01476%)
     Trial step:       0.765575776997
             Q1:  -11643.772201731917
 Quadratic coef:       0.016692634887
 Linear coef   :      -0.046228276431
           Qmin:  -11643.774672025271
Quadratic minimum step length (  1.060085747055) accepted
    Initial Ne1:    7192.00072293
      Final Ne1:    7192.00000000

=================== Penalty functional idempotency correction ==================
 RMS occupancy error at iteration   1:  0.002594 (step -0.3834 Ne1=   7192.0000)
 RMS occupancy error at iteration   2:  0.000038 (step -0.4997 Ne1=   7192.0000)
            Final RMS occupancy error   :  0.000000 (Ne1=   7192.0000)
               Final occupancy bounds   : [ -0.0000,  1.0000]
================================================================================

    6        -1.164374266609E+04     3.7537E-05     3.3951E-05    -2.5657E-02
MG BCs: +ve charge blocks (gridpoints):     24493 (   16822837).
MG BCs: -ve charge blocks (gridpoints):      8398 (    1073104).
MG BCs:     Elided blocks (gridpoints):    185552 (  188323884).
MG BCs: Computational effort saved:  99.9841%.
MG BCs: Charge after coarse-graining:           -9.0006486.
MG DL_MG: Calling solver with defect correction order = 8
MG DL_MG: Solver finished
MG Hartree energy from (\int phi*rho dr):              1252.184008
MG Hartree energy from (\int eps (grad phi)^2 dr):     1251.537317
MG Discrepancy due to finite box and discretization:     -0.646691 (  -0.05165%)
MG Correction to account for finite box:                  0.461912
MG Remaining discrepancy, due to discretization:         -0.184779 (  -0.01476%)
      ideal mu1:      -0.725980646600
             Q0:  -11643.775262056268
             G0:      -0.065372163102
   RMS gradient:       0.000039305120
MG BCs: +ve charge blocks (gridpoints):     24493 (   16820945).
MG BCs: -ve charge blocks (gridpoints):      8402 (    1073634).
MG BCs:     Elided blocks (gridpoints):    185552 (  188325246).
MG BCs: Computational effort saved:  99.9840%.
MG BCs: Charge after coarse-graining:           -9.0006490.
MG DL_MG: Calling solver with defect correction order = 8
MG DL_MG: Solver finished
MG Hartree energy from (\int phi*rho dr):              1251.380894
MG Hartree energy from (\int eps (grad phi)^2 dr):     1250.734139
MG Discrepancy due to finite box and discretization:     -0.646755 (  -0.05168%)
MG Correction to account for finite box:                  0.461906
MG Remaining discrepancy, due to discretization:         -0.184849 (  -0.01477%)
     Trial step:       0.900875113146
             Q1:  -11643.790691007744
 Quadratic coef:       0.043463203356
 Linear coef   :      -0.058892154831
           Qmin:  -11643.795211609182
Quadratic minimum step length (  0.610337855367) accepted
    Initial Ne1:    7192.00018882
      Final Ne1:    7192.00000000

=================== Penalty functional idempotency correction ==================
 RMS occupancy error at iteration   1:  0.000034 (step -0.4980 Ne1=   7192.0000)
            Final RMS occupancy error   :  0.000000 (Ne1=   7192.0000)
               Final occupancy bounds   : [ -0.0000,  1.0000]
================================================================================

    7        -1.164377526206E+04     3.9305E-05     3.5551E-05    -3.2596E-02
MG BCs: +ve charge blocks (gridpoints):     24493 (   16821490).
MG BCs: -ve charge blocks (gridpoints):      8400 (    1073490).
MG BCs:     Elided blocks (gridpoints):    185552 (  188324845).
MG BCs: Computational effort saved:  99.9840%.
MG BCs: Charge after coarse-graining:           -9.0006489.
MG DL_MG: Calling solver with defect correction order = 8
MG DL_MG: Solver finished
MG Hartree energy from (\int phi*rho dr):              1251.637488
MG Hartree energy from (\int eps (grad phi)^2 dr):     1250.990751
MG Discrepancy due to finite box and discretization:     -0.646737 (  -0.05167%)
MG Correction to account for finite box:                  0.461910
MG Remaining discrepancy, due to discretization:         -0.184827 (  -0.01477%)
      ideal mu1:      -0.725296905961
             Q0:  -11643.795219869935
             G0:      -0.052045290745
   RMS gradient:       0.000035061390
MG BCs: +ve charge blocks (gridpoints):     24492 (   16821307).
MG BCs: -ve charge blocks (gridpoints):      8402 (    1073541).
MG BCs:     Elided blocks (gridpoints):    185553 (  188324977).
MG BCs: Computational effort saved:  99.9840%.
MG BCs: Charge after coarse-graining:           -9.0006490.
MG DL_MG: Calling solver with defect correction order = 8
MG DL_MG: Solver finished
MG Hartree energy from (\int phi*rho dr):              1251.392218
MG Hartree energy from (\int eps (grad phi)^2 dr):     1250.745588
MG Discrepancy due to finite box and discretization:     -0.646630 (  -0.05167%)
MG Correction to account for finite box:                  0.461722
MG Remaining discrepancy, due to discretization:         -0.184907 (  -0.01478%)
     Trial step:       0.741510744704
             Q1:  -11643.820407665684
 Quadratic coef:       0.013404346550
 Linear coef   :      -0.038592142299
           Qmin:  -11643.822997304696
[...]
MG Hartree energy from (\int phi*rho dr):              1209.374709
MG Hartree energy from (\int eps (grad phi)^2 dr):     1209.184310
MG Discrepancy due to finite box and discretization:     -0.190399 (  -0.01574%)
MG Correction to account for finite box:                  0.006209
MG Remaining discrepancy, due to discretization:         -0.184190 (  -0.01523%)
             Q2:  -11678.549335049349
  Cubic LS coeff:       0.965369518618
Predicted energy:  -11678.549335050266
Cubic minimum step length accepted
    Initial Ne1:    7192.00000000
      Final Ne1:    7192.00000000

=================== Penalty functional idempotency correction ==================
 RMS occupancy error at iteration   1:  0.000000 (step -0.5000 Ne1=   7192.0000)
            Final RMS occupancy error   :  0.000000 (Ne1=   7192.0000)
               Final occupancy bounds   : [ -0.0000,  1.0000]
================================================================================

    7        -1.167854933504E+04     1.2709E-08     1.1495E-08    -4.5402E-09

Reusing previously generated solute cavity.
MG BCs: +ve charge blocks (gridpoints):     28846 (   18953467).
MG BCs: -ve charge blocks (gridpoints):      8397 (    1042253).
MG BCs:     Elided blocks (gridpoints):    181199 (  186224105).
MG BCs: Computational effort saved:  99.9819%.
MG BCs: Charge after coarse-graining:           -9.0009247.
MG DL_MG: Calling solver with defect correction order = 8
MG DL_MG: Solver finished
MG Hartree energy from (\int phi*rho dr):              1209.374678
MG Hartree energy from (\int eps (grad phi)^2 dr):     1209.184279
MG Discrepancy due to finite box and discretization:     -0.190399 (  -0.01574%)
MG Correction to account for finite box:                  0.006209
MG Remaining discrepancy, due to discretization:         -0.184190 (  -0.01523%)
      ideal mu1:      -0.482332693720
             Q0:  -11678.549335049698
             G0:      -0.000000005515
   RMS gradient:       0.000000017777

Reusing previously generated solute cavity.
MG BCs: +ve charge blocks (gridpoints):     28846 (   18953467).
MG BCs: -ve charge blocks (gridpoints):      8397 (    1042253).
MG BCs:     Elided blocks (gridpoints):    181199 (  186224105).
MG BCs: Computational effort saved:  99.9819%.
MG BCs: Charge after coarse-graining:           -9.0009247.
MG DL_MG: Calling solver with defect correction order = 8
MG DL_MG: Solver finished
MG Hartree energy from (\int phi*rho dr):              1209.374705
MG Hartree energy from (\int eps (grad phi)^2 dr):     1209.184305
MG Discrepancy due to finite box and discretization:     -0.190399 (  -0.01574%)
MG Correction to account for finite box:                  0.006209
MG Remaining discrepancy, due to discretization:         -0.184190 (  -0.01523%)
     Trial step:       0.775511332056
             Q1:  -11678.549335051328
 Quadratic coef:       0.000000002647
 Linear coef   :      -0.000000004277
           Qmin:  -11678.549335051426
Quadratic minimum step length (  0.626591624860) accepted
    Initial Ne1:    7192.00000000
      Final Ne1:    7192.00000000

=================== Penalty functional idempotency correction ==================
 RMS occupancy error at iteration   1:  0.000000 (step -0.5000 Ne1=   7192.0000)
            Final RMS occupancy error   :  0.000000 (Ne1=   7192.0000)
               Final occupancy bounds   : [  0.0000,  1.0000]
================================================================================

    8        -1.167854933505E+04     1.7777E-08     1.6079E-08    -4.8894E-09

Reusing previously generated solute cavity.
MG BCs: +ve charge blocks (gridpoints):     28846 (   18953467).
MG BCs: -ve charge blocks (gridpoints):      8397 (    1042253).
MG BCs:     Elided blocks (gridpoints):    181199 (  186224105).
MG BCs: Computational effort saved:  99.9819%.
MG BCs: Charge after coarse-graining:           -9.0009247.
MG DL_MG: Calling solver with defect correction order = 8
MG DL_MG: Solver finished
MG Hartree energy from (\int phi*rho dr):              1209.374700
MG Hartree energy from (\int eps (grad phi)^2 dr):     1209.184300
MG Discrepancy due to finite box and discretization:     -0.190399 (  -0.01574%)
MG Correction to account for finite box:                  0.006209
MG Remaining discrepancy, due to discretization:         -0.184190 (  -0.01523%)
      ideal mu1:      -0.482332687826
             Q0:  -11678.549335051444
             G0:      -0.000000015137
   RMS gradient:       0.000000019066

Reusing previously generated solute cavity.
MG BCs: +ve charge blocks (gridpoints):     28846 (   18953469).
MG BCs: -ve charge blocks (gridpoints):      8397 (    1042253).
MG BCs:     Elided blocks (gridpoints):    181199 (  186224103).
MG BCs: Computational effort saved:  99.9819%.
MG BCs: Charge after coarse-graining:           -9.0009247.
MG DL_MG: Calling solver with defect correction order = 8
MG DL_MG: Solver finished
MG Hartree energy from (\int phi*rho dr):              1209.374566
MG Hartree energy from (\int eps (grad phi)^2 dr):     1209.184166
MG Discrepancy due to finite box and discretization:     -0.190399 (  -0.01574%)
MG Correction to account for finite box:                  0.006209
MG Remaining discrepancy, due to discretization:         -0.184190 (  -0.01523%)
     Trial step:       0.697086010224
             Q1:  -11678.549335048883
 Quadratic coef:       0.000000013113
 Linear coef   :      -0.000000010552
           Qmin:  -11678.549335053567
Quadratic minimum step length (  0.280470562818) accepted
    Initial Ne1:    7192.00000000
      Final Ne1:    7192.00000000

=================== Penalty functional idempotency correction ==================
 RMS occupancy error at iteration   1:  0.000000 (step -0.5000 Ne1=   7192.0000)
            Final RMS occupancy error   :  0.000000 (Ne1=   7192.0000)
               Final occupancy bounds   : [ -0.0000,  1.0000]
================================================================================

    9        -1.167854933505E+04     1.9066E-08     1.7245E-08    -1.7462E-09

Reusing previously generated solute cavity.
MG BCs: +ve charge blocks (gridpoints):     28846 (   18953468).
MG BCs: -ve charge blocks (gridpoints):      8397 (    1042253).
MG BCs:     Elided blocks (gridpoints):    181199 (  186224104).
MG BCs: Computational effort saved:  99.9819%.
MG BCs: Charge after coarse-graining:           -9.0009247.
MG DL_MG: Calling solver with defect correction order = 8
MG DL_MG: Solver finished
MG Hartree energy from (\int phi*rho dr):              1209.374646
MG Hartree energy from (\int eps (grad phi)^2 dr):     1209.184246
MG Discrepancy due to finite box and discretization:     -0.190399 (  -0.01574%)
MG Correction to account for finite box:                  0.006209
MG Remaining discrepancy, due to discretization:         -0.184190 (  -0.01523%)
      ideal mu1:      -0.482332621891
   10        -1.167854933505E+04     1.0913E-08     9.8703E-09    -1.3970E-09
Finished density kernel iterations (  10)

Writing density kernel to file "host_36581.dkn" ... done


>>> Density kernel optimised for the current NGWF basis:
     ~~~~~~~~~~~~~~~~~~~~~~~~~~~~~~~~~~~~~~~~~~~~~~~~~~~~~~~~~~~
     Total energy                =  -1.16785493350528E+04  Eh
     Estimated bandgap           =   8.5086E-02  Eh
     RMS occupancy error         =   3.4065E-16
     [H,K] commutator            =   9.8703E-09
     Occupancy bounds            = [  0.000:  1.000]
     ~~~~~~~~~~~~~~~~~~~~~~~~~~~~~~~~~~~~~~~~~~~~~~~~~~~~~~~~~~~




################################################################################
########################### NGWF CG iteration  004 #############################
################################################################################
****** Reciprocal space K.E. preconditioning with k_zero =  3.5000 a0^-1 *******

>>> Checking for convergence of NGWFs: 
           ........................................................
           |         *** NGWF optimisation converged ***          |
           | RMS NGWF gradient =    0.00000198516646              |
           | Criteria satisfied:                                  |
           | -> RMS NGWF gradient lower than set threshold.       |
           ========================================================

Reusing previously generated solute cavity.
MG BCs: +ve charge blocks (gridpoints):     28846 (   18953468).
MG BCs: -ve charge blocks (gridpoints):      8397 (    1042253).
MG BCs:     Elided blocks (gridpoints):    181199 (  186224104).
MG BCs: Computational effort saved:  99.9819%.
MG BCs: Charge after coarse-graining:           -9.0009247.
MG DL_MG: Calling solver with defect correction order = 8
MG DL_MG: Solver finished
MG Hartree energy from (\int phi*rho dr):              1209.374646
MG Hartree energy from (\int eps (grad phi)^2 dr):     1209.184246
MG Discrepancy due to finite box and discretization:     -0.190399 (  -0.01574%)
MG Correction to account for finite box:                  0.006209
MG Remaining discrepancy, due to discretization:         -0.184190 (  -0.01523%)

================================================================================
           ---------------- ENERGY COMPONENTS (Eh) ----------------
           | Kinetic                    :     8526.01549614140458 |
           | Pseudo. (local,OBC,corr'd) :    -5048.62138113134279 |
           | Pseudopotential (non-local):     1403.53069311583295 |
           | Hartree (molecular)        :     1209.37464584402028 |
           | Exchange-correlation       :    -3356.94740058092975 |
           | Ion-ion (open BC)          :   829749.09978415980004 |
           | Dispersion Correction      :       -3.21166698945763 |
           | Smeared ion non-self corr. :  -829701.29051517858170 |
           | Smeared ion self corr.     :   -14457.16956389741972 |
           | Solvent cavitation energy  :        2.38574566905916 |
           | Solute-solvent dis-rep en. :       -1.71517220512836 |
           | Total                      :   -11678.54933505277586 |
           --------------------------------------------------------
           ------ LOCAL ENERGY COMPONENTS FROM MATRIX TRACES ------
           | Pseudopotential (local)    :    -5048.62138113133278 |
           | Hartree                    :    -1994.72221748857896 |
           --------------------------------------------------------
           Integrated density           :     7191.99999999894862
           Integrated density tr(KS)    :     7191.99999999999818
================================================================================


                        <<<<< CALCULATION SUMMARY >>>>>                         
|ITER|    RMS GRADIENT   |     TOTAL ENERGY    |   step   |     Epredicted              
   0     0.00004086180171 -11678.48383263929281   0.626317 -11678.54040887303199        
   1     0.00000979508958 -11678.54880993242841   0.083833 -11678.54924507807482        
   2     0.00000438518516 -11678.54931624128949   0.015797 -11678.54933267562410        
   3     0.00000198516646 -11678.54933505284134  <-- CG                                 

=================== Finished the calculation in solvent ========================
= Adjusting the following parameters: 
= read_denskern: F
= read_tightbox_ngwfs: F
= maxit_pen: 0 (restored to user-specified value)
= restart read filename prefix: ""
= restart write filename prefix: ""
================================================================================

================================================================================
IS: Calculation in solvent completed (NGWFs converged).      

Individual components of total energy in solvent:     hartree           kcal/mol
- Usual non-electrostatic DFT terms:    -12888.59455436079224    -8087715.014756
- Electrostatic fixed charge energy:      1209.37464584402028      758894.031495
- Apolar cavitation energy:                  2.38574566905916        1497.077978
- Apolar dispersion-repulsion energy:       -1.71517220512836       -1076.286785
 -------------------------------------------------------------------------------
- Total energy in solvent:              -11678.54933505284134    -7328400.192069

Components of total energy in solvent:                hartree           kcal/mol
- Usual non-electrostatic DFT terms:    -12888.59455436079224    -8087715.014756
- Electrostatic energy:                   1209.37464584402028      758894.031495
- Apolar energy terms:                       0.67057346393080         420.791193
 -------------------------------------------------------------------------------
- Total energy in solvent:              -11678.54933505284134    -7328400.192069

Calculation of free energy of solvation:              hartree           kcal/mol
- Total energy in solvent:         (+)  -11678.54933505284134    -7328400.192069
- Total energy in vacuum:          (-)  -11674.70580857980531    -7325988.342845
 -------------------------------------------------------------------------------
- Total free energy of solvation:           -3.84352647303604       -2411.849223

Components of polar term in f.e. of solvation:        hartree           kcal/mol
- Electrostatic:                            -4.73970772352141       -2974.211436
- Change in nonelectrostatic DFT terms:      0.22560778655497         141.571020
 -------------------------------------------------------------------------------
- Polar term in f.e. of solvation:          -4.51409993696643       -2832.640416

Components of free energy of solvation:               hartree           kcal/mol
- Polar term in f.e. of solvation: (+)      -4.51409993696643       -2832.640416
- Apolar (cavitation, dis., rep.): (+)       0.67057346393080         420.791193
 -------------------------------------------------------------------------------
- Total free energy of solvation:           -3.84352647303563       -2411.849223
================================================================================


------------------------------ TIMING INFORMATION ------------------------------
AVERAGE TIME:   32861.512s on     60 node(s)                                    
TOTAL TIME:     32861.512s on     60 node(s)                                    
================= AVERAGE TIMINGS FROM ALL NODES (CUMULATIVE) ==================
|| TAG                                    #calls    cpu time   %total  Gflops ||
|| work_imbalance                       :     1        0.00s   0.000%  ------ ||
|| sparse_set_to_garbage                :   176        0.03s   0.000%  ------ ||
|| parallel_prepare_fd_halos_request    :  1947        0.03s   0.000%  ------ ||
|| ngwfs_initialise_from_radial         :     1        0.11s   0.000%  ------ ||
|| basis_extract_function_from_box      :  3577        0.16s   0.000%  ------ ||
|| parallel_prepare_fd_halos_satisfy    :  1947        0.69s   0.002%  ------ ||
|| parallel_prepare_fd_halos_alloc      :  1947        1.63s   0.005%  ------ ||
|| pseudopotentials_nonlocal_mat        :    30        2.25s   0.007%  ------ ||
|| openbc_locps_radial                  :     1        3.15s   0.010%  ------ ||
|| density_init_guess_real              :     1        7.90s   0.024%  ------ ||
|| restart_kernel_read                  :     1        8.68s   0.026%  ------ ||
|| parallel_prepare_fd_halos_comms_imbal:  1947        9.05s   0.028%  ------ ||
|| restart_ngwfs_tightbox_input         :     1       10.61s   0.032%  ------ ||
|| parallel_prepare_fd_halos_clear      :  1947       20.05s   0.061%  ------ ||
|| sparse_init                          :     2       22.35s   0.068%  ------ ||
|| projectors_func_ovlp_box             :    30       25.90s   0.079%  ------ ||
|| parallel_prepare_fd_halos_comms_wait :  1947       28.39s   0.086%  ------ ||
|| function_ops_brappd_ketppd           :    30       29.69s   0.090%  ------ ||
|| palser_mano_kernel_optimise          :     1       32.07s   0.098%  ------ ||
|| projectors_init_fftbox_recip         :   142       32.58s   0.099%  ------ ||
|| basis_copy_function_to_box           : 58111       42.91s   0.131%  ------ ||
|| ngwf_gradient_coeffs                 :    16       48.17s   0.147%  ------ ||
|| fourier_apply_box_pair               :  5101       53.39s   0.162% 553.243 ||
|| pseudo_make_structure_factor         :     2       54.91s   0.167%  ------ ||
|| parallel_prepare_fd_halos            :  1947       59.86s   0.182%  ------ ||
|| sparse_embed_hotelling_invert_embed  :    30       76.93s   0.234%  ------ ||
|| finite_difference_derivative         :  1947      129.22s   0.393%  ------ ||
|| integrals_kinetic                    :    30      147.46s   0.449%  ------ ||
|| projectors_gradient_batch            :   112      169.47s   0.516%  ------ ||
|| basis_dot_function_with_box          : 8.760M     176.89s   0.538%  ------ ||
|| restart_kernel_write                 :    17      180.42s   0.549%  ------ ||
|| sparse_trace                         :  5532      196.91s   0.599%  ------ ||
|| fourier_apply_cell_backward          :  1299      208.72s   0.635%  91.191 ||
|| fourier_apply_cell_forward           :  1297      269.08s   0.819%  70.627 ||
|| openbc_locps_on_grid                 :     2      288.17s   0.877%  ------ ||
|| kernel_purify                        :   495      292.83s   0.891%  ------ ||
|| basis_add_function_to_box            : 18.26M     418.90s   1.275%  ------ ||
|| lnv_gradient_norm                    :   160      425.14s   1.294%  ------ ||
|| hamiltonian_energy_components        :     4      493.36s   1.501%  ------ ||
|| xc_energy_potential                  :   324      550.09s   1.674%  ------ ||
|| kernel_fix                           :   160      554.86s   1.688%  ------ ||
|| ngwf_gradient_build_batch            :   112      755.13s   2.298%  ------ ||
|| integrals_locpot_mat_els_batch       :  1183      764.46s   2.326%  ------ ||
|| ngwf_gradient_batch                  :   112     1038.52s   3.160%  ------ ||
|| density_batch_row_sums               :  2261     1107.27s   3.370%  ------ ||
|| ngwf_gradient_lnv                    :    16     1173.07s   3.570%  ------ ||
|| cell_grid_deposit_box_real           : 37197     1339.07s   4.075%  ------ ||
|| cell_grid_extract_box_real           : 42042     1670.58s   5.084%  ------ ||
|| restart_ngwfs_tightbox_output        :    14     1738.19s   5.289%  ------ ||
|| sparse_product                       :  6787     1845.62s   5.616%  ------ ||
|| density_fftbox_deposit_to_cell       : 35207     1986.24s   6.044%  ------ ||
|| potential_apply_to_ngwf_batch        :  1183     3627.57s  11.039%  ------ ||
|| density_fftbox_interpolate_multiply  : 35207     3741.42s  11.385%  ------ ||
|| integrals_locpot_dbl_grid            :   169     4410.60s  13.422%  ------ ||
|| fourier_apply_box                    : 121.3k    4600.83s  14.001% 739.968 ||
|| multigrid_prepare_bound_cond         :   324     4808.95s  14.634%  ------ ||
|| density_batch_interp_deposit         :  2261     6584.92s  20.038%  ------ ||
|| density_on_dbl_grid                  :   323     8012.25s  24.382%  ------ ||
|| dl_mg_solver_calls                   :   324     8188.97s  24.920%  ------ ||
|| multigrid_calculate_hartree          :   324    13185.27s  40.124%  ------ ||
|| hamiltonian_lhxc_calculate           :   319    21733.65s  66.137%  ------ ||
|| lnv_denskernel_optimise_cg           :    16    27110.86s  82.500%  ------ ||
|| ngwf_cg_optimise                     :     2    31865.05s  96.968%  ------ ||
|| total_time                           :     1    32861.51s 100.000%  ------ ||
================================================================================
Overhead of generating timer report: 
- 0 ms averaging over threads,
- 15 ms ensuring consistency across MPI ranks,
- 1 ms printing in order.

Job completed: 03-05-2020 23:59 (+0100)

Application 40463339 resources: utime ~6728672s, stime ~228955s, Rss ~3744876, inblocks ~324723217, outblocks ~65841197
