 +---------------------------------------------------------------+
 |                                                               |
 |        ####### #     # ####### ####### ####### ######         |
 |        #     # ##    # #          #    #       #     #        |
 |        #     # # #   # #          #    #       #     #        |
 |        #     # #  #  # #####      #    #####   ######         |
 |        #     # #   # # #          #    #       #              |
 |        #     # #    ## #          #    #       #              |
 |        ####### #     # #######    #    ####### #              |
 |                                                               |
 |        Linear-Scaling Ab Initio Total Energy Program          |
 |                                                               |
 |          Release for academic collaborators of ODG            |
 |                                             Version 5.3.2.6.  |
 |                                                               |
 +---------------------------------------------------------------+
 |                                                               |
 |  Authors:                                                     |
 |  Jacek Dziedzic, Peter D. Haynes, Nicholas D. M. Hine,        |
 |  Arash. A. Mostofi, Mike C. Payne and Chris-Kriton Skylaris   |
 |                                                               |
 |  Contributors:                                                |
 |  J. Aarons, L. Andrinopoulos, P. W. Avraam, R. A. Bell,       |
 |  A. Bhandari, G. A. Bramley, R. J. Charlton, S. J. Clark,     |
 |  R. J. Clements, G. C. Constantinescu, F. Corsetti,           |
 |  N. Corsini, O. Dieguez, S. M. M. Dubois, K. K. B. Duff,      |
 |  J. M. Escartin, A. Greco, H. Helal, Q. O. Hill, L. P. Lee,   |
 |  J.-H. Li, E. B. Linscott, G. Moynihan, D. D. O`Regan,        |
 |  O. K. Okan, M. J. S. Phipps, C. J. Pickard,                  |
 |  J. C. A. Prentice, M. I. J. Probert, L. E. Ratcliff,         |
 |  M. Robinson, A. Ruiz Serrano, J. S. Spencer, E. W. Tait,     |
 |  G. Teobaldi, D. Turban, V. Vitale, K. A. Wilkinson,          |
 |  C. Weber, J. C. Womack, N. Yeung and T. J. Zuehlsdorff       |
 |                                                               |
 |                                   Copyright (c) 2004-2019     |
 |                                                               |
 |  Please cite:                                                 |
 |  "Introducing ONETEP: Linear-scaling density functional       |
 |   simulations on parallel computers".                         |
 |   C.-K. Skylaris, P. D. Haynes, A. A. Mostofi, M. C. Payne.   |
 |   J. Chem. Phys. 122 084119 (2005).                           |
 |                                                               |
 |          in all publications arising from your use of ONETEP. |
 |                                                               |
 +---------------------------------------------------------------+
 |                                                               |
 |   ONETEP is based on developments described in the following  |
 |   publications:                                               |
 |                                                               |
 |  "Nonorthogonal generalized Wannier function pseudopotential  |
 |   plane-wave method".                                         |
 |   C.-K. Skylaris, A. A. Mostofi, P. D. Haynes, O. Dieguez,    |
 |   M. C. Payne.                                                |
 |   Phys. Rev. B 66 035119 (2002).                              |
 |                                                               |
 |  "Preconditioned iterative minimization for linear-scaling    |
 |   electronic structure calculations".                         |
 |   A. A. Mostofi, P. D. Haynes, C.-K. Skylaris, M. C. Payne.   |
 |   J. Chem. Phys. 119(17), pp.8842-8848 (2003).                |
 |                                                               |
 |  "Total-energy calculations on a real space grid with         |
 |   localized functions and a plane-wave basis".                |
 |   A. A. Mostofi, C.-K. Skylaris, P. D. Haynes, M. C. Payne.   |
 |   Comput. Phys. Commun. 147, pp.788-802 (2002).               |
 |                                                               |
 |  "Accurate kinetic energy evaluation in electronic structure  |
 |   calculations with localized functions on real space grids"  |
 |   C.-K. Skylaris, A. A. Mostofi, P. D. Haynes, C. J. Pickard, |
 |   M. C. Payne.                                                |
 |   Comput. Phys. Commun. 140, pp.315-322 (2001).               |
 |                                                               |
 |  "Accurate ionic forces and geometry optimization in linear-  |
 |   scaling density-functional theory with local orbitals"      |
 |   N. D. M. Hine, M. Robinson, P. D. Haynes, C.-K. Skylaris,   |
 |   M. C. Payne, and A. A. Mostofi.                             |
 |   Phys. Rev. B 83 195102 (2011).                              |
 |                                                               |
 +---------------------------------------------------------------+

Job started: 25-03-2020 12:42 (-0000)
 
Reading parameters from file "host_24041.dat" ...... done

If your calculation crashes here, before "Checking processes and threads..."
is displayed, then your stack size is insufficient.
If so, use "ulimit -s unlimited" at runtime.
You can disable this check with "check_stack_size F".

Checking processes and threads...
   Determining the default number of threads...
      No default threads set at compilation time: defaulting to 1.
      OpenMP library call suggests 4 threads.
      Hybrid MPI-OpenMP compilation detected.
      Number of MPI processes > 1.
      OMP_NUM_THREADS environment variable present and
      its value matches the one obtained from the OpenMP library call.
      Using this value as default.
      Default threads: 4
      Default applies to threads_max and threads_num_fftboxes.
      Settings in the input file override this default.
   ... done

   Running with 60 MPI processes.
   There are 6 MPI processes running on the same node as the root process.
   Each MPI process is using: 
               1 threads for simulation cell FFTs.
               1 threads for parallel FFT box operations.
               4 threads for loops over batched FFT box operations.
               4 threads in other parallel regions.
... done

Basic input checks...... done

Reading geometry and species blocks from file "host_24041.dat" ...
  <species_atomic_set> block not found: NGWF initialisation set to SOLVE
IS: Dielectric excluded regions:
    - NONE.
    
  Number of PPD points along a3 set to 1.  This is 
  the default value, it may have been provided also in the input file.
... done
 Writing xyz coordinates to file "host_24041.xyz" ... done


--------------------------------------------------------------------------------
---------------------------------- INPUT FILE ----------------------------------
--------------------------------------------------------------------------------

cutoff_energy       : 800 eV                                                    
xc_functional PBE                                                               
task SINGLEPOINT                                                                
write_xyz true                                                                  
output_detail VERBOSE                                                           
ngwf_threshold_orig : 0.000002                                                  
kernel_cutoff       : 1000                                                      
k_zero              : 3.5                                                       
elec_cg_max 0                                                                   
occ_mix 1.0                                                                     
dispersion 1                                                                    
maxit_ngwf_cg 40                                                                
minit_lnv 10                                                                    
maxit_lnv 10                                                                    
write_denskern T                                                                
write_tightbox_ngwfs T                                                          
charge 9                                                                        
is_implicit_solvent T                                                           
is_auto_solvation T                                                             
is_include_apolar T                                                             
is_smeared_ion_rep T                                                            
is_solvent_surf_tension 4.7624E-5 Ha/bohr**2                                    
is_apolar_scaling_factor 0.281075                                               
is_solvation_beta 1.3                                                           
is_density_threshold 0.00035                                                    
is_bulk_permittivity 78.54                                                      
is_dielectric_model fix_initial                                                 
is_smeared_ion_width 0.8                                                        
mg_defco_fd_order 8                                                             
is_bc_coarseness 10                                                             
is_bc_surface_coarseness 1                                                      
fine_grid_scale 2.0                                                             
%block species                                                                  
N   N   7 4 8.0                                                                 
H   H   1 1 8.0                                                                 
C   C   6 4 8.0                                                                 
S   S  16 9 8.0                                                                 
O   O   8 4 8.0                                                                 
%endblock species                                                               
%block species_pot                                                              
N   N_00.recpot                                                                 
H   H_04.recpot                                                                 
C   C_01.recpot                                                                 
S   S_00.recpot                                                                 
O   O_02.recpot                                                                 
%endblock species_pot                                                           
%block lattice_cart                                                             
139.898   0.000   0.000                                                         
0.000 144.87   0.000                                                            
0.000   0.000   168.12                                                          
%endblock lattice_cart                                                          
%block positions_abs                                                            
     Hash =  -000000334340829403473021
%endblock positions_abs                                                         

--------------------------------------------------------------------------------
-------------------------------- END INPUT FILE --------------------------------
--------------------------------------------------------------------------------


 
 ESDF WARNING(1): "kernelcutoff" (esdf_physical) has no units. Assume "bohr".
 ESDF WARNING(2): "kzero" (esdf_physical) has no units. Assume "1/bohr".
 ESDF WARNING(3
 ): "issmearedionwidth" (esdf_physical) has no units. Assume "bohr".
<<<<<<<<<<<<<<<<<<<<<<<<<<<<<<<<< Full system >>>>>>>>>>>>>>>>>>>>>>>>>>>>>>>>>>
<<<<<<<<<<<<<<<<<<<<<<<<< Pseudopotential information >>>>>>>>>>>>>>>>>>>>>>>>>>
File: N_00.recpot [ 2001 points up to Gmax=  52.9 (1/bohr)]
  Atomic number:  7;  ionic charge:  5.000000
    Shell 1: l = 0; rc = 1.48 bohr
File: H_04.recpot [ 2001 points up to Gmax=  52.9 (1/bohr)]
  Atomic number:  1;  ionic charge:  1.000000
    Local potential
File: C_01.recpot [ 2001 points up to Gmax=  52.9 (1/bohr)]
  Atomic number:  6;  ionic charge:  4.000000
    Shell 1: l = 0; rc = 1.48 bohr
File: S_00.recpot [ 2001 points up to Gmax=  52.9 (1/bohr)]
  Atomic number: 16;  ionic charge:  6.000000
    Shell 1: l = 0; rc = 1.90 bohr
    Shell 2: l = 2; rc = 1.84 bohr
File: O_02.recpot [ 2001 points up to Gmax=  52.9 (1/bohr)]
  Atomic number:  8;  ionic charge:  6.000000
    Shell 1: l = 0; rc = 1.31 bohr
<<<<<<<<<<<<<<<<<<<<<<<<<<<<<<<<<<<<<<<<>>>>>>>>>>>>>>>>>>>>>>>>>>>>>>>>>>>>>>>>

-------------------------- Atom counting information ---------------------------
Symbol    Natoms    Nngwfs    Nprojs
  N        236       944       236
  H       1311      1311         0
  C        810      3240       810
  S          6        54        36
  O        239       956       239
.......   ......    ......    ......
Totals:   2602      6505      1321
--------------------------------------------------------------------------------

=============================== PSINC grid sizes ===============================
                      Simulation cell:  275 x 286 x 336
                              FFT-box:   99 x  99 x  99
                                  PPD:    5 x  11 x   1
Grid space d1=  0.508720000000a0 (KE cutoff=  29.35259Eh = 798.72452eV)
Grid space d2=  0.506538461538a0 (KE cutoff=  29.60596Eh = 805.61916eV)
Grid space d3=  0.500357142857a0 (KE cutoff=  30.34197Eh = 825.64705eV)
================================================================================

********************* Fourier parallelisation information **********************
       Coarse grid (whole simulation cell) dimensions:    275   286   336
          Real-space ('12') slabs/node (min max mean):      5     6     5
         Recip-space ('23') slabs/node (min max mean):      2     3     2
********************************************************************************

********************* Fourier parallelisation information **********************
       Double grid (whole simulation cell) dimensions:    550   572   672
          Real-space ('12') slabs/node (min max mean):     11    12    11
         Recip-space ('23') slabs/node (min max mean):      4     5     4
********************************************************************************
ONETEP fine grid is 550 x 572 x 672 gridpoints, 139.8980 x 144.8700 x 168.1200 bohr.
FD multigrid is     545 x 569 x 665 gridpoints, 138.6262 x 144.1102 x 166.3688 bohr.


Calculating local pseudopotential in open BC on a radial grid ...
Discrepancy between calculated realspace psloc and -Z/x on [5a0,262.342a0]:
max |rel. diff| # avg |rel. diff| #  avg rel. diff #  f # pseudopotential file
 0.000258413739    0.000003708905   0.000000070960   56  'N_00.recpot'
 0.000398954828    0.000016185045  -0.000000074508   56  'H_04.recpot'
 0.000375346405    0.000017198923   0.000000144535   56  'C_01.recpot'
 0.000466850533    0.000020125278   0.000000461745   56  'S_00.recpot'
 0.000671508953    0.000026045986   0.000000155458   56  'O_02.recpot'
... done

Atom SCF Calculation for N  : Z (AE atom) =   7 : Z (PS atom) =   5
Config String:
Orbitals (num,occ):  2     2.00 3.00
Orbitals   (num,l):  2        0    1
Real-space Grid (nr,dr,rmax): 1203    0.0066555740    8.0000000000
Spherical Bessel Basis (nsws,lmax,cutoff):   47    1  176.3951722778
Confining potential (l,width,scale):  0    3.0000000000  100.0000000000
Confining potential (l,width,scale):  1    3.0000000000  100.0000000000
  1         -4.7312375307   -3.4155304497    7.0523828109   -1.9351020946
  2         -9.7309464766   -2.0532547791    8.2966052865   -2.2494486027
  3         -9.6627394379   -2.1124926340    8.2327997121   -2.2369778124
  4         -9.6814993499   -2.1215521045    8.2229805960   -2.2365178421
  5         -9.6843326483   -2.1250939529    8.2191374534   -2.2362718126
  6         -9.6859628709   -2.1267894855    8.2172963573   -2.2362066344
  7         -9.6867347035   -2.1276425665    8.2163697352   -2.2361903369
  8         -9.6870802100   -2.1280764625    8.2158983890   -2.2361891460
  9         -9.6872290423   -2.1282977424    8.2156580222   -2.2361920435
 10         -9.6872901988   -2.1284107021    8.2155353368   -2.2361953393
 11         -9.6873135296   -2.1284684031    8.2154726809   -2.2361979819
 12         -9.6873212476   -2.1284978948    8.2154406648   -2.2361998431
 13         -9.6873229586   -2.1285129774    8.2154242957   -2.2362010676
 14         -9.6873226456   -2.1285206957    8.2154159216   -2.2362018403
 15         -9.6873218534   -2.1285246479    8.2154116349   -2.2362023142
 16         -9.6873212599   -2.1285262679    8.2154098784   -2.2362025420
 17         -9.6873207834   -2.1285272564    8.2154088068   -2.2362026955
 18         -9.6873204210   -2.1285278596    8.2154081529   -2.2362027982
 19         -9.6873201550   -2.1285282280    8.2154077538   -2.2362028667
 20         -9.6873199645   -2.1285284529    8.2154075102   -2.2362029121
 21         -9.6873198305   -2.1285285903    8.2154073614   -2.2362029421
 22         -9.6873197377   -2.1285286742    8.2154072705   -2.2362029618
Atom SCF converged after  22 iterations to a total energy of     -9.68731974

Atom SCF Calculation for H  : Z (AE atom) =   1 : Z (PS atom) =   1
Config String:
Orbitals (num,occ):  1     1.00
Orbitals   (num,l):  1        0
Real-space Grid (nr,dr,rmax): 1203    0.0066555740    8.0000000000
Spherical Bessel Basis (nsws,lmax,cutoff):   47    0  176.3951722778
Confining potential (l,width,scale):  0    3.0000000000  100.0000000000
  1         -0.3194257691   -0.2393854593    0.2820953124   -0.2424203209
  2         -0.3951823392   -0.2377116493    0.2886404059   -0.2475147891
  3         -0.4317044583   -0.2352244387    0.2921333887   -0.2514046172
  4         -0.4470703708   -0.2341892222    0.2934391879   -0.2531009782
  5         -0.4532132900   -0.2338556667    0.2938388426   -0.2537313520
  6         -0.4556579251   -0.2337612552    0.2939448584   -0.2539550462
  7         -0.4566418315   -0.2337377355    0.2939680120   -0.2540342273
  8         -0.4570437922   -0.2337331116    0.2939708287   -0.2540627372
  9         -0.4572102946   -0.2337328328    0.2939698291   -0.2540732650
 10         -0.4572800424   -0.2337332404    0.2939687193   -0.2540772588
 11         -0.4573095100   -0.2337335791    0.2939680317   -0.2540788122
 12         -0.4573220379   -0.2337337762    0.2939676699   -0.2540794294
 13         -0.4573273880   -0.2337338775    0.2939674931   -0.2540796787
 14         -0.4573296803   -0.2337339266    0.2939674099   -0.2540797808
 15         -0.4573306647   -0.2337339495    0.2939673718   -0.2540798230
 16         -0.4573310882   -0.2337339601    0.2939673545   -0.2540798406
 17         -0.4573312706   -0.2337339649    0.2939673467   -0.2540798479
 18         -0.4573313493   -0.2337339670    0.2939673433   -0.2540798510
Atom SCF converged after  18 iterations to a total energy of     -0.45733135

Atom SCF Calculation for C  : Z (AE atom) =   6 : Z (PS atom) =   4
Config String:
Orbitals (num,occ):  2     2.00 2.00
Orbitals   (num,l):  2        0    1
Real-space Grid (nr,dr,rmax): 1203    0.0066555740    8.0000000000
Spherical Bessel Basis (nsws,lmax,cutoff):   47    1  176.3951722778
Confining potential (l,width,scale):  0    3.0000000000  100.0000000000
Confining potential (l,width,scale):  1    3.0000000000  100.0000000000
  1         -5.2976922011   -1.3069684169    4.5135249990   -1.4493313817
  2         -5.3721716256   -1.3429755895    4.4750154450   -1.4361613026
  3         -5.3809959565   -1.3617365618    4.4541655428   -1.4305930207
  4         -5.3918938866   -1.3667928461    4.4484735100   -1.4294652294
  5         -5.3956096428   -1.3688539142    4.4461376126   -1.4290734646
  6         -5.3968271862   -1.3696852393    4.4451910874   -1.4289366866
  7         -5.3972028401   -1.3700178062    4.4448112275   -1.4288900460
  8         -5.3973067903   -1.3701500158    4.4446598370   -1.4288749220
  9         -5.3973286940   -1.3702023868    4.4445997329   -1.4288704293
 10         -5.3973289850   -1.3702230869    4.4445759233   -1.4288693188
 11         -5.3973254264   -1.3702312560    4.4445665049   -1.4288691775
 12         -5.3973224003   -1.3702344755    4.4445627836   -1.4288692549
 13         -5.3973208708   -1.3702354890    4.4445616088   -1.4288693270
 14         -5.3973198783   -1.3702360102    4.4445610034   -1.4288693814
 15         -5.3973192535   -1.3702362780    4.4445606917   -1.4288694190
 16         -5.3973188684   -1.3702364155    4.4445605313   -1.4288694437
 17         -5.3973186349   -1.3702364860    4.4445604489   -1.4288694595
 18         -5.3973184951   -1.3702365221    4.4445604065   -1.4288694693
 19         -5.3973184122   -1.3702365405    4.4445603848   -1.4288694753
Atom SCF converged after  19 iterations to a total energy of     -5.39731841

Atom SCF Calculation for S  : Z (AE atom) =  16 : Z (PS atom) =   6
Config String:
Orbitals (num,occ):  3     2.00 4.00 0.00
Orbitals   (num,l):  3        0    1    2
Real-space Grid (nr,dr,rmax): 1203    0.0066555740    8.0000000000
Spherical Bessel Basis (nsws,lmax,cutoff):   47    2  176.3951722778
Confining potential (l,width,scale):  0    3.0000000000  100.0000000000
Confining potential (l,width,scale):  1    3.0000000000  100.0000000000
Confining potential (l,width,scale):  2    3.0000000000  100.0000000000
  1        -12.4735062396   -1.0328741412   10.1554312477   -2.4512393157
  2         -9.9458301913   -2.4607392455    8.3041325857   -2.0306994528
  3        -10.1450417646   -2.2931184565    8.4831893826   -2.0812538287
  4        -10.1528335592   -2.2733105793    8.5050388867   -2.0896035179
  5        -10.1571940363   -2.2633716629    8.5160794258   -2.0939370707
  6        -10.1594380571   -2.2584938667    8.5215163935   -2.0961289008
  7        -10.1605856507   -2.2561081821    8.5241804044   -2.0972291378
  8        -10.1611799191   -2.2549395235    8.5254868240   -2.0977806248
  9        -10.1614918752   -2.2543658586    8.5261285885   -2.0980571586
 10        -10.1616572884   -2.2540839121    8.5264441898   -2.0981959233
 11        -10.1617455602   -2.2539453058    8.5265994231   -2.0982656006
 12        -10.1617928447   -2.2538772062    8.5266757320   -2.0983006047
 13        -10.1618182292   -2.2538437891    8.5267131983   -2.0983181961
 14        -10.1618318741   -2.2538274201    8.5267315620   -2.0983270391
 15        -10.1618392144   -2.2538194197    8.5267405433   -2.0983314852
 16        -10.1618431651   -2.2538155200    8.5267449245   -2.0983337210
 17        -10.1618452923   -2.2538136252    8.5267470551   -2.0983348455
 18        -10.1618464380   -2.2538127080    8.5267480875   -2.0983354110
 19        -10.1618470552   -2.2538122659    8.5267485856   -2.0983356955
 20        -10.1618473878   -2.2538120540    8.5267488248   -2.0983358386
 21        -10.1618475670   -2.2538119530    8.5267489389   -2.0983359106
 22        -10.1618476637   -2.2538119053    8.5267489929   -2.0983359468
Atom SCF converged after  22 iterations to a total energy of    -10.16184766

Atom SCF Calculation for O  : Z (AE atom) =   8 : Z (PS atom) =   6
Config String:
Orbitals (num,occ):  2     2.00 4.00
Orbitals   (num,l):  2        0    1
Real-space Grid (nr,dr,rmax): 1203    0.0066555740    8.0000000000
Spherical Bessel Basis (nsws,lmax,cutoff):   47    1  176.3951722778
Confining potential (l,width,scale):  0    3.0000000000  100.0000000000
Confining potential (l,width,scale):  1    3.0000000000  100.0000000000
  1         -1.8735052164   -7.5539365035   10.1554312477   -2.4512393157
  2        -16.0318313751   -3.1285771268   13.6395848164   -3.2358799643
  3        -15.9524020423   -3.0762819706   13.6967272503   -3.2536856837
  4        -15.8521515939   -3.0781493909   13.6951909330   -3.2561700440
  5        -15.8357139793   -3.0748501933   13.6988803334   -3.2580493133
  6        -15.8246052853   -3.0740779781   13.6997881576   -3.2588327446
  7        -15.8189019501   -3.0737449687   13.7001869911   -3.2592378801
  8        -15.8159785510   -3.0736026016   13.7003615168   -3.2594475790
  9        -15.8144776168   -3.0735437994   13.7004360379   -3.2595560735
 10        -15.8137058024   -3.0735207882   13.7004667348   -3.2596122456
 11        -15.8133083127   -3.0735125946   13.7004786868   -3.2596413656
 12        -15.8131032938   -3.0735102195   13.7004828997   -3.2596564858
 13        -15.8129973902   -3.0735099286   13.7004840891   -3.2596643505
 14        -15.8129426040   -3.0735102506   13.7004842061   -3.2596684489
 15        -15.8129142203   -3.0735106556   13.7004840157   -3.2596705887
 16        -15.8128994940   -3.0735109855   13.7004837906   -3.2596717080
 17        -15.8128918425   -3.0735112169   13.7004836103   -3.2596722946
 18        -15.8128878614   -3.0735113674   13.7004834848   -3.2596726026
 19        -15.8128857871   -3.0735114608   13.7004834035   -3.2596727646
 20        -15.8128847048   -3.0735115170   13.7004833533   -3.2596728500
 21        -15.8128841394   -3.0735115501   13.7004833231   -3.2596728951
 22        -15.8128838436   -3.0735115693   13.7004833054   -3.2596729190
 23        -15.8128836887   -3.0735115802   13.7004832951   -3.2596729316
 24        -15.8128836074   -3.0735115864   13.7004832893   -3.2596729383
Atom SCF converged after  24 iterations to a total energy of    -15.81288361

========================== Calculation in vacuum ==============================
= Adjusting the following parameters: 
= is_implicit_solvent: F
= is_include_apolar: F
= write_denskern: T
= write_tightbox_ngwfs: T
= restart read filename prefix: ""
= restart write filename prefix: "vacuum_"
===============================================================================

Determining parallel strategy ...
... using space-filling curve
... NGWF load balancing: max    109;  min    108;  average    108
... Projector load balancing: max     25;  min     21;  average     22
... done
Calculating direct Ion-Ion energy ...
Ion-Ion Energy        :    814870.63501579337753
======================= Empirical dispersion information =======================
Model : Elstner
Dispersion Correction Energy: -0.32107256E+01 Hartree
================================================================================
Basis initialisation ...... NGWF spheres initialised
... Projector spheres initialised
... NGWF tight boxes initialised
... Tight-boxes gathered
... NGWF basis size (local,global):    1031948  62073227
... Nonlocal pseudopotential projector initialisation
... done

========================== Sparse matrix information ===========================
                        Overlap matrix filling:   6.63%
                        Density kernel filling: 100.00%
              NGWF-Proj overlap matrix filling:   1.76%
                    Hamiltonian matrix filling:   7.47%
                  NGWF diagonal matrix filling:   0.05%
                             KS matrix filling: 100.00% 
                           KSKS matrix filling: 100.00% 
================================================================================

Sparse matrix initialisation ... done

Generating smeared ion density ... done
Smeared ion self correction:     -14457.169564
Smeared ion non-self correction: -814822.519728
NGWF initialisation ...... done
============ Calculation of NGWF S^-1 using Hotelling algorithm ================ 
         Iteration  |  Frobenius norm and Maximum abs value    (of I-S*S_n^-1)   
               1       0.78538682E+02     0.98285285E+00
               2       0.76729945E+02     0.96615003E+00
               3       0.73786997E+02     0.93400294E+00
               4       0.69578602E+02     0.87525945E+00
               5       0.64308859E+02     0.77415452E+00
               6       0.58359922E+02     0.70402762E+00
               7       0.52345652E+02     0.67048477E+00
               8       0.46787694E+02     0.64389021E+00
               9       0.40786728E+02     0.60470136E+00
              10       0.32640723E+02     0.53588528E+00
              11       0.22143931E+02     0.42500472E+00
              12       0.11478516E+02     0.28730654E+00
              13       0.38749816E+01     0.14397627E+00
              14       0.64613151E+00     0.41438075E-01
              15       0.37447033E-01     0.43097133E-02
              16       0.36949464E-03     0.66932453E-04
              17       0.72634985E-07     0.16537212E-07
              18       0.98520545E-13     0.53290705E-14
================================================================================
Calculating local pseudopotential in open BC on the fine real space grid ...
... done

MG BCs: +ve charge blocks (gridpoints):     20782 (   16250443).
MG BCs: -ve charge blocks (gridpoints):      7946 (    1073999).
MG BCs:     Elided blocks (gridpoints):    189263 (  188895383).
MG BCs: Computational effort saved:  99.9861%.
MG BCs: Charge after coarse-graining:           -9.0002375.
MG DL_MG: Calling solver with defect correction order = 8
MG DL_MG: Solver finished
MG Hartree energy from (\int phi*rho dr):              1462.261936
MG Hartree energy from (\int eps (grad phi)^2 dr):     1461.654073
MG Discrepancy due to finite box and discretization:     -0.607864 (  -0.04157%)
MG Correction to account for finite box:                  0.453945
MG Remaining discrepancy, due to discretization:         -0.153918 (  -0.01053%)
Up spin density kernel initialisation ... 
======= Optimisation of K by Palser-Manolopoulos canonical purification ======== 
         Iteration  |  Band structure energy |    c_n   
               1       -2569.07039839708477    0.5266578
               2       -2744.88958265893598    0.5168976
               3       -2924.75307325779886    0.5153776
               4       -3074.60321025848816    0.5289936
               5       -3166.48123430061969    0.5649556
               6       -3204.73257780363247    0.6090541
               7       -3217.74366936236402    0.6195806
               8       -3223.42394086041622    0.6191477
               9       -3226.14392175382727    0.6374510
              10       -3227.23881449539249    0.6672055
              11       -3227.65638037391773    0.6784031
              12       -3227.84582373763442    0.6433044
              13       -3227.95921639227436    0.5555215
              14       -3228.03340146688788    0.3898521
              15       -3228.05396812204344    0.2489951
              16       -3228.05493538600240    0.2437438
              17       -3228.05541795300996    0.2725746
              18       -3228.05593329209933    0.3137738
              19       -3228.05650814688852    0.3655416
              20       -3228.05709027977264    0.4227968
              21       -3228.05756335834894    0.4714296
              22       -3228.05780223388501    0.4956228
              23       -3228.05784823920931    0.4998894
              24       -3228.05784968180797    0.5000072
              25       -3228.05784968322314    0.5000072
Termination criterion satisfied: band energy change below threshold.
Final occupancy bounds: [    0.00000000000000:    1.00000000000000]
Closest occupancy to 0.5:     1.00000000000000
================================================================================
... done

Writing density kernel to file "host_24041.vacuum_dkn" ... done

>>> Optimising kernel for current NGWFs:
   Initial electron number for spin 1:    7192.00000000
     Final electron number for spin 1:    7192.00000000

=================== Penalty functional idempotency correction ==================
 RMS occupancy error at iteration   1:  0.000000 (step -0.5000 Ne1=   7192.0000)
            Final RMS occupancy error   :  0.000000 (Ne1=   7192.0000)
               Final occupancy bounds   : [  0.0000,  1.0000]
================================================================================

................................................................................
<<<<<<<<<<<<<< LNV (Original version) density kernel optimisation >>>>>>>>>>>>>>
~~~~~~~~~~~~~~~~~~~~~~~~~~~~~~~~~~~~~~~~~~~~~~~~~~~~~~~~~~~~~~~~~~~~~~~~~~~~~~~~
   iter  |      energy (Eh)       | rms gradient |  commutator  |   dE (Eh)
MG BCs: +ve charge blocks (gridpoints):     31244 (   17449029).
MG BCs: -ve charge blocks (gridpoints):      8302 (    1106514).
MG BCs:     Elided blocks (gridpoints):    178799 (  187664282).
MG BCs: Computational effort saved:  99.9808%.
MG BCs: Charge after coarse-graining:           -9.0009709.
MG DL_MG: Calling solver with defect correction order = 8
MG DL_MG: Solver finished
MG Hartree energy from (\int phi*rho dr):              1417.353399
MG Hartree energy from (\int eps (grad phi)^2 dr):     1416.687453
MG Discrepancy due to finite box and discretization:     -0.665946 (  -0.04699%)
MG Correction to account for finite box:                  0.468937
MG Remaining discrepancy, due to discretization:         -0.197009 (  -0.01390%)
      ideal mu1:      -0.699717428183
             Q0:  -11505.682649008697
             G0:    -144.240497762024
   RMS gradient:       0.001846274644
MG BCs: +ve charge blocks (gridpoints):     31234 (   17530599).
MG BCs: -ve charge blocks (gridpoints):      8172 (    1086116).
MG BCs:     Elided blocks (gridpoints):    178806 (  187603110).
MG BCs: Computational effort saved:  99.9809%.
MG BCs: Charge after coarse-graining:           -9.0009937.
MG DL_MG: Calling solver with defect correction order = 8
MG DL_MG: Solver finished
MG Hartree energy from (\int phi*rho dr):              1442.708312
MG Hartree energy from (\int eps (grad phi)^2 dr):     1442.059441
MG Discrepancy due to finite box and discretization:     -0.648871 (  -0.04498%)
MG Correction to account for finite box:                  0.467849
MG Remaining discrepancy, due to discretization:         -0.181022 (  -0.01255%)
     Trial step:       0.500000000000
             Q1:  -11517.168015157804
 Quadratic coef:      60.634882731905
 Linear coef   :     -72.120248881012
           Qmin:  -11527.127937860234
Quadratic minimum step length (  0.297354615164) accepted
    Initial Ne1:    7192.00000000
      Final Ne1:    7192.00000000

=================== Penalty functional idempotency correction ==================
 RMS occupancy error at iteration   1:  0.003387 (step -0.4885 Ne1=   7192.0000)
 RMS occupancy error at iteration   2:  0.000027 (step -0.5001 Ne1=   7192.0000)
            Final RMS occupancy error   :  0.000000 (Ne1=   7192.0000)
               Final occupancy bounds   : [  0.0000,  1.0000]
================================================================================

    1        -1.150568264901E+04     1.8463E-03     1.6699E-03
MG BCs: +ve charge blocks (gridpoints):     31225 (   17499124).
MG BCs: -ve charge blocks (gridpoints):      8237 (    1094903).
MG BCs:     Elided blocks (gridpoints):    178816 (  187625798).
MG BCs: Computational effort saved:  99.9809%.
MG BCs: Charge after coarse-graining:           -9.0009841.
MG DL_MG: Calling solver with defect correction order = 8
MG DL_MG: Solver finished
MG Hartree energy from (\int phi*rho dr):              1424.541782
MG Hartree energy from (\int eps (grad phi)^2 dr):     1423.886948
MG Discrepancy due to finite box and discretization:     -0.654834 (  -0.04597%)
MG Correction to account for finite box:                  0.468174
MG Remaining discrepancy, due to discretization:         -0.186660 (  -0.01310%)
      ideal mu1:      -0.741825403018
             Q0:  -11527.521620083018
             G0:     -12.152060264003
   RMS gradient:       0.000532329969
MG BCs: +ve charge blocks (gridpoints):     31232 (   17516377).
MG BCs: -ve charge blocks (gridpoints):      8196 (    1089576).
MG BCs:     Elided blocks (gridpoints):    178809 (  187613872).
MG BCs: Computational effort saved:  99.9809%.
MG BCs: Charge after coarse-graining:           -9.0009877.
MG DL_MG: Calling solver with defect correction order = 8
MG DL_MG: Solver finished
MG Hartree energy from (\int phi*rho dr):              1429.680255
MG Hartree energy from (\int eps (grad phi)^2 dr):     1429.029660
MG Discrepancy due to finite box and discretization:     -0.650595 (  -0.04551%)
MG Correction to account for finite box:                  0.467170
MG Remaining discrepancy, due to discretization:         -0.183425 (  -0.01283%)
     Trial step:       0.385586965005
             Q1:  -11530.372195613221
 Quadratic coef:       1.835100505554
 Linear coef   :      -4.685676035758
           Qmin:  -11530.512676955057
Quadratic minimum step length (  0.492271566641) accepted
    Initial Ne1:    7191.99988878
      Final Ne1:    7192.00000000

=================== Penalty functional idempotency correction ==================
 RMS occupancy error at iteration   1:  0.001816 (step -0.4929 Ne1=   7192.0000)
 RMS occupancy error at iteration   2:  0.000013 (step -0.5002 Ne1=   7192.0000)
            Final RMS occupancy error   :  0.000000 (Ne1=   7192.0000)
               Final occupancy bounds   : [  0.0000,  1.0000]
================================================================================

    2        -1.152752162008E+04     5.3233E-04     4.8148E-04    -2.1839E+01
MG BCs: +ve charge blocks (gridpoints):     31242 (   17521017).
MG BCs: -ve charge blocks (gridpoints):      8184 (    1088212).
MG BCs:     Elided blocks (gridpoints):    178799 (  187610596).
MG BCs: Computational effort saved:  99.9809%.
MG BCs: Charge after coarse-graining:           -9.0009887.
MG DL_MG: Calling solver with defect correction order = 8
MG DL_MG: Solver finished
MG Hartree energy from (\int phi*rho dr):              1431.151432
MG Hartree energy from (\int eps (grad phi)^2 dr):     1430.501928
MG Discrepancy due to finite box and discretization:     -0.649503 (  -0.04538%)
MG Correction to account for finite box:                  0.466909
MG Remaining discrepancy, due to discretization:         -0.182595 (  -0.01276%)
      ideal mu1:      -0.764888370975
             Q0:  -11530.549619998899
             G0:      -1.966696412964
   RMS gradient:       0.000214220786
MG BCs: +ve charge blocks (gridpoints):     31238 (   17520485).
MG BCs: -ve charge blocks (gridpoints):      8193 (    1089164).
MG BCs:     Elided blocks (gridpoints):    178804 (  187610176).
MG BCs: Computational effort saved:  99.9809%.
MG BCs: Charge after coarse-graining:           -9.0009883.
MG DL_MG: Calling solver with defect correction order = 8
MG DL_MG: Solver finished
MG Hartree energy from (\int phi*rho dr):              1428.897970
MG Hartree energy from (\int eps (grad phi)^2 dr):     1428.249016
MG Discrepancy due to finite box and discretization:     -0.648955 (  -0.04542%)
MG Correction to account for finite box:                  0.466556
MG Remaining discrepancy, due to discretization:         -0.182398 (  -0.01276%)
     Trial step:       0.435675910901
             Q1:  -11531.051204351126
 Quadratic coef:       0.355257898957
 Linear coef   :      -0.856842251184
           Qmin:  -11531.066271877415
Quadratic minimum step length (  0.525400743206) accepted
    Initial Ne1:    7191.99990392
      Final Ne1:    7192.00000000

=================== Penalty functional idempotency correction ==================
 RMS occupancy error at iteration   1:  0.000654 (step -0.4968 Ne1=   7192.0000)
 RMS occupancy error at iteration   2:  0.000003 (step -0.5000 Ne1=   7192.0000)
            Final RMS occupancy error   :  0.000000 (Ne1=   7192.0000)
               Final occupancy bounds   : [  0.0000,  1.0000]
================================================================================

    3        -1.153054962000E+04     2.1422E-04     1.9376E-04    -3.0280E+00
MG BCs: +ve charge blocks (gridpoints):     31236 (   17520391).
MG BCs: -ve charge blocks (gridpoints):      8196 (    1089429).
MG BCs:     Elided blocks (gridpoints):    178806 (  187610005).
MG BCs: Computational effort saved:  99.9809%.
MG BCs: Charge after coarse-graining:           -9.0009881.
MG DL_MG: Calling solver with defect correction order = 8
MG DL_MG: Solver finished
MG Hartree energy from (\int phi*rho dr):              1428.443829
MG Hartree energy from (\int eps (grad phi)^2 dr):     1427.794978
MG Discrepancy due to finite box and discretization:     -0.648852 (  -0.04542%)
MG Correction to account for finite box:                  0.466484
MG Remaining discrepancy, due to discretization:         -0.182367 (  -0.01277%)
      ideal mu1:      -0.765978399073
             Q0:  -11531.071164932917
             G0:      -0.514938480465
   RMS gradient:       0.000109740936
MG BCs: +ve charge blocks (gridpoints):     31240 (   17521493).
MG BCs: -ve charge blocks (gridpoints):      8194 (    1089194).
MG BCs:     Elided blocks (gridpoints):    178802 (  187609138).
MG BCs: Computational effort saved:  99.9809%.
MG BCs: Charge after coarse-graining:           -9.0009882.
MG DL_MG: Calling solver with defect correction order = 8
MG DL_MG: Solver finished
MG Hartree energy from (\int phi*rho dr):              1429.680929
MG Hartree energy from (\int eps (grad phi)^2 dr):     1429.032129
MG Discrepancy due to finite box and discretization:     -0.648800 (  -0.04538%)
MG Correction to account for finite box:                  0.466320
MG Remaining discrepancy, due to discretization:         -0.182480 (  -0.01276%)
     Trial step:       0.478439596380
             Q1:  -11531.198129252996
 Quadratic coef:       0.119402638675
 Linear coef   :      -0.246366958754
           Qmin:  -11531.198248971928
Quadratic minimum step length (  0.493589210490) accepted
    Initial Ne1:    7191.99997607
      Final Ne1:    7192.00000000

=================== Penalty functional idempotency correction ==================
 RMS occupancy error at iteration   1:  0.000291 (step -0.4960 Ne1=   7192.0000)
 RMS occupancy error at iteration   2:  0.000003 (step -0.5000 Ne1=   7192.0000)
            Final RMS occupancy error   :  0.000000 (Ne1=   7192.0000)
               Final occupancy bounds   : [  0.0000,  1.0000]
================================================================================

    4        -1.153107116493E+04     1.0974E-04     9.9258E-05    -5.2154E-01
MG BCs: +ve charge blocks (gridpoints):     31240 (   17521561).
MG BCs: -ve charge blocks (gridpoints):      8194 (    1089179).
MG BCs:     Elided blocks (gridpoints):    178802 (  187609085).
MG BCs: Computational effort saved:  99.9809%.
MG BCs: Charge after coarse-graining:           -9.0009882.
MG DL_MG: Calling solver with defect correction order = 8
MG DL_MG: Solver finished
MG Hartree energy from (\int phi*rho dr):              1429.720662
MG Hartree energy from (\int eps (grad phi)^2 dr):     1429.071863
MG Discrepancy due to finite box and discretization:     -0.648799 (  -0.04538%)
MG Correction to account for finite box:                  0.466314
MG Remaining discrepancy, due to discretization:         -0.182484 (  -0.01276%)
      ideal mu1:      -0.766431476904
             Q0:  -11531.198898946284
             G0:      -0.178792667326
   RMS gradient:       0.000064838796
MG BCs: +ve charge blocks (gridpoints):     31242 (   17521785).
MG BCs: -ve charge blocks (gridpoints):      8189 (    1088982).
MG BCs:     Elided blocks (gridpoints):    178800 (  187609058).
MG BCs: Computational effort saved:  99.9809%.
MG BCs: Charge after coarse-graining:           -9.0009881.
MG DL_MG: Calling solver with defect correction order = 8
MG DL_MG: Solver finished
MG Hartree energy from (\int phi*rho dr):              1430.153855
MG Hartree energy from (\int eps (grad phi)^2 dr):     1429.504892
MG Discrepancy due to finite box and discretization:     -0.648963 (  -0.04538%)
MG Correction to account for finite box:                  0.466322
MG Remaining discrepancy, due to discretization:         -0.182642 (  -0.01277%)
     Trial step:       0.485955371042
             Q1:  -11531.252727120998
 Quadratic coef:       0.033057082275
 Linear coef   :      -0.086885256990
           Qmin:  -11531.255989948897
Quadratic minimum step length (  0.638628009378) accepted
    Initial Ne1:    7191.99998902
      Final Ne1:    7192.00000000

=================== Penalty functional idempotency correction ==================
 RMS occupancy error at iteration   1:  0.000347 (step -0.4832 Ne1=   7192.0000)
 RMS occupancy error at iteration   2:  0.000006 (step -0.5001 Ne1=   7192.0000)
            Final RMS occupancy error   :  0.000000 (Ne1=   7192.0000)
               Final occupancy bounds   : [  0.0000,  1.0000]
================================================================================

    5        -1.153119889895E+04     6.4839E-05     5.8645E-05    -1.2773E-01
MG BCs: +ve charge blocks (gridpoints):     31243 (   17521840).
MG BCs: -ve charge blocks (gridpoints):      8189 (    1088951).
MG BCs:     Elided blocks (gridpoints):    178799 (  187609034).
MG BCs: Computational effort saved:  99.9809%.
MG BCs: Charge after coarse-graining:           -9.0009881.
MG DL_MG: Calling solver with defect correction order = 8
MG DL_MG: Solver finished
MG Hartree energy from (\int phi*rho dr):              1430.289731
MG Hartree energy from (\int eps (grad phi)^2 dr):     1429.640718
MG Discrepancy due to finite box and discretization:     -0.649013 (  -0.04538%)
MG Correction to account for finite box:                  0.466321
MG Remaining discrepancy, due to discretization:         -0.182692 (  -0.01277%)
      ideal mu1:      -0.766662162654
             Q0:  -11531.255909960484
             G0:      -0.126300044498
   RMS gradient:       0.000054685630
MG BCs: +ve charge blocks (gridpoints):     31241 (   17520957).
MG BCs: -ve charge blocks (gridpoints):      8190 (    1089315).
MG BCs:     Elided blocks (gridpoints):    178801 (  187609553).
MG BCs: Computational effort saved:  99.9809%.
MG BCs: Charge after coarse-graining:           -9.0009880.
MG DL_MG: Calling solver with defect correction order = 8
MG DL_MG: Solver finished
MG Hartree energy from (\int phi*rho dr):              1429.149494
MG Hartree energy from (\int eps (grad phi)^2 dr):     1428.500554
MG Discrepancy due to finite box and discretization:     -0.648939 (  -0.04541%)
MG Correction to account for finite box:                  0.466265
MG Remaining discrepancy, due to discretization:         -0.182674 (  -0.01278%)
     Trial step:       0.557085910121
             Q1:  -11531.308940886403
 Quadratic coef:       0.017329049319
 Linear coef   :      -0.070359975237
           Qmin:  -11531.327329431115
Quadratic minimum step length (  1.130949255230) accepted
    Initial Ne1:    7191.99995880
      Final Ne1:    7192.00000000

=================== Penalty functional idempotency correction ==================
 RMS occupancy error at iteration   1:  0.001944 (step -0.3916 Ne1=   7192.0000)
 RMS occupancy error at iteration   2:  0.000107 (step -0.4961 Ne1=   7192.0000)
 RMS occupancy error at iteration   3:  0.000001 (step -0.5000 Ne1=   7192.0000)
            Final RMS occupancy error   :  0.000000 (Ne1=   7192.0000)
               Final occupancy bounds   : [  0.0000,  1.0000]
================================================================================

    6        -1.153125590996E+04     5.4686E-05     4.9462E-05    -5.7011E-02
MG BCs: +ve charge blocks (gridpoints):     31239 (   17520039).
MG BCs: -ve charge blocks (gridpoints):      8195 (    1089755).
MG BCs:     Elided blocks (gridpoints):    178802 (  187610031).
MG BCs: Computational effort saved:  99.9809%.
MG BCs: Charge after coarse-graining:           -9.0009879.
MG DL_MG: Calling solver with defect correction order = 8
MG DL_MG: Solver finished
MG Hartree energy from (\int phi*rho dr):              1427.974387
MG Hartree energy from (\int eps (grad phi)^2 dr):     1427.325535
MG Discrepancy due to finite box and discretization:     -0.648852 (  -0.04544%)
MG Correction to account for finite box:                  0.466196
MG Remaining discrepancy, due to discretization:         -0.182656 (  -0.01279%)
      ideal mu1:      -0.766414743923
             Q0:  -11531.319554413087
             G0:      -0.199930295761
   RMS gradient:       0.000068737226
MG BCs: +ve charge blocks (gridpoints):     31246 (   17522583).
MG BCs: -ve charge blocks (gridpoints):      8191 (    1088597).
MG BCs:     Elided blocks (gridpoints):    178796 (  187608645).
MG BCs: Computational effort saved:  99.9809%.
MG BCs: Charge after coarse-graining:           -9.0009884.
MG DL_MG: Calling solver with defect correction order = 8
MG DL_MG: Solver finished
MG Hartree energy from (\int phi*rho dr):              1430.803650
MG Hartree energy from (\int eps (grad phi)^2 dr):     1430.155086
MG Discrepancy due to finite box and discretization:     -0.648564 (  -0.04533%)
MG Correction to account for finite box:                  0.466011
MG Remaining discrepancy, due to discretization:         -0.182554 (  -0.01276%)
     Trial step:       0.793748004816
             Q1:  -11531.373517208151
 Quadratic coef:       0.104731478299
 Linear coef   :      -0.158694273363
           Qmin:  -11531.379669749964
Quadratic minimum step length (  0.601362956502) accepted
    Initial Ne1:    7191.99999995
      Final Ne1:    7192.00000000

=================== Penalty functional idempotency correction ==================
 RMS occupancy error at iteration   1:  0.000131 (step -0.4897 Ne1=   7192.0000)
 RMS occupancy error at iteration   2:  0.000001 (step -0.5000 Ne1=   7192.0000)
            Final RMS occupancy error   :  0.000000 (Ne1=   7192.0000)
               Final occupancy bounds   : [  0.0000,  1.0000]
================================================================================

    7        -1.153131955441E+04     6.8737E-05     6.2171E-05    -6.3644E-02
MG BCs: +ve charge blocks (gridpoints):     31245 (   17521917).
MG BCs: -ve charge blocks (gridpoints):      8190 (    1088911).
MG BCs:     Elided blocks (gridpoints):    178797 (  187608997).
MG BCs: Computational effort saved:  99.9809%.
MG BCs: Charge after coarse-graining:           -9.0009883.
MG DL_MG: Calling solver with defect correction order = 8
MG DL_MG: Solver finished
MG Hartree energy from (\int phi*rho dr):              1430.115184
MG Hartree energy from (\int eps (grad phi)^2 dr):     1429.466549
MG Discrepancy due to finite box and discretization:     -0.648635 (  -0.04536%)
MG Correction to account for finite box:                  0.466057
MG Remaining discrepancy, due to discretization:         -0.182578 (  -0.01277%)
      ideal mu1:      -0.767558363169
             Q0:  -11531.379777238704
             G0:      -0.149654210010
   RMS gradient:       0.000059436211
MG BCs: +ve charge blocks (gridpoints):     31241 (   17521974).
MG BCs: -ve charge blocks (gridpoints):      8190 (    1088846).
MG BCs:     Elided blocks (gridpoints):    178801 (  187609005).
MG BCs: Computational effort saved:  99.9809%.
MG BCs: Charge after coarse-graining:           -9.0009884.
MG DL_MG: Calling solver with defect correction order = 8
MG DL_MG: Solver finished
MG Hartree energy from (\int phi*rho dr):              1430.155421
MG Hartree energy from (\int eps (grad phi)^2 dr):     1429.507133
MG Discrepancy due to finite box and discretization:     -0.648289 (  -0.04533%)
MG Correction to account for finite box:                  0.465835
MG Remaining discrepancy, due to discretization:         -0.182454 (  -0.01276%)
     Trial step:       0.690891197581
             Q1:  -11531.449181002099
 Quadratic coef:       0.033991012982
 Linear coef   :      -0.103394776377
           Qmin:  -11531.458404490762
Quadratic minimum step length (  1.050785701968) accepted
    Initial Ne1:    7191.99999988
      Final Ne1:    7192.00000000

=================== Penalty functional idempotency correction ==================
 RMS occupancy error at iteration   1:  0.001662 (step -0.3949 Ne1=   7192.0000)
 RMS occupancy error at iteration   2:  0.000051 (step -0.4969 Ne1=   7192.0000)
            Final RMS occupancy error   :  0.000000 (Ne1=   7192.0000)
               Final occupancy bounds   : [ -0.0000,  1.0000]
================================================================================

    8        -1.153137977724E+04     5.9436E-05     5.3759E-05    -6.0223E-02
MG BCs: +ve charge blocks (gridpoints):     31238 (   17521997).
MG BCs: -ve charge blocks (gridpoints):      8188 (    1088812).
MG BCs:     Elided blocks (gridpoints):    178804 (  187609016).
MG BCs: Computational effort saved:  99.9809%.
MG BCs: Charge after coarse-graining:           -9.0009885.
MG DL_MG: Calling solver with defect correction order = 8
MG DL_MG: Solver finished
MG Hartree energy from (\int phi*rho dr):              1430.179563
MG Hartree energy from (\int eps (grad phi)^2 dr):     1429.531450
MG Discrepancy due to finite box and discretization:     -0.648113 (  -0.04532%)
MG Correction to account for finite box:                  0.465722
MG Remaining discrepancy, due to discretization:         -0.182390 (  -0.01275%)
      ideal mu1:      -0.767454962672
             Q0:  -11531.453770540538
             G0:      -0.222011629872
   RMS gradient:       0.000074486550
MG BCs: +ve charge blocks (gridpoints):     31239 (   17521042).
MG BCs: -ve charge blocks (gridpoints):      8193 (    1089433).
MG BCs:     Elided blocks (gridpoints):    178803 (  187609350).
MG BCs: Computational effort saved:  99.9809%.
MG BCs: Charge after coarse-graining:           -9.0009882.
MG DL_MG: Calling solver with defect correction order = 8
MG DL_MG: Solver finished
MG Hartree energy from (\int phi*rho dr):              1428.509590
MG Hartree energy from (\int eps (grad phi)^2 dr):     1427.861951
MG Discrepancy due to finite box and discretization:     -0.647639 (  -0.04534%)
MG Correction to account for finite box:                  0.465404
MG Remaining discrepancy, due to discretization:         -0.182235 (  -0.01276%)
     Trial step:       0.852043773543
             Q1:  -11531.497112349607
 Quadratic coef:       0.145821817818
 Linear coef   :      -0.189163626887
           Qmin:  -11531.515117460829
Quadratic minimum step length (  0.552646006207) accepted
    Initial Ne1:    7192.00162855
      Final Ne1:    7192.00000000

=================== Penalty functional idempotency correction ==================
 RMS occupancy error at iteration   1:  0.003633 (step -0.3197 Ne1=   7192.0000)
 RMS occupancy error at iteration   2:  0.000203 (step -0.4867 Ne1=   7192.0000)
 RMS occupancy error at iteration   3:  0.000002 (step -0.5000 Ne1=   7192.0000)
            Final RMS occupancy error   :  0.000000 (Ne1=   7192.0000)
               Final occupancy bounds   : [  0.0000,  1.0000]
================================================================================

    9        -1.153145377054E+04     7.4487E-05     6.7371E-05    -7.3993E-02
MG BCs: +ve charge blocks (gridpoints):     31236 (   17521374).
MG BCs: -ve charge blocks (gridpoints):      8192 (    1089212).
MG BCs:     Elided blocks (gridpoints):    178806 (  187609239).
MG BCs: Computational effort saved:  99.9809%.
MG BCs: Charge after coarse-graining:           -9.0009883.
MG DL_MG: Calling solver with defect correction order = 8
MG DL_MG: Solver finished
MG Hartree energy from (\int phi*rho dr):              1429.084895
MG Hartree energy from (\int eps (grad phi)^2 dr):     1428.437142
MG Discrepancy due to finite box and discretization:     -0.647754 (  -0.04533%)
MG Correction to account for finite box:                  0.465473
MG Remaining discrepancy, due to discretization:         -0.182280 (  -0.01276%)
      ideal mu1:      -0.766740133366
   10        -1.153152463637E+04     6.4644E-05     5.8469E-05    -7.0866E-02
Finished density kernel iterations (  10)

Writing density kernel to file "host_24041.vacuum_dkn" ... done


>>> Density kernel optimised for the current NGWF basis:
     ~~~~~~~~~~~~~~~~~~~~~~~~~~~~~~~~~~~~~~~~~~~~~~~~~~~~~~~~~~~
     Total energy                =  -1.15315246363668E+04  Eh
     Estimated bandgap           =  -4.8753E-01  Eh
     RMS occupancy error         =   2.6516E-10
     [H,K] commutator            =   5.8469E-05
     Occupancy bounds            = [  0.000:  1.000]
     ~~~~~~~~~~~~~~~~~~~~~~~~~~~~~~~~~~~~~~~~~~~~~~~~~~~~~~~~~~~




################################################################################
########################### NGWF CG iteration  001 #############################
################################################################################
****** Reciprocal space K.E. preconditioning with k_zero =  3.5000 a0^-1 *******

>>> Checking for convergence of NGWFs:   NOT CONVERGED
  ========================================================================
         NGWF RMS gradient =  1.6024E-03 >  2.0000E-06  | above tolerance
  ========================================================================

>>> Improving NGWFs using line search:
============ Calculation of NGWF S^-1 using Hotelling algorithm ================ 
         Iteration  |  Frobenius norm and Maximum abs value    (of I-S*S_n^-1)   
               1       0.19788645E+00     0.52892212E-02
               2       0.91272047E-03     0.43762593E-04
               3       0.33828812E-07     0.29752957E-08
               4       0.12538684E-12     0.44408921E-14
================================================================================
MG BCs: +ve charge blocks (gridpoints):     30753 (   17469379).
MG BCs: -ve charge blocks (gridpoints):      8212 (    1089346).
MG BCs:     Elided blocks (gridpoints):    179290 (  187661100).
MG BCs: Computational effort saved:  99.9811%.
MG BCs: Charge after coarse-graining:           -9.0009929.
MG DL_MG: Calling solver with defect correction order = 8
MG DL_MG: Solver finished
MG Hartree energy from (\int phi*rho dr):              1397.257729
MG Hartree energy from (\int eps (grad phi)^2 dr):     1396.610811
MG Discrepancy due to finite box and discretization:     -0.646918 (  -0.04630%)
MG Correction to account for finite box:                  0.465383
MG Remaining discrepancy, due to discretization:         -0.181536 (  -0.01299%)
============ Calculation of NGWF S^-1 using Hotelling algorithm ================ 
         Iteration  |  Frobenius norm and Maximum abs value    (of I-S*S_n^-1)   
               1       0.18411796E+01     0.42789695E-01
               2       0.70552365E-01     0.25777207E-02
               3       0.14183313E-03     0.10366841E-04
               4       0.11022648E-08     0.17242618E-09
               5       0.10902202E-12     0.44408921E-14
================================================================================
------------------------------- NGWF line search -------------------------------
RMS gradient                =       0.00160240477483
Trial step length           =               0.122474
Gradient along search dir.  =       -277.82990505874
Functional at step 0        =  -11531.52463636675384
Functional at step 1        =  -11562.93569860211574
Functional predicted        =  -11642.17411393441398
Selected quadratic step     =               0.796527
--------------------------- NGWF line search finished --------------------------
                                               
Writing NGWFs to file "host_24041.vacuum_tightbox_ngwfs"....  done

>>> Optimising kernel for current NGWFs:
   Initial electron number for spin 1:    7226.50948979
     Final electron number for spin 1:    7192.00000000

=================== Penalty functional idempotency correction ==================
 RMS occupancy error at iteration   1:  0.004272 (step -0.4861 Ne1=   7192.0000)
 RMS occupancy error at iteration   2:  0.000070 (step -0.5003 Ne1=   7192.0000)
            Final RMS occupancy error   :  0.000000 (Ne1=   7192.0000)
               Final occupancy bounds   : [  0.0000,  1.0000]
================================================================================

................................................................................
<<<<<<<<<<<<<< LNV (Original version) density kernel optimisation >>>>>>>>>>>>>>
~~~~~~~~~~~~~~~~~~~~~~~~~~~~~~~~~~~~~~~~~~~~~~~~~~~~~~~~~~~~~~~~~~~~~~~~~~~~~~~~
   iter  |      energy (Eh)       | rms gradient |  commutator  |   dE (Eh)
MG BCs: +ve charge blocks (gridpoints):     25105 (   17181694).
MG BCs: -ve charge blocks (gridpoints):      8367 (    1073471).
MG BCs:     Elided blocks (gridpoints):    184940 (  187964660).
MG BCs: Computational effort saved:  99.9838%.
MG BCs: Charge after coarse-graining:           -9.0006943.
MG DL_MG: Calling solver with defect correction order = 8
MG DL_MG: Solver finished
MG Hartree energy from (\int phi*rho dr):              1244.088570
MG Hartree energy from (\int eps (grad phi)^2 dr):     1243.441446
MG Discrepancy due to finite box and discretization:     -0.647124 (  -0.05202%)
MG Correction to account for finite box:                  0.464962
MG Remaining discrepancy, due to discretization:         -0.182162 (  -0.01464%)
      ideal mu1:      -0.707218341837
             Q0:  -11641.382635189570
             G0:      -9.783219983874
   RMS gradient:       0.000480832272
MG BCs: +ve charge blocks (gridpoints):     25176 (   17196209).
MG BCs: -ve charge blocks (gridpoints):      8359 (    1070058).
MG BCs:     Elided blocks (gridpoints):    184869 (  187953558).
MG BCs: Computational effort saved:  99.9837%.
MG BCs: Charge after coarse-graining:           -9.0006901.
MG DL_MG: Calling solver with defect correction order = 8
MG DL_MG: Solver finished
MG Hartree energy from (\int phi*rho dr):              1258.609930
MG Hartree energy from (\int eps (grad phi)^2 dr):     1257.957781
MG Discrepancy due to finite box and discretization:     -0.652149 (  -0.05182%)
MG Correction to account for finite box:                  0.464270
MG Remaining discrepancy, due to discretization:         -0.187879 (  -0.01493%)
     Trial step:       0.686205937429
             Q1:  -11641.118277242058
 Quadratic coef:       6.977661587618
 Linear coef   :      -6.713303640106
           Qmin:  -11642.997375500430
Quadratic minimum step length (  0.330104058484) accepted
    Initial Ne1:    7191.99959192
      Final Ne1:    7192.00000000

=================== Penalty functional idempotency correction ==================
 RMS occupancy error at iteration   1:  0.000353 (step -0.4986 Ne1=   7192.0000)
 RMS occupancy error at iteration   2:  0.000000 (step -0.5000 Ne1=   7192.0000)
            Final RMS occupancy error   :  0.000000 (Ne1=   7192.0000)
               Final occupancy bounds   : [  0.0000,  1.0000]
================================================================================

    1        -1.164138263519E+04     4.8083E-04     4.3490E-04
MG BCs: +ve charge blocks (gridpoints):     25146 (   17188924).
MG BCs: -ve charge blocks (gridpoints):      8363 (    1071751).
MG BCs:     Elided blocks (gridpoints):    184899 (  187959150).
MG BCs: Computational effort saved:  99.9838%.
MG BCs: Charge after coarse-graining:           -9.0006922.
MG DL_MG: Calling solver with defect correction order = 8
MG DL_MG: Solver finished
MG Hartree energy from (\int phi*rho dr):              1250.206482
MG Hartree energy from (\int eps (grad phi)^2 dr):     1249.557030
MG Discrepancy due to finite box and discretization:     -0.649452 (  -0.05195%)
MG Correction to account for finite box:                  0.464609
MG Remaining discrepancy, due to discretization:         -0.184843 (  -0.01479%)
      ideal mu1:      -0.714448707690
             Q0:  -11642.975059783435
             G0:      -1.052961485715
   RMS gradient:       0.000158288811
MG BCs: +ve charge blocks (gridpoints):     25144 (   17188164).
MG BCs: -ve charge blocks (gridpoints):      8362 (    1072713).
MG BCs:     Elided blocks (gridpoints):    184901 (  187958948).
MG BCs: Computational effort saved:  99.9838%.
MG BCs: Charge after coarse-graining:           -9.0006921.
MG DL_MG: Calling solver with defect correction order = 8
MG DL_MG: Solver finished
MG Hartree energy from (\int phi*rho dr):              1251.131483
MG Hartree energy from (\int eps (grad phi)^2 dr):     1250.481689
MG Discrepancy due to finite box and discretization:     -0.649794 (  -0.05194%)
MG Correction to account for finite box:                  0.464522
MG Remaining discrepancy, due to discretization:         -0.185272 (  -0.01481%)
     Trial step:       0.475940505632
             Q1:  -11643.205578792724
 Quadratic coef:       0.270628012633
 Linear coef   :      -0.501147021922
           Qmin:  -11643.207064902877
Quadratic minimum step length (  0.440671615419) accepted
    Initial Ne1:    7191.99994095
      Final Ne1:    7192.00000000

=================== Penalty functional idempotency correction ==================
 RMS occupancy error at iteration   1:  0.000172 (step -0.4986 Ne1=   7192.0000)
 RMS occupancy error at iteration   2:  0.000001 (step -0.5000 Ne1=   7192.0000)
            Final RMS occupancy error   :  0.000000 (Ne1=   7192.0000)
               Final occupancy bounds   : [  0.0000,  1.0000]
================================================================================

    2        -1.164297505978E+04     1.5829E-04     1.4317E-04    -1.5924E+00
MG BCs: +ve charge blocks (gridpoints):     25144 (   17188241).
MG BCs: -ve charge blocks (gridpoints):      8362 (    1072610).
MG BCs:     Elided blocks (gridpoints):    184901 (  187958974).
MG BCs: Computational effort saved:  99.9838%.
MG BCs: Charge after coarse-graining:           -9.0006922.
MG DL_MG: Calling solver with defect correction order = 8
MG DL_MG: Solver finished
MG Hartree energy from (\int phi*rho dr):              1251.063053
MG Hartree energy from (\int eps (grad phi)^2 dr):     1250.413286
MG Discrepancy due to finite box and discretization:     -0.649767 (  -0.05194%)
MG Correction to account for finite box:                  0.464528
MG Remaining discrepancy, due to discretization:         -0.185239 (  -0.01481%)
      ideal mu1:      -0.715280673727
             Q0:  -11643.207567769568
             G0:      -0.188904079206
   RMS gradient:       0.000066741770
MG BCs: +ve charge blocks (gridpoints):     25144 (   17187369).
MG BCs: -ve charge blocks (gridpoints):      8365 (    1073066).
MG BCs:     Elided blocks (gridpoints):    184901 (  187959390).
MG BCs: Computational effort saved:  99.9838%.
MG BCs: Charge after coarse-graining:           -9.0006922.
MG DL_MG: Calling solver with defect correction order = 8
MG DL_MG: Solver finished
MG Hartree energy from (\int phi*rho dr):              1250.471225
MG Hartree energy from (\int eps (grad phi)^2 dr):     1249.821598
MG Discrepancy due to finite box and discretization:     -0.649626 (  -0.05195%)
MG Correction to account for finite box:                  0.464409
MG Remaining discrepancy, due to discretization:         -0.185218 (  -0.01481%)
     Trial step:       0.457966670687
             Q1:  -11643.268824201194
 Quadratic coef:       0.025255340608
 Linear coef   :      -0.086511772233
           Qmin:  -11643.281653948517
Quadratic minimum step length (  0.784378815548) accepted
    Initial Ne1:    7191.99998129
      Final Ne1:    7192.00000000

=================== Penalty functional idempotency correction ==================
 RMS occupancy error at iteration   1:  0.000277 (step -0.4836 Ne1=   7192.0000)
 RMS occupancy error at iteration   2:  0.000004 (step -0.5000 Ne1=   7192.0000)
            Final RMS occupancy error   :  0.000000 (Ne1=   7192.0000)
               Final occupancy bounds   : [  0.0000,  1.0000]
================================================================================

    3        -1.164320756777E+04     6.6742E-05     6.0366E-05    -2.3251E-01
MG BCs: +ve charge blocks (gridpoints):     25146 (   17186809).
MG BCs: -ve charge blocks (gridpoints):      8367 (    1073377).
MG BCs:     Elided blocks (gridpoints):    184899 (  187959639).
MG BCs: Computational effort saved:  99.9837%.
MG BCs: Charge after coarse-graining:           -9.0006922.
MG DL_MG: Calling solver with defect correction order = 8
MG DL_MG: Solver finished
MG Hartree energy from (\int phi*rho dr):              1250.049148
MG Hartree energy from (\int eps (grad phi)^2 dr):     1249.399623
MG Discrepancy due to finite box and discretization:     -0.649525 (  -0.05196%)
MG Correction to account for finite box:                  0.464321
MG Remaining discrepancy, due to discretization:         -0.185204 (  -0.01482%)
      ideal mu1:      -0.713944894924
             Q0:  -11643.281532965018
             G0:      -0.098179175054
   RMS gradient:       0.000048183895
MG BCs: +ve charge blocks (gridpoints):     25145 (   17186811).
MG BCs: -ve charge blocks (gridpoints):      8368 (    1073327).
MG BCs:     Elided blocks (gridpoints):    184900 (  187959687).
MG BCs: Computational effort saved:  99.9837%.
MG BCs: Charge after coarse-graining:           -9.0006922.
MG DL_MG: Calling solver with defect correction order = 8
MG DL_MG: Solver finished
MG Hartree energy from (\int phi*rho dr):              1250.073128
MG Hartree energy from (\int eps (grad phi)^2 dr):     1249.423899
MG Discrepancy due to finite box and discretization:     -0.649229 (  -0.05194%)
MG Correction to account for finite box:                  0.464177
MG Remaining discrepancy, due to discretization:         -0.185052 (  -0.01480%)
     Trial step:       0.599349109213
             Q1:  -11643.320556832943
 Quadratic coef:       0.019819733187
 Linear coef   :      -0.058843601112
           Qmin:  -11643.325208747119
Quadratic minimum step length (  0.889715809425) accepted
    Initial Ne1:    7191.99998664
      Final Ne1:    7192.00000000

=================== Penalty functional idempotency correction ==================
 RMS occupancy error at iteration   1:  0.000753 (step -0.4522 Ne1=   7192.0000)
 RMS occupancy error at iteration   2:  0.000018 (step -0.4993 Ne1=   7192.0000)
            Final RMS occupancy error   :  0.000000 (Ne1=   7192.0000)
               Final occupancy bounds   : [ -0.0000,  1.0000]
================================================================================

    4        -1.164328153297E+04     4.8184E-05     4.3581E-05    -7.3965E-02
MG BCs: +ve charge blocks (gridpoints):     25144 (   17186883).
MG BCs: -ve charge blocks (gridpoints):      8367 (    1073264).
MG BCs:     Elided blocks (gridpoints):    184901 (  187959678).
MG BCs: Computational effort saved:  99.9837%.
MG BCs: Charge after coarse-graining:           -9.0006922.
MG DL_MG: Calling solver with defect correction order = 8
MG DL_MG: Solver finished
MG Hartree energy from (\int phi*rho dr):              1250.087853
MG Hartree energy from (\int eps (grad phi)^2 dr):     1249.438769
MG Discrepancy due to finite box and discretization:     -0.649084 (  -0.05192%)
MG Correction to account for finite box:                  0.464106
MG Remaining discrepancy, due to discretization:         -0.184978 (  -0.01480%)
      ideal mu1:      -0.714259235252
             Q0:  -11643.324774951674
             G0:      -0.125345026947
   RMS gradient:       0.000054425686
MG BCs: +ve charge blocks (gridpoints):     25144 (   17188905).
MG BCs: -ve charge blocks (gridpoints):      8365 (    1072544).
MG BCs:     Elided blocks (gridpoints):    184901 (  187958376).
MG BCs: Computational effort saved:  99.9838%.
MG BCs: Charge after coarse-graining:           -9.0006919.
MG DL_MG: Calling solver with defect correction order = 8
MG DL_MG: Solver finished
MG Hartree energy from (\int phi*rho dr):              1251.339790
MG Hartree energy from (\int eps (grad phi)^2 dr):     1250.691252
MG Discrepancy due to finite box and discretization:     -0.648538 (  -0.05183%)
MG Correction to account for finite box:                  0.463670
MG Remaining discrepancy, due to discretization:         -0.184869 (  -0.01477%)
     Trial step:       0.730239945382
             Q1:  -11643.374066339573
 Quadratic coef:       0.042240557732
 Linear coef   :      -0.091531945631
           Qmin:  -11643.374360572230
Quadratic minimum step length (  0.791186084743) accepted
    Initial Ne1:    7192.00028384
      Final Ne1:    7192.00000000

=================== Penalty functional idempotency correction ==================
 RMS occupancy error at iteration   1:  0.002487 (step -0.3737 Ne1=   7192.0000)
 RMS occupancy error at iteration   2:  0.000137 (step -0.4927 Ne1=   7192.0000)
 RMS occupancy error at iteration   3:  0.000002 (step -0.5000 Ne1=   7192.0000)
            Final RMS occupancy error   :  0.000000 (Ne1=   7192.0000)
               Final occupancy bounds   : [  0.0000,  1.0000]
================================================================================

    5        -1.164332477495E+04     5.4426E-05     4.9227E-05    -4.3242E-02
MG BCs: +ve charge blocks (gridpoints):     25145 (   17189064).
MG BCs: -ve charge blocks (gridpoints):      8364 (    1072492).
MG BCs:     Elided blocks (gridpoints):    184900 (  187958269).
MG BCs: Computational effort saved:  99.9838%.
MG BCs: Charge after coarse-graining:           -9.0006918.
MG DL_MG: Calling solver with defect correction order = 8
MG DL_MG: Solver finished
MG Hartree energy from (\int phi*rho dr):              1251.447359
MG Hartree energy from (\int eps (grad phi)^2 dr):     1250.798848
MG Discrepancy due to finite box and discretization:     -0.648511 (  -0.05182%)
MG Correction to account for finite box:                  0.463653
MG Remaining discrepancy, due to discretization:         -0.184858 (  -0.01477%)
      ideal mu1:      -0.715784559942
             Q0:  -11643.376530280919
             G0:      -0.119643515184
   RMS gradient:       0.000050549194
MG BCs: +ve charge blocks (gridpoints):     25145 (   17189355).
MG BCs: -ve charge blocks (gridpoints):      8364 (    1072537).
MG BCs:     Elided blocks (gridpoints):    184900 (  187957933).
MG BCs: Computational effort saved:  99.9838%.
MG BCs: Charge after coarse-graining:           -9.0006918.
MG DL_MG: Calling solver with defect correction order = 8
MG DL_MG: Solver finished
MG Hartree energy from (\int phi*rho dr):              1251.230256
MG Hartree energy from (\int eps (grad phi)^2 dr):     1250.582096
MG Discrepancy due to finite box and discretization:     -0.648160 (  -0.05180%)
MG Correction to account for finite box:                  0.463241
MG Remaining discrepancy, due to discretization:         -0.184919 (  -0.01478%)
     Trial step:       0.760102416329
             Q1:  -11643.422691833810
 Quadratic coef:       0.044779772099
 Linear coef   :      -0.090941324990
           Qmin:  -11643.422702493299
Quadratic minimum step length (  0.771829752908) accepted
    Initial Ne1:    7192.00023868
      Final Ne1:    7192.00000000

=================== Penalty functional idempotency correction ==================
 RMS occupancy error at iteration   1:  0.003894 (step -0.3322 Ne1=   7192.0000)
 RMS occupancy error at iteration   2:  0.000262 (step -0.4872 Ne1=   7192.0000)
 RMS occupancy error at iteration   3:  0.000006 (step -0.5004 Ne1=   7192.0000)
            Final RMS occupancy error   :  0.000000 (Ne1=   7192.0000)
               Final occupancy bounds   : [  0.0000,  1.0000]
================================================================================

    6        -1.164337653028E+04     5.0549E-05     4.5721E-05    -5.1755E-02
MG BCs: +ve charge blocks (gridpoints):     25145 (   17189357).
MG BCs: -ve charge blocks (gridpoints):      8364 (    1072544).
MG BCs:     Elided blocks (gridpoints):    184900 (  187957924).
MG BCs: Computational effort saved:  99.9838%.
MG BCs: Charge after coarse-graining:           -9.0006918.
MG DL_MG: Calling solver with defect correction order = 8
MG DL_MG: Solver finished
MG Hartree energy from (\int phi*rho dr):              1251.225628
MG Hartree energy from (\int eps (grad phi)^2 dr):     1250.577437
MG Discrepancy due to finite box and discretization:     -0.648191 (  -0.05180%)
MG Correction to account for finite box:                  0.463276
MG Remaining discrepancy, due to discretization:         -0.184914 (  -0.01478%)
      ideal mu1:      -0.715683714289
             Q0:  -11643.431784390239
             G0:      -0.089386768096
   RMS gradient:       0.000045960984
MG BCs: +ve charge blocks (gridpoints):     25144 (   17186845).
MG BCs: -ve charge blocks (gridpoints):      8370 (    1073285).
MG BCs:     Elided blocks (gridpoints):    184901 (  187959695).
MG BCs: Computational effort saved:  99.9837%.
MG BCs: Charge after coarse-graining:           -9.0006923.
MG DL_MG: Calling solver with defect correction order = 8
MG DL_MG: Solver finished
MG Hartree energy from (\int phi*rho dr):              1249.924914
MG Hartree energy from (\int eps (grad phi)^2 dr):     1249.276696
MG Discrepancy due to finite box and discretization:     -0.648218 (  -0.05186%)
MG Correction to account for finite box:                  0.463265
MG Remaining discrepancy, due to discretization:         -0.184953 (  -0.01480%)
     Trial step:       0.765943640342
             Q1:  -11643.464268644340
 Quadratic coef:       0.035980972452
 Linear coef   :      -0.068465226554
           Qmin:  -11643.464353599238
Quadratic minimum step length (  0.728725508089) accepted
    Initial Ne1:    7191.99997838
      Final Ne1:    7192.00000000

=================== Penalty functional idempotency correction ==================
 RMS occupancy error at iteration   1:  0.000095 (step -0.4936 Ne1=   7192.0000)
 RMS occupancy error at iteration   2:  0.000000 (step -0.5000 Ne1=   7192.0000)
            Final RMS occupancy error   :  0.000000 (Ne1=   7192.0000)
               Final occupancy bounds   : [  0.0000,  1.0000]
================================================================================

    7        -1.164343178439E+04     4.5961E-05     4.1571E-05    -5.5254E-02
MG BCs: +ve charge blocks (gridpoints):     25144 (   17186976).
MG BCs: -ve charge blocks (gridpoints):      8370 (    1073242).
MG BCs:     Elided blocks (gridpoints):    184901 (  187959607).
MG BCs: Computational effort saved:  99.9837%.
MG BCs: Charge after coarse-graining:           -9.0006922.
MG DL_MG: Calling solver with defect correction order = 8
MG DL_MG: Solver finished
MG Hartree energy from (\int phi*rho dr):              1249.987679
MG Hartree energy from (\int eps (grad phi)^2 dr):     1249.339462
MG Discrepancy due to finite box and discretization:     -0.648217 (  -0.05186%)
MG Correction to account for finite box:                  0.463266
MG Remaining discrepancy, due to discretization:         -0.184951 (  -0.01480%)
      ideal mu1:      -0.714192740101
             Q0:  -11643.464361692895
             G0:      -0.094557424927
   RMS gradient:       0.000047317242
MG BCs: +ve charge blocks (gridpoints):     25142 (   17186865).
MG BCs: -ve charge blocks (gridpoints):      8371 (    1073182).
MG BCs:     Elided blocks (gridpoints):    184903 (  187959778).
MG BCs: Computational effort saved:  99.9837%.
MG BCs: Charge after coarse-graining:           -9.0006923.
MG DL_MG: Calling solver with defect correction order = 8
MG DL_MG: Solver finished
MG Hartree energy from (\int phi*rho dr):              1249.841701
MG Hartree energy from (\int eps (grad phi)^2 dr):     1249.193534
MG Discrepancy due to finite box and discretization:     -0.648167 (  -0.05186%)
MG Correction to account for finite box:                  0.463080
[...]
MG Remaining discrepancy, due to discretization:         -0.184032 (  -0.01523%)
     Trial step:       0.311600553280
             Q1:  -11678.498640080215
 Quadratic coef:       0.000000000604
 Linear coef   :      -0.000000001185
           Qmin:  -11678.498640080215
Quadratic minimum step length (  0.305762553356) accepted
    Initial Ne1:    7192.00000000
      Final Ne1:    7192.00000000

=================== Penalty functional idempotency correction ==================
 RMS occupancy error at iteration   1:  0.000000 (step -0.5000 Ne1=   7192.0000)
            Final RMS occupancy error   :  0.000000 (Ne1=   7192.0000)
               Final occupancy bounds   : [  0.0000,  1.0000]
================================================================================

    7        -1.167849864008E+04     9.4808E-09     8.5752E-09    -4.6566E-10

Reusing previously generated solute cavity.
MG BCs: +ve charge blocks (gridpoints):     29548 (   19515138).
MG BCs: -ve charge blocks (gridpoints):      8354 (    1042373).
MG BCs:     Elided blocks (gridpoints):    180497 (  185662314).
MG BCs: Computational effort saved:  99.9816%.
MG BCs: Charge after coarse-graining:           -9.0009677.
MG DL_MG: Calling solver with defect correction order = 8
MG DL_MG: Solver finished
MG Hartree energy from (\int phi*rho dr):              1208.077714
MG Hartree energy from (\int eps (grad phi)^2 dr):     1207.887359
MG Discrepancy due to finite box and discretization:     -0.190355 (  -0.01576%)
MG Correction to account for finite box:                  0.006322
MG Remaining discrepancy, due to discretization:         -0.184032 (  -0.01523%)
      ideal mu1:      -0.481791767583
             Q0:  -11678.498640080099
             G0:      -0.000000001685
   RMS gradient:       0.000000005303

Reusing previously generated solute cavity.
MG BCs: +ve charge blocks (gridpoints):     29548 (   19515138).
MG BCs: -ve charge blocks (gridpoints):      8354 (    1042373).
MG BCs:     Elided blocks (gridpoints):    180497 (  185662314).
MG BCs: Computational effort saved:  99.9816%.
MG BCs: Charge after coarse-graining:           -9.0009677.
MG DL_MG: Calling solver with defect correction order = 8
MG DL_MG: Solver finished
MG Hartree energy from (\int phi*rho dr):              1208.077715
MG Hartree energy from (\int eps (grad phi)^2 dr):     1207.887360
MG Discrepancy due to finite box and discretization:     -0.190355 (  -0.01576%)
MG Correction to account for finite box:                  0.006322
MG Remaining discrepancy, due to discretization:         -0.184032 (  -0.01523%)
     Trial step:       0.308667751471
             Q1:  -11678.498640079983
 Quadratic coef:       0.000000000637
 Linear coef   :      -0.000000000520
           Qmin:  -11678.498640080204
Quadratic minimum step length (  0.126080464894) accepted
    Initial Ne1:    7192.00000000
      Final Ne1:    7192.00000000

=================== Penalty functional idempotency correction ==================
 RMS occupancy error at iteration   1:  0.000000 (step -0.5000 Ne1=   7192.0000)
            Final RMS occupancy error   :  0.000000 (Ne1=   7192.0000)
               Final occupancy bounds   : [  0.0000,  1.0000]
================================================================================

    8        -1.167849864008E+04     5.3025E-09     4.7960E-09    -4.6566E-10

Reusing previously generated solute cavity.
MG BCs: +ve charge blocks (gridpoints):     29548 (   19515138).
MG BCs: -ve charge blocks (gridpoints):      8354 (    1042373).
MG BCs:     Elided blocks (gridpoints):    180497 (  185662314).
MG BCs: Computational effort saved:  99.9816%.
MG BCs: Charge after coarse-graining:           -9.0009677.
MG DL_MG: Calling solver with defect correction order = 8
MG DL_MG: Solver finished
MG Hartree energy from (\int phi*rho dr):              1208.077714
MG Hartree energy from (\int eps (grad phi)^2 dr):     1207.887360
MG Discrepancy due to finite box and discretization:     -0.190355 (  -0.01576%)
MG Correction to account for finite box:                  0.006322
MG Remaining discrepancy, due to discretization:         -0.184032 (  -0.01523%)
      ideal mu1:      -0.481791765730
             Q0:  -11678.498640079983
             G0:      -0.000000001863
   RMS gradient:       0.000000004535

Reusing previously generated solute cavity.
MG BCs: +ve charge blocks (gridpoints):     29548 (   19515138).
MG BCs: -ve charge blocks (gridpoints):      8354 (    1042373).
MG BCs:     Elided blocks (gridpoints):    180497 (  185662314).
MG BCs: Computational effort saved:  99.9816%.
MG BCs: Charge after coarse-graining:           -9.0009677.
MG DL_MG: Calling solver with defect correction order = 8
MG DL_MG: Solver finished
MG Hartree energy from (\int phi*rho dr):              1208.077712
MG Hartree energy from (\int eps (grad phi)^2 dr):     1207.887358
MG Discrepancy due to finite box and discretization:     -0.190355 (  -0.01576%)
MG Correction to account for finite box:                  0.006322
MG Remaining discrepancy, due to discretization:         -0.184032 (  -0.01523%)
     Trial step:       0.197273854332
             Q1:  -11678.498640079983
 Quadratic coef:       0.000000000367
 Linear coef   :      -0.000000000368
           Qmin:  -11678.498640080075
Quadratic minimum step length (  0.098673904300) accepted
    Initial Ne1:    7192.00000000
      Final Ne1:    7192.00000000

=================== Penalty functional idempotency correction ==================
 RMS occupancy error at iteration   1:  0.000000 (step -0.5000 Ne1=   7192.0000)
            Final RMS occupancy error   :  0.000000 (Ne1=   7192.0000)
               Final occupancy bounds   : [  0.0000,  1.0000]
================================================================================

    9        -1.167849864008E+04     4.5351E-09     4.1019E-09     1.1642E-10

Reusing previously generated solute cavity.
MG BCs: +ve charge blocks (gridpoints):     29548 (   19515138).
MG BCs: -ve charge blocks (gridpoints):      8354 (    1042373).
MG BCs:     Elided blocks (gridpoints):    180497 (  185662314).
MG BCs: Computational effort saved:  99.9816%.
MG BCs: Charge after coarse-graining:           -9.0009677.
MG DL_MG: Calling solver with defect correction order = 8
MG DL_MG: Solver finished
MG Hartree energy from (\int phi*rho dr):              1208.077713
MG Hartree energy from (\int eps (grad phi)^2 dr):     1207.887359
MG Discrepancy due to finite box and discretization:     -0.190355 (  -0.01576%)
MG Correction to account for finite box:                  0.006322
MG Remaining discrepancy, due to discretization:         -0.184032 (  -0.01523%)
      ideal mu1:      -0.481791761989
   10        -1.167849864008E+04     3.7262E-09     3.3703E-09    -1.1642E-10
Finished density kernel iterations (  10)

Writing density kernel to file "host_24041.dkn" ... done


>>> Density kernel optimised for the current NGWF basis:
     ~~~~~~~~~~~~~~~~~~~~~~~~~~~~~~~~~~~~~~~~~~~~~~~~~~~~~~~~~~~
     Total energy                =  -1.16784986400801E+04  Eh
     Estimated bandgap           =   8.1611E-02  Eh
     RMS occupancy error         =   3.7046E-16
     [H,K] commutator            =   3.3703E-09
     Occupancy bounds            = [  0.000:  1.000]
     ~~~~~~~~~~~~~~~~~~~~~~~~~~~~~~~~~~~~~~~~~~~~~~~~~~~~~~~~~~~




################################################################################
########################### NGWF CG iteration  005 #############################
################################################################################
****** Reciprocal space K.E. preconditioning with k_zero =  3.5000 a0^-1 *******

>>> Checking for convergence of NGWFs: 
           ........................................................
           |         *** NGWF optimisation converged ***          |
           | RMS NGWF gradient =    0.00000095187649              |
           | Criteria satisfied:                                  |
           | -> RMS NGWF gradient lower than set threshold.       |
           ========================================================

Reusing previously generated solute cavity.
MG BCs: +ve charge blocks (gridpoints):     29548 (   19515138).
MG BCs: -ve charge blocks (gridpoints):      8354 (    1042373).
MG BCs:     Elided blocks (gridpoints):    180497 (  185662314).
MG BCs: Computational effort saved:  99.9816%.
MG BCs: Charge after coarse-graining:           -9.0009677.
MG DL_MG: Calling solver with defect correction order = 8
MG DL_MG: Solver finished
MG Hartree energy from (\int phi*rho dr):              1208.077713
MG Hartree energy from (\int eps (grad phi)^2 dr):     1207.887359
MG Discrepancy due to finite box and discretization:     -0.190355 (  -0.01576%)
MG Correction to account for finite box:                  0.006322
MG Remaining discrepancy, due to discretization:         -0.184032 (  -0.01523%)

================================================================================
           ---------------- ENERGY COMPONENTS (Eh) ----------------
           | Kinetic                    :     8531.43086726409092 |
           | Pseudo. (local,OBC,corr'd) :    -5051.54753158165568 |
           | Pseudopotential (non-local):     1403.37068411722066 |
           | Hartree (molecular)        :     1208.07771342331421 |
           | Exchange-correlation       :    -3358.24089196060868 |
           | Ion-ion (open BC)          :   814870.63501579337753 |
           | Dispersion Correction      :       -3.21072562839462 |
           | Smeared ion non-self corr. :  -814822.51972771924920 |
           | Smeared ion self corr.     :   -14457.16956389741972 |
           | Solvent cavitation energy  :        2.40334469204943 |
           | Solute-solvent dis-rep en. :       -1.72782458273164 |
           | Total                      :   -11678.49864007999895 |
           --------------------------------------------------------
           ------ LOCAL ENERGY COMPONENTS FROM MATRIX TRACES ------
           | Pseudopotential (local)    :    -5051.54753158166386 |
           | Hartree                    :    -1993.07814766994443 |
           --------------------------------------------------------
           Integrated density           :     7191.99999999886859
           Integrated density tr(KS)    :     7192.00000000000000
================================================================================


                        <<<<< CALCULATION SUMMARY >>>>>                         
|ITER|    RMS GRADIENT   |     TOTAL ENERGY    |   step   |     Epredicted              
   0     0.00004311979870 -11678.42431138979737   0.641597 -11678.48885013909785        
   1     0.00000919265571 -11678.49824107624590   0.071841 -11678.49856951990296        
   2     0.00000429898129 -11678.49862231104635   0.014841 -11678.49863714994535        
   3     0.00000202631677 -11678.49863920442294   0.003349 -11678.49863994830230        
   4     0.00000095187649 -11678.49864008009899  <-- CG                                 

=================== Finished the calculation in solvent ========================
= Adjusting the following parameters: 
= read_denskern: F
= read_tightbox_ngwfs: F
= maxit_pen: 0 (restored to user-specified value)
= restart read filename prefix: ""
= restart write filename prefix: ""
================================================================================

================================================================================
IS: Calculation in solvent completed (NGWFs converged).      

Individual components of total energy in solvent:     hartree           kcal/mol
- Usual non-electrostatic DFT terms:    -12887.25187361273129    -8086872.469884
- Electrostatic fixed charge energy:      1208.07771342331421      758080.194131
- Apolar cavitation energy:                  2.40334469204943        1508.121531
- Apolar dispersion-repulsion energy:       -1.72782458273164       -1084.226272
 -------------------------------------------------------------------------------
- Total energy in solvent:              -11678.49864008009899    -7328368.380494

Components of total energy in solvent:                hartree           kcal/mol
- Usual non-electrostatic DFT terms:    -12887.25187361273129    -8086872.469884
- Electrostatic energy:                   1208.07771342331421      758080.194131
- Apolar energy terms:                       0.67552010931779         423.895259
 -------------------------------------------------------------------------------
- Total energy in solvent:              -11678.49864008009899    -7328368.380494

Calculation of free energy of solvation:              hartree           kcal/mol
- Total energy in solvent:         (+)  -11678.49864008009899    -7328368.380494
- Total energy in vacuum:          (-)  -11674.39225159015041    -7325791.582868
 -------------------------------------------------------------------------------
- Total free energy of solvation:           -4.10638848994859       -2576.797626

Components of polar term in f.e. of solvation:        hartree           kcal/mol
- Electrostatic:                            -4.76870143496535       -2992.405264
- Change in nonelectrostatic DFT terms:     -0.01320716430200          -8.287621
 -------------------------------------------------------------------------------
- Polar term in f.e. of solvation:          -4.78190859926735       -3000.692885

Components of free energy of solvation:               hartree           kcal/mol
- Polar term in f.e. of solvation: (+)      -4.78190859926735       -3000.692885
- Apolar (cavitation, dis., rep.): (+)       0.67552010931779         423.895259
 -------------------------------------------------------------------------------
- Total free energy of solvation:           -4.10638848994956       -2576.797626
================================================================================


------------------------------ TIMING INFORMATION ------------------------------
AVERAGE TIME:   32868.481s on     60 node(s)                                    
TOTAL TIME:     32868.482s on     60 node(s)                                    
================= AVERAGE TIMINGS FROM ALL NODES (CUMULATIVE) ==================
|| TAG                                    #calls    cpu time   %total  Gflops ||
|| work_imbalance                       :     1        0.00s   0.000%  ------ ||
|| sparse_set_to_garbage                :   176        0.03s   0.000%  ------ ||
|| parallel_prepare_fd_halos_request    :  1947        0.03s   0.000%  ------ ||
|| ngwfs_initialise_from_radial         :     1        0.10s   0.000%  ------ ||
|| basis_extract_function_from_box      :  3577        0.16s   0.000%  ------ ||
|| parallel_prepare_fd_halos_satisfy    :  1947        0.67s   0.002%  ------ ||
|| parallel_prepare_fd_halos_alloc      :  1947        1.46s   0.004%  ------ ||
|| pseudopotentials_nonlocal_mat        :    30        2.21s   0.007%  ------ ||
|| density_init_guess_real              :     1        7.90s   0.024%  ------ ||
|| openbc_locps_radial                  :     1        8.02s   0.024%  ------ ||
|| restart_ngwfs_tightbox_input         :     1        8.18s   0.025%  ------ ||
|| restart_kernel_read                  :     1        9.09s   0.028%  ------ ||
|| parallel_prepare_fd_halos_comms_imbal:  1947       12.19s   0.037%  ------ ||
|| parallel_prepare_fd_halos_clear      :  1947       20.15s   0.061%  ------ ||
|| sparse_init                          :     2       22.91s   0.070%  ------ ||
|| projectors_func_ovlp_box             :    30       27.11s   0.082%  ------ ||
|| parallel_prepare_fd_halos_comms_wait :  1947       28.57s   0.087%  ------ ||
|| function_ops_brappd_ketppd           :    30       30.06s   0.091%  ------ ||
|| projectors_init_fftbox_recip         :   142       32.06s   0.098%  ------ ||
|| palser_mano_kernel_optimise          :     1       33.95s   0.103%  ------ ||
|| basis_copy_function_to_box           : 58111       41.34s   0.126%  ------ ||
|| ngwf_gradient_coeffs                 :    16       47.20s   0.144%  ------ ||
|| fourier_apply_box_pair               :  5101       52.64s   0.160% 561.065 ||
|| parallel_prepare_fd_halos            :  1947       63.09s   0.192%  ------ ||
|| pseudo_make_structure_factor         :     2       71.20s   0.217%  ------ ||
|| sparse_embed_hotelling_invert_embed  :    30       76.50s   0.233%  ------ ||
|| restart_kernel_write                 :    17      101.97s   0.310%  ------ ||
|| finite_difference_derivative         :  1947      146.95s   0.447%  ------ ||
|| projectors_gradient_batch            :   112      148.25s   0.451%  ------ ||
|| integrals_kinetic                    :    30      150.10s   0.457%  ------ ||
|| basis_dot_function_with_box          : 8.680M     173.69s   0.528%  ------ ||
|| fourier_apply_cell_backward          :  1299      196.77s   0.599%  96.728 ||
|| sparse_trace                         :  5573      213.72s   0.650%  ------ ||
|| fourier_apply_cell_forward           :  1297      254.02s   0.773%  74.813 ||
|| kernel_purify                        :   495      289.45s   0.881%  ------ ||
|| openbc_locps_on_grid                 :     2      290.82s   0.885%  ------ ||
|| basis_add_function_to_box            : 18.09M     420.04s   1.278%  ------ ||
|| lnv_gradient_norm                    :   160      422.79s   1.286%  ------ ||
|| hamiltonian_energy_components        :     4      495.08s   1.506%  ------ ||
|| xc_energy_potential                  :   324      519.55s   1.581%  ------ ||
|| kernel_fix                           :   160      571.35s   1.738%  ------ ||
|| ngwf_gradient_build_batch            :   112      759.08s   2.309%  ------ ||
|| integrals_locpot_mat_els_batch       :  1183      780.61s   2.375%  ------ ||
|| ngwf_gradient_batch                  :   112     1078.27s   3.281%  ------ ||
|| density_batch_row_sums               :  2261     1106.47s   3.366%  ------ ||
|| ngwf_gradient_lnv                    :    16     1228.25s   3.737%  ------ ||
|| cell_grid_deposit_box_real           : 37197     1340.07s   4.077%  ------ ||
|| cell_grid_extract_box_real           : 42042     1582.80s   4.816%  ------ ||
|| restart_ngwfs_tightbox_output        :    14     1700.38s   5.173%  ------ ||
|| sparse_product                       :  6817     1838.35s   5.593%  ------ ||
|| density_fftbox_deposit_to_cell       : 35207     1976.06s   6.012%  ------ ||
|| potential_apply_to_ngwf_batch        :  1183     3589.17s  10.920%  ------ ||
|| density_fftbox_interpolate_multiply  : 35207     3663.19s  11.145%  ------ ||
|| integrals_locpot_dbl_grid            :   169     4389.60s  13.355%  ------ ||
|| fourier_apply_box                    : 121.3k    4508.23s  13.716% 755.168 ||
|| multigrid_prepare_bound_cond         :   324     4772.06s  14.519%  ------ ||
|| density_batch_interp_deposit         :  2261     6531.36s  19.871%  ------ ||
|| density_on_dbl_grid                  :   323     8055.68s  24.509%  ------ ||
|| dl_mg_solver_calls                   :   324     8218.92s  25.005%  ------ ||
|| multigrid_calculate_hartree          :   324    13197.65s  40.153%  ------ ||
|| hamiltonian_lhxc_calculate           :   319    21729.08s  66.109%  ------ ||
|| lnv_denskernel_optimise_cg           :    16    27023.48s  82.217%  ------ ||
|| ngwf_cg_optimise                     :     2    31793.78s  96.730%  ------ ||
|| total_time                           :     1    32868.48s 100.000%  ------ ||
================================================================================
Overhead of generating timer report: 
- 0 ms averaging over threads,
- 15 ms ensuring consistency across MPI ranks,
- 0 ms printing in order.

Job completed: 25-03-2020 21:50 (-0000)

Application 39951075 network throttled: 10 nodes throttled, 00:06:40 node-seconds
Application 39951075 resources: utime ~6742712s, stime ~227117s, Rss ~3688680, inblocks ~344845609, outblocks ~65861743
