 +---------------------------------------------------------------+
 |                                                               |
 |        ####### #     # ####### ####### ####### ######         |
 |        #     # ##    # #          #    #       #     #        |
 |        #     # # #   # #          #    #       #     #        |
 |        #     # #  #  # #####      #    #####   ######         |
 |        #     # #   # # #          #    #       #              |
 |        #     # #    ## #          #    #       #              |
 |        ####### #     # #######    #    ####### #              |
 |                                                               |
 |        Linear-Scaling Ab Initio Total Energy Program          |
 |                                                               |
 |          Release for academic collaborators of ODG            |
 |                                             Version 5.3.2.6.  |
 |                                                               |
 +---------------------------------------------------------------+
 |                                                               |
 |  Authors:                                                     |
 |  Jacek Dziedzic, Peter D. Haynes, Nicholas D. M. Hine,        |
 |  Arash. A. Mostofi, Mike C. Payne and Chris-Kriton Skylaris   |
 |                                                               |
 |  Contributors:                                                |
 |  J. Aarons, L. Andrinopoulos, P. W. Avraam, R. A. Bell,       |
 |  A. Bhandari, G. A. Bramley, R. J. Charlton, S. J. Clark,     |
 |  R. J. Clements, G. C. Constantinescu, F. Corsetti,           |
 |  N. Corsini, O. Dieguez, S. M. M. Dubois, K. K. B. Duff,      |
 |  J. M. Escartin, A. Greco, H. Helal, Q. O. Hill, L. P. Lee,   |
 |  J.-H. Li, E. B. Linscott, G. Moynihan, D. D. O`Regan,        |
 |  O. K. Okan, M. J. S. Phipps, C. J. Pickard,                  |
 |  J. C. A. Prentice, M. I. J. Probert, L. E. Ratcliff,         |
 |  M. Robinson, A. Ruiz Serrano, J. S. Spencer, E. W. Tait,     |
 |  G. Teobaldi, D. Turban, V. Vitale, K. A. Wilkinson,          |
 |  C. Weber, J. C. Womack, N. Yeung and T. J. Zuehlsdorff       |
 |                                                               |
 |                                   Copyright (c) 2004-2019     |
 |                                                               |
 |  Please cite:                                                 |
 |  "Introducing ONETEP: Linear-scaling density functional       |
 |   simulations on parallel computers".                         |
 |   C.-K. Skylaris, P. D. Haynes, A. A. Mostofi, M. C. Payne.   |
 |   J. Chem. Phys. 122 084119 (2005).                           |
 |                                                               |
 |          in all publications arising from your use of ONETEP. |
 |                                                               |
 +---------------------------------------------------------------+
 |                                                               |
 |   ONETEP is based on developments described in the following  |
 |   publications:                                               |
 |                                                               |
 |  "Nonorthogonal generalized Wannier function pseudopotential  |
 |   plane-wave method".                                         |
 |   C.-K. Skylaris, A. A. Mostofi, P. D. Haynes, O. Dieguez,    |
 |   M. C. Payne.                                                |
 |   Phys. Rev. B 66 035119 (2002).                              |
 |                                                               |
 |  "Preconditioned iterative minimization for linear-scaling    |
 |   electronic structure calculations".                         |
 |   A. A. Mostofi, P. D. Haynes, C.-K. Skylaris, M. C. Payne.   |
 |   J. Chem. Phys. 119(17), pp.8842-8848 (2003).                |
 |                                                               |
 |  "Total-energy calculations on a real space grid with         |
 |   localized functions and a plane-wave basis".                |
 |   A. A. Mostofi, C.-K. Skylaris, P. D. Haynes, M. C. Payne.   |
 |   Comput. Phys. Commun. 147, pp.788-802 (2002).               |
 |                                                               |
 |  "Accurate kinetic energy evaluation in electronic structure  |
 |   calculations with localized functions on real space grids"  |
 |   C.-K. Skylaris, A. A. Mostofi, P. D. Haynes, C. J. Pickard, |
 |   M. C. Payne.                                                |
 |   Comput. Phys. Commun. 140, pp.315-322 (2001).               |
 |                                                               |
 |  "Accurate ionic forces and geometry optimization in linear-  |
 |   scaling density-functional theory with local orbitals"      |
 |   N. D. M. Hine, M. Robinson, P. D. Haynes, C.-K. Skylaris,   |
 |   M. C. Payne, and A. A. Mostofi.                             |
 |   Phys. Rev. B 83 195102 (2011).                              |
 |                                                               |
 +---------------------------------------------------------------+

Job started: 30-04-2020 01:52 (+0100)
 
Reading parameters from file "host_21381.dat" ...... done

If your calculation crashes here, before "Checking processes and threads..."
is displayed, then your stack size is insufficient.
If so, use "ulimit -s unlimited" at runtime.
You can disable this check with "check_stack_size F".

Checking processes and threads...
   Determining the default number of threads...
      No default threads set at compilation time: defaulting to 1.
      OpenMP library call suggests 4 threads.
      Hybrid MPI-OpenMP compilation detected.
      Number of MPI processes > 1.
      OMP_NUM_THREADS environment variable present and
      its value matches the one obtained from the OpenMP library call.
      Using this value as default.
      Default threads: 4
      Default applies to threads_max and threads_num_fftboxes.
      Settings in the input file override this default.
   ... done

   Running with 40 MPI processes.
   There are 10 MPI processes running on the same node as the root process.
   Each MPI process is using: 
               1 threads for simulation cell FFTs.
               1 threads for parallel FFT box operations.
               4 threads for loops over batched FFT box operations.
               4 threads in other parallel regions.
... done

Basic input checks...... done

Reading geometry and species blocks from file "host_21381.dat" ...
  <species_atomic_set> block not found: NGWF initialisation set to SOLVE
IS: Dielectric excluded regions:
    - NONE.
    
  Number of PPD points along a3 set to 1.  This is 
  the default value, it may have been provided also in the input file.
... done
 Writing xyz coordinates to file "host_21381.xyz" ... done


--------------------------------------------------------------------------------
---------------------------------- INPUT FILE ----------------------------------
--------------------------------------------------------------------------------

cutoff_energy       : 800 eV                                                    
xc_functional PBE                                                               
task SINGLEPOINT                                                                
write_xyz true                                                                  
output_detail VERBOSE                                                           
ngwf_threshold_orig : 0.000002                                                  
kernel_cutoff       : 1000                                                      
k_zero              : 3.5                                                       
elec_cg_max 0                                                                   
occ_mix 1.0                                                                     
dispersion 1                                                                    
maxit_ngwf_cg 40                                                                
minit_lnv 10                                                                    
maxit_lnv 10                                                                    
write_denskern T                                                                
write_tightbox_ngwfs T                                                          
charge 9                                                                        
is_implicit_solvent T                                                           
is_auto_solvation T                                                             
is_include_apolar T                                                             
is_smeared_ion_rep T                                                            
is_solvent_surf_tension 4.7624E-5 Ha/bohr**2                                    
is_apolar_scaling_factor 0.281075                                               
is_solvation_beta 1.3                                                           
is_density_threshold 0.00035                                                    
is_bulk_permittivity 78.54                                                      
is_dielectric_model fix_initial                                                 
is_smeared_ion_width 0.8                                                        
mg_defco_fd_order 8                                                             
is_bc_coarseness 10                                                             
is_bc_surface_coarseness 1                                                      
fine_grid_scale 2.0                                                             
%block species                                                                  
N   N   7 4 8.0                                                                 
H   H   1 1 8.0                                                                 
C   C   6 4 8.0                                                                 
S   S  16 9 8.0                                                                 
O   O   8 4 8.0                                                                 
%endblock species                                                               
%block species_pot                                                              
N   N_00.recpot                                                                 
H   H_04.recpot                                                                 
C   C_01.recpot                                                                 
S   S_00.recpot                                                                 
O   O_02.recpot                                                                 
%endblock species_pot                                                           
%block lattice_cart                                                             
139.898   0.000   0.000                                                         
0.000 144.87   0.000                                                            
0.000   0.000   168.12                                                          
%endblock lattice_cart                                                          
%block positions_abs                                                            
     Hash =   000002364471320567018296
%endblock positions_abs                                                         

--------------------------------------------------------------------------------
-------------------------------- END INPUT FILE --------------------------------
--------------------------------------------------------------------------------


 
 ESDF WARNING(1): "kernelcutoff" (esdf_physical) has no units. Assume "bohr".
 ESDF WARNING(2): "kzero" (esdf_physical) has no units. Assume "1/bohr".
 ESDF WARNING(3
 ): "issmearedionwidth" (esdf_physical) has no units. Assume "bohr".
<<<<<<<<<<<<<<<<<<<<<<<<<<<<<<<<< Full system >>>>>>>>>>>>>>>>>>>>>>>>>>>>>>>>>>
<<<<<<<<<<<<<<<<<<<<<<<<< Pseudopotential information >>>>>>>>>>>>>>>>>>>>>>>>>>
File: N_00.recpot [ 2001 points up to Gmax=  52.9 (1/bohr)]
  Atomic number:  7;  ionic charge:  5.000000
    Shell 1: l = 0; rc = 1.48 bohr
File: H_04.recpot [ 2001 points up to Gmax=  52.9 (1/bohr)]
  Atomic number:  1;  ionic charge:  1.000000
    Local potential
File: C_01.recpot [ 2001 points up to Gmax=  52.9 (1/bohr)]
  Atomic number:  6;  ionic charge:  4.000000
    Shell 1: l = 0; rc = 1.48 bohr
File: S_00.recpot [ 2001 points up to Gmax=  52.9 (1/bohr)]
  Atomic number: 16;  ionic charge:  6.000000
    Shell 1: l = 0; rc = 1.90 bohr
    Shell 2: l = 2; rc = 1.84 bohr
File: O_02.recpot [ 2001 points up to Gmax=  52.9 (1/bohr)]
  Atomic number:  8;  ionic charge:  6.000000
    Shell 1: l = 0; rc = 1.31 bohr
<<<<<<<<<<<<<<<<<<<<<<<<<<<<<<<<<<<<<<<<>>>>>>>>>>>>>>>>>>>>>>>>>>>>>>>>>>>>>>>>

-------------------------- Atom counting information ---------------------------
Symbol    Natoms    Nngwfs    Nprojs
  N        236       944       236
  H       1311      1311         0
  C        810      3240       810
  S          6        54        36
  O        239       956       239
.......   ......    ......    ......
Totals:   2602      6505      1321
--------------------------------------------------------------------------------

=============================== PSINC grid sizes ===============================
                      Simulation cell:  275 x 286 x 336
                              FFT-box:   99 x  99 x  99
                                  PPD:    5 x  11 x   1
Grid space d1=  0.508720000000a0 (KE cutoff=  29.35259Eh = 798.72452eV)
Grid space d2=  0.506538461538a0 (KE cutoff=  29.60596Eh = 805.61916eV)
Grid space d3=  0.500357142857a0 (KE cutoff=  30.34197Eh = 825.64705eV)
================================================================================

********************* Fourier parallelisation information **********************
       Coarse grid (whole simulation cell) dimensions:    275   286   336
          Real-space ('12') slabs/node (min max mean):      8     9     8
         Recip-space ('23') slabs/node (min max mean):      3     4     3
********************************************************************************

********************* Fourier parallelisation information **********************
       Double grid (whole simulation cell) dimensions:    550   572   672
          Real-space ('12') slabs/node (min max mean):     16    17    16
         Recip-space ('23') slabs/node (min max mean):      6     7     6
********************************************************************************
ONETEP fine grid is 550 x 572 x 672 gridpoints, 139.8980 x 144.8700 x 168.1200 bohr.
FD multigrid is     545 x 569 x 665 gridpoints, 138.6262 x 144.1102 x 166.3688 bohr.


Calculating local pseudopotential in open BC on a radial grid ...
Discrepancy between calculated realspace psloc and -Z/x on [5a0,262.342a0]:
max |rel. diff| # avg |rel. diff| #  avg rel. diff #  f # pseudopotential file
 0.000258413739    0.000003708905   0.000000070960   56  'N_00.recpot'
 0.000398954828    0.000016185045  -0.000000074508   56  'H_04.recpot'
 0.000375346405    0.000017198923   0.000000144535   56  'C_01.recpot'
 0.000466850533    0.000020125278   0.000000461745   56  'S_00.recpot'
 0.000671508953    0.000026045986   0.000000155458   56  'O_02.recpot'
... done

Atom SCF Calculation for N  : Z (AE atom) =   7 : Z (PS atom) =   5
Config String:
Orbitals (num,occ):  2     2.00 3.00
Orbitals   (num,l):  2        0    1
Real-space Grid (nr,dr,rmax): 1203    0.0066555740    8.0000000000
Spherical Bessel Basis (nsws,lmax,cutoff):   47    1  176.3951722778
Confining potential (l,width,scale):  0    3.0000000000  100.0000000000
Confining potential (l,width,scale):  1    3.0000000000  100.0000000000
  1         -4.7312375307   -3.4155304497    7.0523828109   -1.9351020946
  2         -9.7309464766   -2.0532547791    8.2966052865   -2.2494486027
  3         -9.6627394379   -2.1124926340    8.2327997121   -2.2369778124
  4         -9.6814993499   -2.1215521045    8.2229805960   -2.2365178421
  5         -9.6843326483   -2.1250939529    8.2191374534   -2.2362718126
  6         -9.6859628709   -2.1267894855    8.2172963573   -2.2362066344
  7         -9.6867347035   -2.1276425665    8.2163697352   -2.2361903369
  8         -9.6870802100   -2.1280764625    8.2158983890   -2.2361891460
  9         -9.6872290423   -2.1282977424    8.2156580222   -2.2361920435
 10         -9.6872901988   -2.1284107021    8.2155353368   -2.2361953393
 11         -9.6873135296   -2.1284684031    8.2154726809   -2.2361979819
 12         -9.6873212476   -2.1284978948    8.2154406648   -2.2361998431
 13         -9.6873229586   -2.1285129774    8.2154242957   -2.2362010676
 14         -9.6873226456   -2.1285206957    8.2154159216   -2.2362018403
 15         -9.6873218534   -2.1285246479    8.2154116349   -2.2362023142
 16         -9.6873212599   -2.1285262679    8.2154098784   -2.2362025420
 17         -9.6873207834   -2.1285272564    8.2154088068   -2.2362026955
 18         -9.6873204210   -2.1285278597    8.2154081529   -2.2362027982
 19         -9.6873201550   -2.1285282280    8.2154077538   -2.2362028667
 20         -9.6873199645   -2.1285284529    8.2154075102   -2.2362029121
 21         -9.6873198305   -2.1285285903    8.2154073614   -2.2362029421
 22         -9.6873197377   -2.1285286742    8.2154072705   -2.2362029618
Atom SCF converged after  22 iterations to a total energy of     -9.68731974

Atom SCF Calculation for H  : Z (AE atom) =   1 : Z (PS atom) =   1
Config String:
Orbitals (num,occ):  1     1.00
Orbitals   (num,l):  1        0
Real-space Grid (nr,dr,rmax): 1203    0.0066555740    8.0000000000
Spherical Bessel Basis (nsws,lmax,cutoff):   47    0  176.3951722778
Confining potential (l,width,scale):  0    3.0000000000  100.0000000000
  1         -0.3194257691   -0.2393854593    0.2820953124   -0.2424203209
  2         -0.3951823392   -0.2377116493    0.2886404059   -0.2475147891
  3         -0.4317044583   -0.2352244387    0.2921333887   -0.2514046172
  4         -0.4470703708   -0.2341892222    0.2934391879   -0.2531009782
  5         -0.4532132900   -0.2338556667    0.2938388426   -0.2537313520
  6         -0.4556579251   -0.2337612552    0.2939448584   -0.2539550462
  7         -0.4566418315   -0.2337377355    0.2939680120   -0.2540342273
  8         -0.4570437922   -0.2337331116    0.2939708287   -0.2540627372
  9         -0.4572102946   -0.2337328328    0.2939698291   -0.2540732650
 10         -0.4572800424   -0.2337332404    0.2939687193   -0.2540772588
 11         -0.4573095100   -0.2337335791    0.2939680317   -0.2540788122
 12         -0.4573220379   -0.2337337762    0.2939676699   -0.2540794294
 13         -0.4573273880   -0.2337338775    0.2939674931   -0.2540796787
 14         -0.4573296803   -0.2337339266    0.2939674099   -0.2540797808
 15         -0.4573306647   -0.2337339495    0.2939673718   -0.2540798230
 16         -0.4573310882   -0.2337339601    0.2939673545   -0.2540798406
 17         -0.4573312706   -0.2337339649    0.2939673467   -0.2540798479
 18         -0.4573313493   -0.2337339670    0.2939673433   -0.2540798510
Atom SCF converged after  18 iterations to a total energy of     -0.45733135

Atom SCF Calculation for C  : Z (AE atom) =   6 : Z (PS atom) =   4
Config String:
Orbitals (num,occ):  2     2.00 2.00
Orbitals   (num,l):  2        0    1
Real-space Grid (nr,dr,rmax): 1203    0.0066555740    8.0000000000
Spherical Bessel Basis (nsws,lmax,cutoff):   47    1  176.3951722778
Confining potential (l,width,scale):  0    3.0000000000  100.0000000000
Confining potential (l,width,scale):  1    3.0000000000  100.0000000000
  1         -5.2976922011   -1.3069684169    4.5135249990   -1.4493313817
  2         -5.3721716256   -1.3429755895    4.4750154450   -1.4361613026
  3         -5.3809959565   -1.3617365618    4.4541655428   -1.4305930207
  4         -5.3918938866   -1.3667928461    4.4484735100   -1.4294652294
  5         -5.3956096428   -1.3688539142    4.4461376126   -1.4290734646
  6         -5.3968271862   -1.3696852393    4.4451910874   -1.4289366866
  7         -5.3972028401   -1.3700178062    4.4448112275   -1.4288900460
  8         -5.3973067903   -1.3701500158    4.4446598370   -1.4288749220
  9         -5.3973286940   -1.3702023868    4.4445997329   -1.4288704293
 10         -5.3973289850   -1.3702230869    4.4445759233   -1.4288693188
 11         -5.3973254264   -1.3702312560    4.4445665049   -1.4288691775
 12         -5.3973224003   -1.3702344755    4.4445627836   -1.4288692549
 13         -5.3973208708   -1.3702354890    4.4445616088   -1.4288693270
 14         -5.3973198783   -1.3702360102    4.4445610034   -1.4288693814
 15         -5.3973192535   -1.3702362780    4.4445606917   -1.4288694190
 16         -5.3973188684   -1.3702364155    4.4445605313   -1.4288694437
 17         -5.3973186349   -1.3702364860    4.4445604489   -1.4288694595
 18         -5.3973184951   -1.3702365221    4.4445604065   -1.4288694693
 19         -5.3973184122   -1.3702365405    4.4445603848   -1.4288694753
Atom SCF converged after  19 iterations to a total energy of     -5.39731841

Atom SCF Calculation for S  : Z (AE atom) =  16 : Z (PS atom) =   6
Config String:
Orbitals (num,occ):  3     2.00 4.00 0.00
Orbitals   (num,l):  3        0    1    2
Real-space Grid (nr,dr,rmax): 1203    0.0066555740    8.0000000000
Spherical Bessel Basis (nsws,lmax,cutoff):   47    2  176.3951722778
Confining potential (l,width,scale):  0    3.0000000000  100.0000000000
Confining potential (l,width,scale):  1    3.0000000000  100.0000000000
Confining potential (l,width,scale):  2    3.0000000000  100.0000000000
  1        -12.4735062396   -1.0328741412   10.1554312477   -2.4512393157
  2         -9.9458301913   -2.4607392455    8.3041325857   -2.0306994528
  3        -10.1450417646   -2.2931184565    8.4831893826   -2.0812538287
  4        -10.1528335592   -2.2733105793    8.5050388867   -2.0896035179
  5        -10.1571940363   -2.2633716629    8.5160794258   -2.0939370707
  6        -10.1594380571   -2.2584938667    8.5215163935   -2.0961289008
  7        -10.1605856507   -2.2561081821    8.5241804044   -2.0972291378
  8        -10.1611799191   -2.2549395235    8.5254868240   -2.0977806248
  9        -10.1614918752   -2.2543658586    8.5261285885   -2.0980571586
 10        -10.1616572884   -2.2540839121    8.5264441898   -2.0981959233
 11        -10.1617455602   -2.2539453058    8.5265994231   -2.0982656006
 12        -10.1617928447   -2.2538772062    8.5266757320   -2.0983006047
 13        -10.1618182292   -2.2538437891    8.5267131983   -2.0983181961
 14        -10.1618318741   -2.2538274201    8.5267315620   -2.0983270391
 15        -10.1618392144   -2.2538194197    8.5267405433   -2.0983314852
 16        -10.1618431651   -2.2538155200    8.5267449245   -2.0983337210
 17        -10.1618452923   -2.2538136252    8.5267470551   -2.0983348455
 18        -10.1618464380   -2.2538127080    8.5267480875   -2.0983354110
 19        -10.1618470552   -2.2538122659    8.5267485856   -2.0983356955
 20        -10.1618473878   -2.2538120540    8.5267488248   -2.0983358386
 21        -10.1618475670   -2.2538119530    8.5267489389   -2.0983359106
 22        -10.1618476637   -2.2538119053    8.5267489929   -2.0983359468
Atom SCF converged after  22 iterations to a total energy of    -10.16184766

Atom SCF Calculation for O  : Z (AE atom) =   8 : Z (PS atom) =   6
Config String:
Orbitals (num,occ):  2     2.00 4.00
Orbitals   (num,l):  2        0    1
Real-space Grid (nr,dr,rmax): 1203    0.0066555740    8.0000000000
Spherical Bessel Basis (nsws,lmax,cutoff):   47    1  176.3951722778
Confining potential (l,width,scale):  0    3.0000000000  100.0000000000
Confining potential (l,width,scale):  1    3.0000000000  100.0000000000
  1         -1.8735052164   -7.5539365035   10.1554312477   -2.4512393157
  2        -16.0318313751   -3.1285771268   13.6395848164   -3.2358799643
  3        -15.9524020423   -3.0762819706   13.6967272503   -3.2536856837
  4        -15.8521515939   -3.0781493909   13.6951909330   -3.2561700440
  5        -15.8357139793   -3.0748501933   13.6988803334   -3.2580493133
  6        -15.8246052853   -3.0740779781   13.6997881576   -3.2588327446
  7        -15.8189019501   -3.0737449687   13.7001869911   -3.2592378801
  8        -15.8159785510   -3.0736026016   13.7003615168   -3.2594475790
  9        -15.8144776168   -3.0735437994   13.7004360379   -3.2595560735
 10        -15.8137058024   -3.0735207882   13.7004667348   -3.2596122456
 11        -15.8133083127   -3.0735125946   13.7004786868   -3.2596413656
 12        -15.8131032938   -3.0735102195   13.7004828997   -3.2596564858
 13        -15.8129973902   -3.0735099286   13.7004840891   -3.2596643505
 14        -15.8129426040   -3.0735102506   13.7004842061   -3.2596684489
 15        -15.8129142203   -3.0735106556   13.7004840157   -3.2596705887
 16        -15.8128994940   -3.0735109855   13.7004837906   -3.2596717080
 17        -15.8128918425   -3.0735112169   13.7004836103   -3.2596722946
 18        -15.8128878614   -3.0735113674   13.7004834848   -3.2596726026
 19        -15.8128857871   -3.0735114608   13.7004834035   -3.2596727646
 20        -15.8128847048   -3.0735115170   13.7004833533   -3.2596728500
 21        -15.8128841394   -3.0735115501   13.7004833231   -3.2596728951
 22        -15.8128838436   -3.0735115693   13.7004833054   -3.2596729190
 23        -15.8128836887   -3.0735115802   13.7004832951   -3.2596729316
 24        -15.8128836074   -3.0735115864   13.7004832893   -3.2596729383
Atom SCF converged after  24 iterations to a total energy of    -15.81288361

========================== Calculation in vacuum ==============================
= Adjusting the following parameters: 
= is_implicit_solvent: F
= is_include_apolar: F
= write_denskern: T
= write_tightbox_ngwfs: T
= restart read filename prefix: ""
= restart write filename prefix: "vacuum_"
===============================================================================

Determining parallel strategy ...
... using space-filling curve
... NGWF load balancing: max    163;  min    162;  average    163
... Projector load balancing: max     36;  min     32;  average     33
... done
Calculating direct Ion-Ion energy ...
Ion-Ion Energy        :    801496.05771060194820
======================= Empirical dispersion information =======================
Model : Elstner
Dispersion Correction Energy: -0.32270548E+01 Hartree
================================================================================
Basis initialisation ...... NGWF spheres initialised
... Projector spheres initialised
... NGWF tight boxes initialised
... Tight-boxes gathered
... NGWF basis size (local,global):    1268585  50732027
... Nonlocal pseudopotential projector initialisation
... done

========================== Sparse matrix information ===========================
                        Overlap matrix filling:   6.61%
                        Density kernel filling: 100.00%
              NGWF-Proj overlap matrix filling:   1.77%
                    Hamiltonian matrix filling:   7.46%
                  NGWF diagonal matrix filling:   0.05%
                             KS matrix filling: 100.00% 
                           KSKS matrix filling: 100.00% 
================================================================================

Sparse matrix initialisation ... done

Generating smeared ion density ... done
Smeared ion self correction:     -14457.169564
Smeared ion non-self correction: -801448.175214
NGWF initialisation ...... done
============ Calculation of NGWF S^-1 using Hotelling algorithm ================ 
         Iteration  |  Frobenius norm and Maximum abs value    (of I-S*S_n^-1)   
               1       0.78504761E+02     0.98274741E+00
               2       0.76670682E+02     0.96591975E+00
               3       0.73693403E+02     0.93352753E+00
               4       0.69448612E+02     0.87373176E+00
               5       0.64148268E+02     0.77108711E+00
               6       0.58182052E+02     0.70726508E+00
               7       0.52172515E+02     0.67200563E+00
               8       0.46616370E+02     0.64322248E+00
               9       0.40564238E+02     0.60503656E+00
              10       0.32328454E+02     0.53860079E+00
              11       0.21776161E+02     0.43066949E+00
              12       0.11163817E+02     0.28587112E+00
              13       0.37029496E+01     0.13902468E+00
              14       0.59755185E+00     0.36108682E-01
              15       0.30599844E-01     0.30585072E-02
              16       0.19155597E-03     0.27328882E-04
              17       0.13489605E-07     0.27573274E-08
              18       0.94880953E-13     0.57731597E-14
================================================================================
Calculating local pseudopotential in open BC on the fine real space grid ...
... done

MG BCs: +ve charge blocks (gridpoints):     20866 (   16217470).
MG BCs: -ve charge blocks (gridpoints):      7910 (    1074183).
MG BCs:     Elided blocks (gridpoints):    189179 (  188928172).
MG BCs: Computational effort saved:  99.9860%.
MG BCs: Charge after coarse-graining:           -9.0002393.
MG DL_MG: Calling solver with defect correction order = 8
MG DL_MG: Solver finished
MG Hartree energy from (\int phi*rho dr):              1462.790901
MG Hartree energy from (\int eps (grad phi)^2 dr):     1462.183136
MG Discrepancy due to finite box and discretization:     -0.607765 (  -0.04155%)
MG Correction to account for finite box:                  0.453787
MG Remaining discrepancy, due to discretization:         -0.153978 (  -0.01053%)
Up spin density kernel initialisation ... 
======= Optimisation of K by Palser-Manolopoulos canonical purification ======== 
         Iteration  |  Band structure energy |    c_n   
               1       -2547.26752956855626    0.5270621
               2       -2722.58238144890765    0.5170959
               3       -2902.48409371899743    0.5152699
               4       -3053.04841630642341    0.5284845
               5       -3145.96156172761948    0.5637168
               6       -3184.97046850753031    0.6080888
               7       -3198.23414270239618    0.6202167
               8       -3203.96831872623216    0.6235887
               9       -3206.67898477379458    0.6480566
              10       -3207.75460835007516    0.6755029
              11       -3208.18876262410777    0.6878918
              12       -3208.39377957858142    0.6631929
              13       -3208.51500872492443    0.5912792
              14       -3208.59701516888481    0.4703534
              15       -3208.63519118198474    0.2791023
              16       -3208.63618877531280    0.2701462
              17       -3208.63659331616236    0.2945298
              18       -3208.63699774260931    0.3293716
              19       -3208.63744268607343    0.3735913
              20       -3208.63790197946491    0.4242643
              21       -3208.63830141361268    0.4699727
              22       -3208.63853692914563    0.4948498
              23       -3208.63859882689576    0.4998433
              24       -3208.63860232382194    0.5000002
              25       -3208.63860233479227    0.5000002
Termination criterion satisfied: band energy change below threshold.
Final occupancy bounds: [    0.00000000000000:    0.99999999999999]
Closest occupancy to 0.5:     1.00000000000000
================================================================================
... done

Writing density kernel to file "host_21381.vacuum_dkn" ... done

>>> Optimising kernel for current NGWFs:
   Initial electron number for spin 1:    7192.00000000
     Final electron number for spin 1:    7192.00000000

=================== Penalty functional idempotency correction ==================
 RMS occupancy error at iteration   1:  0.000000 (step -0.5000 Ne1=   7192.0000)
            Final RMS occupancy error   :  0.000000 (Ne1=   7192.0000)
               Final occupancy bounds   : [ -0.0000,  1.0000]
================================================================================

................................................................................
<<<<<<<<<<<<<< LNV (Original version) density kernel optimisation >>>>>>>>>>>>>>
~~~~~~~~~~~~~~~~~~~~~~~~~~~~~~~~~~~~~~~~~~~~~~~~~~~~~~~~~~~~~~~~~~~~~~~~~~~~~~~~
   iter  |      energy (Eh)       | rms gradient |  commutator  |   dE (Eh)
MG BCs: +ve charge blocks (gridpoints):     31799 (   17461694).
MG BCs: -ve charge blocks (gridpoints):      8309 (    1107691).
MG BCs:     Elided blocks (gridpoints):    178242 (  187650440).
MG BCs: Computational effort saved:  99.9806%.
MG BCs: Charge after coarse-graining:           -9.0010044.
MG DL_MG: Calling solver with defect correction order = 8
MG DL_MG: Solver finished
MG Hartree energy from (\int phi*rho dr):              1417.711904
MG Hartree energy from (\int eps (grad phi)^2 dr):     1417.055306
MG Discrepancy due to finite box and discretization:     -0.656598 (  -0.04631%)
MG Correction to account for finite box:                  0.459368
MG Remaining discrepancy, due to discretization:         -0.197229 (  -0.01391%)
      ideal mu1:      -0.716962315131
             Q0:  -11508.078670043033
             G0:    -142.128606135439
   RMS gradient:       0.001832708726
MG BCs: +ve charge blocks (gridpoints):     31803 (   17547158).
MG BCs: -ve charge blocks (gridpoints):      8214 (    1087357).
MG BCs:     Elided blocks (gridpoints):    178236 (  187585310).
MG BCs: Computational effort saved:  99.9806%.
MG BCs: Charge after coarse-graining:           -9.0010255.
MG DL_MG: Calling solver with defect correction order = 8
MG DL_MG: Solver finished
MG Hartree energy from (\int phi*rho dr):              1443.522251
MG Hartree energy from (\int eps (grad phi)^2 dr):     1442.882194
MG Discrepancy due to finite box and discretization:     -0.640056 (  -0.04434%)
MG Correction to account for finite box:                  0.458925
MG Remaining discrepancy, due to discretization:         -0.181131 (  -0.01255%)
     Trial step:       0.500000000000
             Q1:  -11519.086593461223
 Quadratic coef:      60.056379649530
 Linear coef   :     -71.064303067720
           Qmin:  -11529.101145923079
Quadratic minimum step length (  0.295823289226) accepted
    Initial Ne1:    7192.00000000
      Final Ne1:    7192.00000000

=================== Penalty functional idempotency correction ==================
 RMS occupancy error at iteration   1:  0.003329 (step -0.4887 Ne1=   7192.0000)
 RMS occupancy error at iteration   2:  0.000025 (step -0.5000 Ne1=   7192.0000)
            Final RMS occupancy error   :  0.000000 (Ne1=   7192.0000)
               Final occupancy bounds   : [  0.0000,  1.0000]
================================================================================

    1        -1.150807867004E+04     1.8327E-03     1.6576E-03
MG BCs: +ve charge blocks (gridpoints):     31800 (   17513992).
MG BCs: -ve charge blocks (gridpoints):      8259 (    1095931).
MG BCs:     Elided blocks (gridpoints):    178239 (  187609902).
MG BCs: Computational effort saved:  99.9806%.
MG BCs: Charge after coarse-graining:           -9.0010169.
MG DL_MG: Calling solver with defect correction order = 8
MG DL_MG: Solver finished
MG Hartree energy from (\int phi*rho dr):              1425.102177
MG Hartree energy from (\int eps (grad phi)^2 dr):     1424.456384
MG Discrepancy due to finite box and discretization:     -0.645794 (  -0.04532%)
MG Correction to account for finite box:                  0.458939
MG Remaining discrepancy, due to discretization:         -0.186855 (  -0.01311%)
      ideal mu1:      -0.755219196811
             Q0:  -11529.489027326345
             G0:     -11.568031271971
   RMS gradient:       0.000519406643
MG BCs: +ve charge blocks (gridpoints):     31806 (   17531399).
MG BCs: -ve charge blocks (gridpoints):      8230 (    1090840).
MG BCs:     Elided blocks (gridpoints):    178233 (  187597586).
MG BCs: Computational effort saved:  99.9806%.
MG BCs: Charge after coarse-graining:           -9.0010208.
MG DL_MG: Calling solver with defect correction order = 8
MG DL_MG: Solver finished
MG Hartree energy from (\int phi*rho dr):              1430.414674
MG Hartree energy from (\int eps (grad phi)^2 dr):     1429.772534
MG Discrepancy due to finite box and discretization:     -0.642140 (  -0.04489%)
MG Correction to account for finite box:                  0.458577
MG Remaining discrepancy, due to discretization:         -0.183563 (  -0.01283%)
     Trial step:       0.384592829643
             Q1:  -11532.205119454069
 Quadratic coef:       1.732889752564
 Linear coef   :      -4.448981880289
           Qmin:  -11532.344581140696
Quadratic minimum step length (  0.493697457625) accepted
    Initial Ne1:    7191.99992180
      Final Ne1:    7192.00000000

=================== Penalty functional idempotency correction ==================
 RMS occupancy error at iteration   1:  0.001737 (step -0.4935 Ne1=   7192.0000)
 RMS occupancy error at iteration   2:  0.000009 (step -0.5000 Ne1=   7192.0000)
            Final RMS occupancy error   :  0.000000 (Ne1=   7192.0000)
               Final occupancy bounds   : [  0.0000,  1.0000]
================================================================================

    2        -1.152948902733E+04     5.1941E-04     4.6979E-04    -2.1410E+01
MG BCs: +ve charge blocks (gridpoints):     31809 (   17536359).
MG BCs: -ve charge blocks (gridpoints):      8226 (    1089426).
MG BCs:     Elided blocks (gridpoints):    178230 (  187594040).
MG BCs: Computational effort saved:  99.9806%.
MG BCs: Charge after coarse-graining:           -9.0010219.
MG DL_MG: Calling solver with defect correction order = 8
MG DL_MG: Solver finished
MG Hartree energy from (\int phi*rho dr):              1431.961887
MG Hartree energy from (\int eps (grad phi)^2 dr):     1431.320699
MG Discrepancy due to finite box and discretization:     -0.641188 (  -0.04478%)
MG Correction to account for finite box:                  0.458495
MG Remaining discrepancy, due to discretization:         -0.182693 (  -0.01276%)
      ideal mu1:      -0.774902799590
             Q0:  -11532.378431458026
             G0:      -1.797867092395
   RMS gradient:       0.000204898978
MG BCs: +ve charge blocks (gridpoints):     31811 (   17535835).
MG BCs: -ve charge blocks (gridpoints):      8229 (    1090311).
MG BCs:     Elided blocks (gridpoints):    178228 (  187593679).
MG BCs: Computational effort saved:  99.9806%.
MG BCs: Charge after coarse-graining:           -9.0010215.
MG DL_MG: Calling solver with defect correction order = 8
MG DL_MG: Solver finished
MG Hartree energy from (\int phi*rho dr):              1429.856753
MG Hartree energy from (\int eps (grad phi)^2 dr):     1429.215921
MG Discrepancy due to finite box and discretization:     -0.640832 (  -0.04482%)
MG Correction to account for finite box:                  0.458319
MG Remaining discrepancy, due to discretization:         -0.182513 (  -0.01276%)
     Trial step:       0.435743619822
             Q1:  -11532.830452459049
 Quadratic coef:       0.331388113776
 Linear coef   :      -0.783409114799
           Qmin:  -11532.841430744691
Quadratic minimum step length (  0.515053964360) accepted
    Initial Ne1:    7191.99996954
      Final Ne1:    7192.00000000

=================== Penalty functional idempotency correction ==================
 RMS occupancy error at iteration   1:  0.000568 (step -0.4977 Ne1=   7192.0000)
 RMS occupancy error at iteration   2:  0.000001 (step -0.5000 Ne1=   7192.0000)
            Final RMS occupancy error   :  0.000000 (Ne1=   7192.0000)
               Final occupancy bounds   : [  0.0000,  1.0000]
================================================================================

    3        -1.153237843146E+04     2.0490E-04     1.8533E-04    -2.8894E+00
MG BCs: +ve charge blocks (gridpoints):     31810 (   17535643).
MG BCs: -ve charge blocks (gridpoints):      8232 (    1090523).
MG BCs:     Elided blocks (gridpoints):    178229 (  187593659).
MG BCs: Computational effort saved:  99.9806%.
MG BCs: Charge after coarse-graining:           -9.0010216.
MG DL_MG: Calling solver with defect correction order = 8
MG DL_MG: Solver finished
MG Hartree energy from (\int phi*rho dr):              1429.481592
MG Hartree energy from (\int eps (grad phi)^2 dr):     1428.840816
MG Discrepancy due to finite box and discretization:     -0.640776 (  -0.04483%)
MG Correction to account for finite box:                  0.458288
MG Remaining discrepancy, due to discretization:         -0.182488 (  -0.01277%)
      ideal mu1:      -0.775432040580
             Q0:  -11532.845516479458
             G0:      -0.421338834683
   RMS gradient:       0.000099301548
MG BCs: +ve charge blocks (gridpoints):     31811 (   17536815).
MG BCs: -ve charge blocks (gridpoints):      8231 (    1090233).
MG BCs:     Elided blocks (gridpoints):    178228 (  187592777).
MG BCs: Computational effort saved:  99.9806%.
MG BCs: Charge after coarse-graining:           -9.0010216.
MG DL_MG: Calling solver with defect correction order = 8
MG DL_MG: Solver finished
MG Hartree energy from (\int phi*rho dr):              1430.694540
MG Hartree energy from (\int eps (grad phi)^2 dr):     1430.053688
MG Discrepancy due to finite box and discretization:     -0.640852 (  -0.04479%)
MG Correction to account for finite box:                  0.458258
MG Remaining discrepancy, due to discretization:         -0.182594 (  -0.01276%)
     Trial step:       0.473741996063
             Q1:  -11532.942235999042
 Quadratic coef:       0.102886380977
 Linear coef   :      -0.199605900562
           Qmin:  -11532.942328407238
Quadratic minimum step length (  0.459544289828) accepted
    Initial Ne1:    7191.99999350
      Final Ne1:    7192.00000000

=================== Penalty functional idempotency correction ==================
 RMS occupancy error at iteration   1:  0.000183 (step -0.4992 Ne1=   7192.0000)
            Final RMS occupancy error   :  0.000000 (Ne1=   7192.0000)
               Final occupancy bounds   : [ -0.0000,  1.0000]
================================================================================

    4        -1.153284551648E+04     9.9302E-05     8.9816E-05    -4.6709E-01
MG BCs: +ve charge blocks (gridpoints):     31811 (   17536742).
MG BCs: -ve charge blocks (gridpoints):      8231 (    1090253).
MG BCs:     Elided blocks (gridpoints):    178228 (  187592830).
MG BCs: Computational effort saved:  99.9806%.
MG BCs: Charge after coarse-graining:           -9.0010217.
MG DL_MG: Calling solver with defect correction order = 8
MG DL_MG: Solver finished
MG Hartree energy from (\int phi*rho dr):              1430.658207
MG Hartree energy from (\int eps (grad phi)^2 dr):     1430.017358
MG Discrepancy due to finite box and discretization:     -0.640849 (  -0.04479%)
MG Correction to account for finite box:                  0.458259
MG Remaining discrepancy, due to discretization:         -0.182591 (  -0.01276%)
      ideal mu1:      -0.775814693195
             Q0:  -11532.942735257791
             G0:      -0.104313603012
   RMS gradient:       0.000049550187
MG BCs: +ve charge blocks (gridpoints):     31810 (   17536915).
MG BCs: -ve charge blocks (gridpoints):      8229 (    1090178).
MG BCs:     Elided blocks (gridpoints):    178229 (  187592732).
MG BCs: Computational effort saved:  99.9806%.
MG BCs: Charge after coarse-graining:           -9.0010215.
MG DL_MG: Calling solver with defect correction order = 8
MG DL_MG: Solver finished
MG Hartree energy from (\int phi*rho dr):              1431.040092
MG Hartree energy from (\int eps (grad phi)^2 dr):     1430.399112
MG Discrepancy due to finite box and discretization:     -0.640980 (  -0.04479%)
MG Correction to account for finite box:                  0.458250
MG Remaining discrepancy, due to discretization:         -0.182730 (  -0.01277%)
     Trial step:       0.466589143833
             Q1:  -11532.968758001225
 Quadratic coef:       0.022648851285
 Linear coef   :      -0.048671594720
           Qmin:  -11532.968883649412
Quadratic minimum step length (  0.501341931718) accepted
    Initial Ne1:    7192.00158551
      Final Ne1:    7192.00000000

=================== Penalty functional idempotency correction ==================
 RMS occupancy error at iteration   1:  0.000068 (step -0.4997 Ne1=   7192.0000)
            Final RMS occupancy error   :  0.000000 (Ne1=   7192.0000)
               Final occupancy bounds   : [ -0.0000,  1.0000]
================================================================================

    5        -1.153294273526E+04     4.9550E-05     4.4817E-05    -9.7219E-02
MG BCs: +ve charge blocks (gridpoints):     31810 (   17536901).
MG BCs: -ve charge blocks (gridpoints):      8230 (    1090196).
MG BCs:     Elided blocks (gridpoints):    178229 (  187592728).
MG BCs: Computational effort saved:  99.9806%.
MG BCs: Charge after coarse-graining:           -9.0010215.
MG DL_MG: Calling solver with defect correction order = 8
MG DL_MG: Solver finished
MG Hartree energy from (\int phi*rho dr):              1431.068565
MG Hartree energy from (\int eps (grad phi)^2 dr):     1430.427575
MG Discrepancy due to finite box and discretization:     -0.640990 (  -0.04479%)
MG Correction to account for finite box:                  0.458250
MG Remaining discrepancy, due to discretization:         -0.182740 (  -0.01277%)
      ideal mu1:      -0.775836847745
             Q0:  -11532.968934754259
             G0:      -0.033713184131
   RMS gradient:       0.000028190882
MG BCs: +ve charge blocks (gridpoints):     31810 (   17536535).
MG BCs: -ve charge blocks (gridpoints):      8229 (    1090374).
MG BCs:     Elided blocks (gridpoints):    178229 (  187592916).
MG BCs: Computational effort saved:  99.9806%.
MG BCs: Charge after coarse-graining:           -9.0010214.
MG DL_MG: Calling solver with defect correction order = 8
MG DL_MG: Solver finished
MG Hartree energy from (\int phi*rho dr):              1430.415484
MG Hartree energy from (\int eps (grad phi)^2 dr):     1429.774498
MG Discrepancy due to finite box and discretization:     -0.640986 (  -0.04481%)
MG Correction to account for finite box:                  0.458260
MG Remaining discrepancy, due to discretization:         -0.182726 (  -0.01277%)
     Trial step:       0.483653494444
             Q1:  -11532.979962990037
 Quadratic coef:       0.005277263535
 Linear coef   :      -0.016305499314
           Qmin:  -11532.981529790781
Quadratic minimum step length (  0.747187597216) accepted
    Initial Ne1:    7192.00117106
      Final Ne1:    7192.00000000

=================== Penalty functional idempotency correction ==================
 RMS occupancy error at iteration   1:  0.000054 (step -0.4992 Ne1=   7192.0000)
            Final RMS occupancy error   :  0.000000 (Ne1=   7192.0000)
               Final occupancy bounds   : [ -0.0000,  1.0000]
================================================================================

    6        -1.153296893475E+04     2.8191E-05     2.5498E-05    -2.6199E-02
MG BCs: +ve charge blocks (gridpoints):     31810 (   17536308).
MG BCs: -ve charge blocks (gridpoints):      8229 (    1090504).
MG BCs:     Elided blocks (gridpoints):    178229 (  187593013).
MG BCs: Computational effort saved:  99.9806%.
MG BCs: Charge after coarse-graining:           -9.0010214.
MG DL_MG: Calling solver with defect correction order = 8
MG DL_MG: Solver finished
MG Hartree energy from (\int phi*rho dr):              1430.058412
MG Hartree energy from (\int eps (grad phi)^2 dr):     1429.417428
MG Discrepancy due to finite box and discretization:     -0.640984 (  -0.04482%)
MG Correction to account for finite box:                  0.458265
MG Remaining discrepancy, due to discretization:         -0.182718 (  -0.01278%)
      ideal mu1:      -0.775504102851
             Q0:  -11532.981534269173
             G0:      -0.021394007105
   RMS gradient:       0.000022485304
MG BCs: +ve charge blocks (gridpoints):     31811 (   17536976).
MG BCs: -ve charge blocks (gridpoints):      8229 (    1090124).
MG BCs:     Elided blocks (gridpoints):    178228 (  187592725).
MG BCs: Computational effort saved:  99.9806%.
MG BCs: Charge after coarse-graining:           -9.0010216.
MG DL_MG: Calling solver with defect correction order = 8
MG DL_MG: Solver finished
MG Hartree energy from (\int phi*rho dr):              1430.824304
MG Hartree energy from (\int eps (grad phi)^2 dr):     1430.183352
MG Discrepancy due to finite box and discretization:     -0.640952 (  -0.04480%)
MG Correction to account for finite box:                  0.458254
MG Remaining discrepancy, due to discretization:         -0.182698 (  -0.01277%)
     Trial step:       0.601148810527
             Q1:  -11532.987394752330
 Quadratic coef:       0.007000498767
 Linear coef   :      -0.012860981924
           Qmin:  -11532.987441164580
Quadratic minimum step length (  0.552200939077) accepted
    Initial Ne1:    7192.00098028
      Final Ne1:    7192.00000000

=================== Penalty functional idempotency correction ==================
 RMS occupancy error at iteration   1:  0.000006 (step -0.4996 Ne1=   7192.0000)
            Final RMS occupancy error   :  0.000000 (Ne1=   7192.0000)
               Final occupancy bounds   : [ -0.0000,  1.0000]
================================================================================

    7        -1.153298153427E+04     2.2485E-05     2.0337E-05    -1.2600E-02
MG BCs: +ve charge blocks (gridpoints):     31810 (   17536932).
MG BCs: -ve charge blocks (gridpoints):      8229 (    1090147).
MG BCs:     Elided blocks (gridpoints):    178229 (  187592746).
MG BCs: Computational effort saved:  99.9806%.
MG BCs: Charge after coarse-graining:           -9.0010215.
MG DL_MG: Calling solver with defect correction order = 8
MG DL_MG: Solver finished
MG Hartree energy from (\int phi*rho dr):              1430.761856
MG Hartree energy from (\int eps (grad phi)^2 dr):     1430.120902
MG Discrepancy due to finite box and discretization:     -0.640954 (  -0.04480%)
MG Correction to account for finite box:                  0.458255
MG Remaining discrepancy, due to discretization:         -0.182700 (  -0.01277%)
      ideal mu1:      -0.775854951091
             Q0:  -11532.987441643607
             G0:      -0.014552243689
   RMS gradient:       0.000018546878
MG BCs: +ve charge blocks (gridpoints):     31812 (   17536919).
MG BCs: -ve charge blocks (gridpoints):      8229 (    1090171).
MG BCs:     Elided blocks (gridpoints):    178227 (  187592735).
MG BCs: Computational effort saved:  99.9806%.
MG BCs: Charge after coarse-graining:           -9.0010216.
MG DL_MG: Calling solver with defect correction order = 8
MG DL_MG: Solver finished
MG Hartree energy from (\int phi*rho dr):              1430.826688
MG Hartree energy from (\int eps (grad phi)^2 dr):     1430.185782
MG Discrepancy due to finite box and discretization:     -0.640907 (  -0.04479%)
MG Correction to account for finite box:                  0.458246
MG Remaining discrepancy, due to discretization:         -0.182661 (  -0.01277%)
     Trial step:       0.576155306925
             Q1:  -11532.993923644419
 Quadratic coef:       0.001902351618
 Linear coef   :      -0.008384352429
           Qmin:  -11532.996679862898
Quadratic minimum step length (  1.269662532846) accepted
    Initial Ne1:    7192.00157299
      Final Ne1:    7192.00000000

=================== Penalty functional idempotency correction ==================
 RMS occupancy error at iteration   1:  0.000117 (step -0.4932 Ne1=   7192.0000)
 RMS occupancy error at iteration   2:  0.000001 (step -0.5000 Ne1=   7192.0000)
            Final RMS occupancy error   :  0.000000 (Ne1=   7192.0000)
               Final occupancy bounds   : [  0.0000,  1.0000]
================================================================================

    8        -1.153298744164E+04     1.8547E-05     1.6775E-05    -5.9074E-03
MG BCs: +ve charge blocks (gridpoints):     31812 (   17537005).
MG BCs: -ve charge blocks (gridpoints):      8229 (    1090119).
MG BCs:     Elided blocks (gridpoints):    178227 (  187592701).
MG BCs: Computational effort saved:  99.9806%.
MG BCs: Charge after coarse-graining:           -9.0010217.
MG DL_MG: Calling solver with defect correction order = 8
MG DL_MG: Solver finished
MG Hartree energy from (\int phi*rho dr):              1430.899708
MG Hartree energy from (\int eps (grad phi)^2 dr):     1430.258861
MG Discrepancy due to finite box and discretization:     -0.640847 (  -0.04479%)
MG Correction to account for finite box:                  0.458235
MG Remaining discrepancy, due to discretization:         -0.182612 (  -0.01276%)
      ideal mu1:      -0.775841335521
             Q0:  -11532.996484944248
             G0:      -0.030383164018
   RMS gradient:       0.000027307052
MG BCs: +ve charge blocks (gridpoints):     31812 (   17536921).
MG BCs: -ve charge blocks (gridpoints):      8228 (    1090305).
MG BCs:     Elided blocks (gridpoints):    178227 (  187592599).
MG BCs: Computational effort saved:  99.9806%.
MG BCs: Charge after coarse-graining:           -9.0010216.
MG DL_MG: Calling solver with defect correction order = 8
MG DL_MG: Solver finished
MG Hartree energy from (\int phi*rho dr):              1430.368055
MG Hartree energy from (\int eps (grad phi)^2 dr):     1429.727334
MG Discrepancy due to finite box and discretization:     -0.640721 (  -0.04479%)
MG Correction to account for finite box:                  0.458214
MG Remaining discrepancy, due to discretization:         -0.182507 (  -0.01276%)
     Trial step:       0.855291065254
             Q1:  -11533.010237497743
 Quadratic coef:       0.012233895224
 Linear coef   :      -0.025986448719
           Qmin:  -11533.010284627519
Quadratic minimum step length (  0.908376972329) accepted
    Initial Ne1:    7192.00243950
      Final Ne1:    7192.00000000

=================== Penalty functional idempotency correction ==================
 RMS occupancy error at iteration   1:  0.000710 (step -0.4622 Ne1=   7192.0000)
 RMS occupancy error at iteration   2:  0.000016 (step -0.4998 Ne1=   7192.0000)
            Final RMS occupancy error   :  0.000000 (Ne1=   7192.0000)
               Final occupancy bounds   : [ -0.0000,  1.0000]
================================================================================

    9        -1.153299648494E+04     2.7307E-05     2.4699E-05    -9.0433E-03
MG BCs: +ve charge blocks (gridpoints):     31812 (   17536914).
MG BCs: -ve charge blocks (gridpoints):      8228 (    1090321).
MG BCs:     Elided blocks (gridpoints):    178227 (  187592590).
MG BCs: Computational effort saved:  99.9806%.
MG BCs: Charge after coarse-graining:           -9.0010216.
MG DL_MG: Calling solver with defect correction order = 8
MG DL_MG: Solver finished
MG Hartree energy from (\int phi*rho dr):              1430.336298
MG Hartree energy from (\int eps (grad phi)^2 dr):     1429.695583
MG Discrepancy due to finite box and discretization:     -0.640714 (  -0.04479%)
MG Correction to account for finite box:                  0.458213
MG Remaining discrepancy, due to discretization:         -0.182501 (  -0.01276%)
      ideal mu1:      -0.775146363626
   10        -1.153301017595E+04     2.9225E-05     2.6433E-05    -1.3691E-02
Finished density kernel iterations (  10)

Writing density kernel to file "host_21381.vacuum_dkn" ... done


>>> Density kernel optimised for the current NGWF basis:
     ~~~~~~~~~~~~~~~~~~~~~~~~~~~~~~~~~~~~~~~~~~~~~~~~~~~~~~~~~~~
     Total energy                =  -1.15330101759512E+04  Eh
     Estimated bandgap           =  -2.5074E-01  Eh
     RMS occupancy error         =   1.7082E-08
     [H,K] commutator            =   2.6433E-05
     Occupancy bounds            = [  0.000:  1.000]
     ~~~~~~~~~~~~~~~~~~~~~~~~~~~~~~~~~~~~~~~~~~~~~~~~~~~~~~~~~~~




################################################################################
########################### NGWF CG iteration  001 #############################
################################################################################
****** Reciprocal space K.E. preconditioning with k_zero =  3.5000 a0^-1 *******

>>> Checking for convergence of NGWFs:   NOT CONVERGED
  ========================================================================
         NGWF RMS gradient =  1.5995E-03 >  2.0000E-06  | above tolerance
  ========================================================================

>>> Improving NGWFs using line search:
============ Calculation of NGWF S^-1 using Hotelling algorithm ================ 
         Iteration  |  Frobenius norm and Maximum abs value    (of I-S*S_n^-1)   
               1       0.19874400E+00     0.55648296E-02
               2       0.93102391E-03     0.44592759E-04
               3       0.35880264E-07     0.28597084E-08
               4       0.12705185E-12     0.57731597E-14
================================================================================
MG BCs: +ve charge blocks (gridpoints):     31334 (   17479141).
MG BCs: -ve charge blocks (gridpoints):      8247 (    1090139).
MG BCs:     Elided blocks (gridpoints):    178707 (  187650545).
MG BCs: Computational effort saved:  99.9808%.
MG BCs: Charge after coarse-graining:           -9.0010259.
MG DL_MG: Calling solver with defect correction order = 8
MG DL_MG: Solver finished
MG Hartree energy from (\int phi*rho dr):              1398.556509
MG Hartree energy from (\int eps (grad phi)^2 dr):     1397.916615
MG Discrepancy due to finite box and discretization:     -0.639894 (  -0.04575%)
MG Correction to account for finite box:                  0.458178
MG Remaining discrepancy, due to discretization:         -0.181716 (  -0.01299%)
============ Calculation of NGWF S^-1 using Hotelling algorithm ================ 
         Iteration  |  Frobenius norm and Maximum abs value    (of I-S*S_n^-1)   
               1       0.18412767E+01     0.43643627E-01
               2       0.70955247E-01     0.25223549E-02
               3       0.14603767E-03     0.92655351E-05
               4       0.11865016E-08     0.14929091E-09
               5       0.10844478E-12     0.51070259E-14
================================================================================
------------------------------- NGWF line search -------------------------------
RMS gradient                =       0.00159953731386
Trial step length           =               0.122474
Gradient along search dir.  =       -276.83645619460
Functional at step 0        =  -11533.01017595117446
Functional at step 1        =  -11564.30886949109845
Functional predicted        =  -11643.26185268116933
Selected quadratic step     =               0.796511
--------------------------- NGWF line search finished --------------------------
                                               
Writing NGWFs to file "host_21381.vacuum_tightbox_ngwfs"....  done

>>> Optimising kernel for current NGWFs:
   Initial electron number for spin 1:    7226.43511606
     Final electron number for spin 1:    7192.00000000

=================== Penalty functional idempotency correction ==================
 RMS occupancy error at iteration   1:  0.004278 (step -0.4860 Ne1=   7192.0000)
 RMS occupancy error at iteration   2:  0.000070 (step -0.5003 Ne1=   7192.0000)
            Final RMS occupancy error   :  0.000000 (Ne1=   7192.0000)
               Final occupancy bounds   : [  0.0000,  1.0000]
================================================================================

................................................................................
<<<<<<<<<<<<<< LNV (Original version) density kernel optimisation >>>>>>>>>>>>>>
~~~~~~~~~~~~~~~~~~~~~~~~~~~~~~~~~~~~~~~~~~~~~~~~~~~~~~~~~~~~~~~~~~~~~~~~~~~~~~~~
   iter  |      energy (Eh)       | rms gradient |  commutator  |   dE (Eh)
MG BCs: +ve charge blocks (gridpoints):     25470 (   17163903).
MG BCs: -ve charge blocks (gridpoints):      8369 (    1074315).
MG BCs:     Elided blocks (gridpoints):    184575 (  187981607).
MG BCs: Computational effort saved:  99.9836%.
MG BCs: Charge after coarse-graining:           -9.0007101.
MG DL_MG: Calling solver with defect correction order = 8
MG DL_MG: Solver finished
MG Hartree energy from (\int phi*rho dr):              1245.574874
MG Hartree energy from (\int eps (grad phi)^2 dr):     1244.934799
MG Discrepancy due to finite box and discretization:     -0.640075 (  -0.05139%)
MG Correction to account for finite box:                  0.458026
MG Remaining discrepancy, due to discretization:         -0.182048 (  -0.01462%)
      ideal mu1:      -0.714316271595
             Q0:  -11642.476923214737
             G0:      -9.585632986232
   RMS gradient:       0.000475951936
MG BCs: +ve charge blocks (gridpoints):     25546 (   17181526).
MG BCs: -ve charge blocks (gridpoints):      8349 (    1070052).
MG BCs:     Elided blocks (gridpoints):    184499 (  187968247).
MG BCs: Computational effort saved:  99.9836%.
MG BCs: Charge after coarse-graining:           -9.0007050.
MG DL_MG: Calling solver with defect correction order = 8
MG DL_MG: Solver finished
MG Hartree energy from (\int phi*rho dr):              1265.180998
MG Hartree energy from (\int eps (grad phi)^2 dr):     1264.534229
MG Discrepancy due to finite box and discretization:     -0.646769 (  -0.05112%)
MG Correction to account for finite box:                  0.457470
MG Remaining discrepancy, due to discretization:         -0.189299 (  -0.01496%)
     Trial step:       0.881434460590
             Q1:  -11639.700330444728
 Quadratic coef:      11.225700010640
 Linear coef   :      -8.449107240631
           Qmin:  -11644.066744185724
Quadratic minimum step length (  0.331709126204) accepted
    Initial Ne1:    7191.99958988
      Final Ne1:    7192.00000000

=================== Penalty functional idempotency correction ==================
 RMS occupancy error at iteration   1:  0.000350 (step -0.4986 Ne1=   7192.0000)
 RMS occupancy error at iteration   2:  0.000000 (step -0.5000 Ne1=   7192.0000)
            Final RMS occupancy error   :  0.000000 (Ne1=   7192.0000)
               Final occupancy bounds   : [  0.0000,  1.0000]
================================================================================

    1        -1.164247692321E+04     4.7595E-04     4.3049E-04
MG BCs: +ve charge blocks (gridpoints):     25497 (   17170682).
MG BCs: -ve charge blocks (gridpoints):      8362 (    1072611).
MG BCs:     Elided blocks (gridpoints):    184548 (  187976532).
MG BCs: Computational effort saved:  99.9836%.
MG BCs: Charge after coarse-graining:           -9.0007083.
MG DL_MG: Calling solver with defect correction order = 8
MG DL_MG: Solver finished
MG Hartree energy from (\int phi*rho dr):              1251.660011
MG Hartree energy from (\int eps (grad phi)^2 dr):     1251.017559
MG Discrepancy due to finite box and discretization:     -0.642452 (  -0.05133%)
MG Correction to account for finite box:                  0.457781
MG Remaining discrepancy, due to discretization:         -0.184672 (  -0.01475%)
      ideal mu1:      -0.721291143179
             Q0:  -11644.030626052641
             G0:      -0.974559450662
   RMS gradient:       0.000152981224
MG BCs: +ve charge blocks (gridpoints):     25501 (   17170224).
MG BCs: -ve charge blocks (gridpoints):      8367 (    1073473).
MG BCs:     Elided blocks (gridpoints):    184544 (  187976128).
MG BCs: Computational effort saved:  99.9836%.
MG BCs: Charge after coarse-graining:           -9.0007081.
MG DL_MG: Calling solver with defect correction order = 8
MG DL_MG: Solver finished
MG Hartree energy from (\int phi*rho dr):              1252.811104
MG Hartree energy from (\int eps (grad phi)^2 dr):     1252.168245
MG Discrepancy due to finite box and discretization:     -0.642859 (  -0.05131%)
MG Correction to account for finite box:                  0.457765
MG Remaining discrepancy, due to discretization:         -0.185093 (  -0.01477%)
     Trial step:       0.540721605568
             Q1:  -11644.220272361184
 Quadratic coef:       0.337319042341
 Linear coef   :      -0.526965350883
           Qmin:  -11644.236434535247
Quadratic minimum step length (  0.422362088768) accepted
    Initial Ne1:    7191.99994604
      Final Ne1:    7192.00000000

=================== Penalty functional idempotency correction ==================
 RMS occupancy error at iteration   1:  0.000140 (step -0.4994 Ne1=   7192.0000)
            Final RMS occupancy error   :  0.000000 (Ne1=   7192.0000)
               Final occupancy bounds   : [ -0.0000,  1.0000]
================================================================================

    2        -1.164403062605E+04     1.5298E-04     1.3837E-04    -1.5537E+00
MG BCs: +ve charge blocks (gridpoints):     25502 (   17170302).
MG BCs: -ve charge blocks (gridpoints):      8364 (    1073290).
MG BCs:     Elided blocks (gridpoints):    184543 (  187976233).
MG BCs: Computational effort saved:  99.9836%.
MG BCs: Charge after coarse-graining:           -9.0007082.
MG DL_MG: Calling solver with defect correction order = 8
MG DL_MG: Solver finished
MG Hartree energy from (\int phi*rho dr):              1252.558493
MG Hartree energy from (\int eps (grad phi)^2 dr):     1251.915727
MG Discrepancy due to finite box and discretization:     -0.642767 (  -0.05132%)
MG Correction to account for finite box:                  0.457768
MG Remaining discrepancy, due to discretization:         -0.184998 (  -0.01477%)
      ideal mu1:      -0.722323175487
             Q0:  -11644.236905526021
             G0:      -0.141339912460
   RMS gradient:       0.000057729299
MG BCs: +ve charge blocks (gridpoints):     25502 (   17169585).
MG BCs: -ve charge blocks (gridpoints):      8364 (    1073661).
MG BCs:     Elided blocks (gridpoints):    184543 (  187976579).
MG BCs: Computational effort saved:  99.9836%.
MG BCs: Charge after coarse-graining:           -9.0007082.
MG DL_MG: Calling solver with defect correction order = 8
MG DL_MG: Solver finished
MG Hartree energy from (\int phi*rho dr):              1252.059410
MG Hartree energy from (\int eps (grad phi)^2 dr):     1251.416678
MG Discrepancy due to finite box and discretization:     -0.642732 (  -0.05133%)
MG Correction to account for finite box:                  0.457756
MG Remaining discrepancy, due to discretization:         -0.184977 (  -0.01477%)
     Trial step:       0.477891521969
             Q1:  -11644.280092487228
 Quadratic coef:       0.024358184673
 Linear coef   :      -0.067545145880
           Qmin:  -11644.283731128926
Quadratic minimum step length (  0.662595612093) accepted
    Initial Ne1:    7192.00060608
      Final Ne1:    7192.00000000

=================== Penalty functional idempotency correction ==================
 RMS occupancy error at iteration   1:  0.000060 (step -0.4998 Ne1=   7192.0000)
            Final RMS occupancy error   :  0.000000 (Ne1=   7192.0000)
               Final occupancy bounds   : [ -0.0000,  1.0000]
================================================================================

    3        -1.164423690553E+04     5.7729E-05     5.2215E-05    -2.0628E-01
MG BCs: +ve charge blocks (gridpoints):     25502 (   17169315).
MG BCs: -ve charge blocks (gridpoints):      8363 (    1073849).
MG BCs:     Elided blocks (gridpoints):    184543 (  187976661).
MG BCs: Computational effort saved:  99.9836%.
MG BCs: Charge after coarse-graining:           -9.0007082.
MG DL_MG: Calling solver with defect correction order = 8
MG DL_MG: Solver finished
MG Hartree energy from (\int phi*rho dr):              1251.866511
MG Hartree energy from (\int eps (grad phi)^2 dr):     1251.223791
MG Discrepancy due to finite box and discretization:     -0.642720 (  -0.05134%)
MG Correction to account for finite box:                  0.457751
MG Remaining discrepancy, due to discretization:         -0.184969 (  -0.01478%)
      ideal mu1:      -0.721354312830
             Q0:  -11644.283813678543
             G0:      -0.035608084303
   RMS gradient:       0.000028967585
MG BCs: +ve charge blocks (gridpoints):     25499 (   17169134).
MG BCs: -ve charge blocks (gridpoints):      8365 (    1073861).
MG BCs:     Elided blocks (gridpoints):    184546 (  187976830).
MG BCs: Computational effort saved:  99.9836%.
MG BCs: Charge after coarse-graining:           -9.0007083.
MG DL_MG: Calling solver with defect correction order = 8
MG DL_MG: Solver finished
MG Hartree energy from (\int phi*rho dr):              1251.892061
MG Hartree energy from (\int eps (grad phi)^2 dr):     1251.249446
MG Discrepancy due to finite box and discretization:     -0.642615 (  -0.05133%)
MG Correction to account for finite box:                  0.457748
MG Remaining discrepancy, due to discretization:         -0.184867 (  -0.01477%)
     Trial step:       0.562715581367
             Q1:  -11644.293171427795
 Quadratic coef:       0.010679474608
 Linear coef   :      -0.020037223860
           Qmin:  -11644.293212323017
Quadratic minimum step length (  0.527893856546) accepted
    Initial Ne1:    7192.00024126
      Final Ne1:    7192.00000000

=================== Penalty functional idempotency correction ==================
 RMS occupancy error at iteration   1:  0.000019 (step -0.4999 Ne1=   7192.0000)
            Final RMS occupancy error   :  0.000000 (Ne1=   7192.0000)
               Final occupancy bounds   : [ -0.0000,  1.0000]
================================================================================

    4        -1.164428381368E+04     2.8968E-05     2.6201E-05    -4.6908E-02
MG BCs: +ve charge blocks (gridpoints):     25499 (   17169145).
MG BCs: -ve charge blocks (gridpoints):      8365 (    1073861).
MG BCs:     Elided blocks (gridpoints):    184546 (  187976819).
MG BCs: Computational effort saved:  99.9836%.
MG BCs: Charge after coarse-graining:           -9.0007083.
MG DL_MG: Calling solver with defect correction order = 8
MG DL_MG: Solver finished
MG Hartree energy from (\int phi*rho dr):              1251.890386
MG Hartree energy from (\int eps (grad phi)^2 dr):     1251.247765
MG Discrepancy due to finite box and discretization:     -0.642622 (  -0.05133%)
MG Correction to account for finite box:                  0.457748
MG Remaining discrepancy, due to discretization:         -0.184873 (  -0.01477%)
      ideal mu1:      -0.721412648740
             Q0:  -11644.293217528611
             G0:      -0.013396589078
   RMS gradient:       0.000017789470
MG BCs: +ve charge blocks (gridpoints):     25498 (   17169771).
MG BCs: -ve charge blocks (gridpoints):      8365 (    1073635).
MG BCs:     Elided blocks (gridpoints):    184547 (  187976419).
MG BCs: Computational effort saved:  99.9836%.
MG BCs: Charge after coarse-graining:           -9.0007081.
MG DL_MG: Calling solver with defect correction order = 8
MG DL_MG: Solver finished
MG Hartree energy from (\int phi*rho dr):              1252.326464
MG Hartree energy from (\int eps (grad phi)^2 dr):     1251.683882
MG Discrepancy due to finite box and discretization:     -0.642582 (  -0.05131%)
MG Correction to account for finite box:                  0.457744
MG Remaining discrepancy, due to discretization:         -0.184838 (  -0.01476%)
     Trial step:       0.545026695113
             Q1:  -11644.297168316552
 Quadratic coef:       0.003350710731
 Linear coef   :      -0.007301498671
           Qmin:  -11644.297195183439
Quadratic minimum step length (  0.593830982394) accepted
    Initial Ne1:    7192.00013137
      Final Ne1:    7192.00000000

=================== Penalty functional idempotency correction ==================
 RMS occupancy error at iteration   1:  0.000014 (step -0.4998 Ne1=   7192.0000)
            Final RMS occupancy error   :  0.000000 (Ne1=   7192.0000)
               Final occupancy bounds   : [ -0.0000,  1.0000]
================================================================================

    5        -1.164429321753E+04     1.7789E-05     1.6090E-05    -9.4039E-03
MG BCs: +ve charge blocks (gridpoints):     25498 (   17169833).
MG BCs: -ve charge blocks (gridpoints):      8365 (    1073611).
MG BCs:     Elided blocks (gridpoints):    184547 (  187976381).
MG BCs: Computational effort saved:  99.9836%.
MG BCs: Charge after coarse-graining:           -9.0007081.
MG DL_MG: Calling solver with defect correction order = 8
MG DL_MG: Solver finished
MG Hartree energy from (\int phi*rho dr):              1252.365546
MG Hartree energy from (\int eps (grad phi)^2 dr):     1251.722967
MG Discrepancy due to finite box and discretization:     -0.642579 (  -0.05131%)
MG Correction to account for finite box:                  0.457744
MG Remaining discrepancy, due to discretization:         -0.184835 (  -0.01476%)
      ideal mu1:      -0.721811350768
             Q0:  -11644.297196515719
             G0:      -0.005120393826
   RMS gradient:       0.000010999313
MG BCs: +ve charge blocks (gridpoints):     25498 (   17169827).
MG BCs: -ve charge blocks (gridpoints):      8365 (    1073633).
MG BCs:     Elided blocks (gridpoints):    184547 (  187976365).
MG BCs: Computational effort saved:  99.9836%.
MG BCs: Charge after coarse-graining:           -9.0007081.
MG DL_MG: Calling solver with defect correction order = 8
MG DL_MG: Solver finished
MG Hartree energy from (\int phi*rho dr):              1252.316623
MG Hartree energy from (\int eps (grad phi)^2 dr):     1251.674050
MG Discrepancy due to finite box and discretization:     -0.642573 (  -0.05131%)
MG Correction to account for finite box:                  0.457741
MG Remaining discrepancy, due to discretization:         -0.184832 (  -0.01476%)
     Trial step:       0.568905737175
             Q1:  -11644.299097832059
 Quadratic coef:       0.001011705084
 Linear coef   :      -0.002913021424
           Qmin:  -11644.299293395025
Quadratic minimum step length (  0.819030479556) accepted
    Initial Ne1:    7192.00016962
      Final Ne1:    7192.00000000

=================== Penalty functional idempotency correction ==================
 RMS occupancy error at iteration   1:  0.000017 (step -0.4993 Ne1=   7192.0000)
            Final RMS occupancy error   :  0.000000 (Ne1=   7192.0000)
               Final occupancy bounds   : [ -0.0000,  1.0000]
================================================================================

    6        -1.164429719652E+04     1.0999E-05     9.9486E-06    -3.9790E-03
MG BCs: +ve charge blocks (gridpoints):     25498 (   17169846).
MG BCs: -ve charge blocks (gridpoints):      8366 (    1073642).
MG BCs:     Elided blocks (gridpoints):    184547 (  187976337).
MG BCs: Computational effort saved:  99.9836%.
MG BCs: Charge after coarse-graining:           -9.0007081.
MG DL_MG: Calling solver with defect correction order = 8
MG DL_MG: Solver finished
MG Hartree energy from (\int phi*rho dr):              1252.294977
MG Hartree energy from (\int eps (grad phi)^2 dr):     1251.652407
MG Discrepancy due to finite box and discretization:     -0.642570 (  -0.05131%)
MG Correction to account for finite box:                  0.457739
MG Remaining discrepancy, due to discretization:         -0.184831 (  -0.01476%)
      ideal mu1:      -0.721741216481
             Q0:  -11644.299292078125
             G0:      -0.003768428132
   RMS gradient:       0.000009436975
MG BCs: +ve charge blocks (gridpoints):     25498 (   17169505).
MG BCs: -ve charge blocks (gridpoints):      8365 (    1073714).
MG BCs:     Elided blocks (gridpoints):    184547 (  187976606).
MG BCs: Computational effort saved:  99.9836%.
MG BCs: Charge after coarse-graining:           -9.0007082.
MG DL_MG: Calling solver with defect correction order = 8
MG DL_MG: Solver finished
MG Hartree energy from (\int phi*rho dr):              1252.157785
MG Hartree energy from (\int eps (grad phi)^2 dr):     1251.515191
MG Discrepancy due to finite box and discretization:     -0.642594 (  -0.05132%)
MG Correction to account for finite box:                  0.457750
MG Remaining discrepancy, due to discretization:         -0.184844 (  -0.01476%)
     Trial step:       0.682606137344
             Q1:  -11644.300045041833
 Quadratic coef:       0.001819388463
 Linear coef   :      -0.002572352171
           Qmin:  -11644.300201311617
Quadratic minimum step length (  0.482553180725) accepted
    Initial Ne1:    7192.00017663
      Final Ne1:    7192.00000000

=================== Penalty functional idempotency correction ==================
 RMS occupancy error at iteration   1:  0.000001 (step -0.5000 Ne1=   7192.0000)
            Final RMS occupancy error   :  0.000000 (Ne1=   7192.0000)
               Final occupancy bounds   : [  0.0000,  1.0000]
================================================================================

    7        -1.164429929208E+04     9.4370E-06     8.5355E-06    -2.0956E-03
MG BCs: +ve charge blocks (gridpoints):     25498 (   17169599).
MG BCs: -ve charge blocks (gridpoints):      8365 (    1073699).
MG BCs:     Elided blocks (gridpoints):    184547 (  187976527).
MG BCs: Computational effort saved:  99.9836%.
MG BCs: Charge after coarse-graining:           -9.0007082.
MG DL_MG: Calling solver with defect correction order = 8
MG DL_MG: Solver finished
MG Hartree energy from (\int phi*rho dr):              1252.197877
MG Hartree energy from (\int eps (grad phi)^2 dr):     1251.555290
MG Discrepancy due to finite box and discretization:     -0.642587 (  -0.05132%)
MG Correction to account for finite box:                  0.457747
MG Remaining discrepancy, due to discretization:         -0.184840 (  -0.01476%)
      ideal mu1:      -0.721629481307
             Q0:  -11644.300201333477
             G0:      -0.002271898899
   RMS gradient:       0.000007327327
MG BCs: +ve charge blocks (gridpoints):     25498 (   17169535).
MG BCs: -ve charge blocks (gridpoints):      8365 (    1073717).
MG BCs:     Elided blocks (gridpoints):    184547 (  187976573).
MG BCs: Computational effort saved:  99.9836%.
MG BCs: Charge after coarse-graining:           -9.0007082.
MG DL_MG: Calling solver with defect correction order = 8
MG DL_MG: Solver finished
MG Hartree energy from (\int phi*rho dr):              1252.138216
MG Hartree energy from (\int eps (grad phi)^2 dr):     1251.495612
MG Discrepancy due to finite box and discretization:     -0.642603 (  -0.05132%)
MG Correction to account for finite box:                  0.457753
MG Remaining discrepancy, due to discretization:         -0.184851 (  -0.01476%)
     Trial step:       0.573928360301
             Q1:  -11644.301200163900
 Quadratic coef:       0.000305076786
 Linear coef   :      -0.001303907210
           Qmin:  -11644.301594567974
Quadratic minimum step length (  1.226493395166) accepted
    Initial Ne1:    7192.00027040
      Final Ne1:    7192.00000000

=================== Penalty functional idempotency correction ==================
 RMS occupancy error at iteration   1:  0.000018 (step -0.4990 Ne1=   7192.0000)
            Final RMS occupancy error   :  0.000000 (Ne1=   7192.0000)
               Final occupancy bounds   : [ -0.0000,  1.0000]
================================================================================

    8        -1.164430020133E+04     7.3273E-06     6.6274E-06    -9.0926E-04
MG BCs: +ve charge blocks (gridpoints):     25498 (   17169453).
MG BCs: -ve charge blocks (gridpoints):      8365 (    1073761).
MG BCs:     Elided blocks (gridpoints):    184547 (  187976611).
MG BCs: Computational effort saved:  99.9836%.
[...]
MG DL_MG: Solver finished
MG Hartree energy from (\int phi*rho dr):              1210.012155
MG Hartree energy from (\int eps (grad phi)^2 dr):     1209.821905
MG Discrepancy due to finite box and discretization:     -0.190249 (  -0.01572%)
MG Correction to account for finite box:                  0.006297
MG Remaining discrepancy, due to discretization:         -0.183952 (  -0.01520%)
     Trial step:       1.116299049354
             Q1:  -11678.526670990279
 Quadratic coef:       0.000000063519
 Linear coef   :      -0.000000051646
           Qmin:  -11678.526671012651
Quadratic minimum step length (  0.453815740725) accepted
    Initial Ne1:    7192.00000000
      Final Ne1:    7192.00000000

=================== Penalty functional idempotency correction ==================
 RMS occupancy error at iteration   1:  0.000000 (step -0.5000 Ne1=   7192.0000)
            Final RMS occupancy error   :  0.000000 (Ne1=   7192.0000)
               Final occupancy bounds   : [  0.0000,  1.0000]
================================================================================

    7        -1.167852667100E+04     3.3066E-08     2.9907E-08    -1.0827E-08

Reusing previously generated solute cavity.
MG BCs: +ve charge blocks (gridpoints):     30102 (   19528467).
MG BCs: -ve charge blocks (gridpoints):      8351 (    1042583).
MG BCs:     Elided blocks (gridpoints):    179943 (  185648775).
MG BCs: Computational effort saved:  99.9814%.
MG BCs: Charge after coarse-graining:           -9.0010092.
MG DL_MG: Calling solver with defect correction order = 8
MG DL_MG: Solver finished
MG Hartree energy from (\int phi*rho dr):              1210.011734
MG Hartree energy from (\int eps (grad phi)^2 dr):     1209.821485
MG Discrepancy due to finite box and discretization:     -0.190249 (  -0.01572%)
MG Correction to account for finite box:                  0.006297
MG Remaining discrepancy, due to discretization:         -0.183952 (  -0.01520%)
      ideal mu1:      -0.481449268001
             Q0:  -11678.526671012514
             G0:      -0.000000009545
   RMS gradient:       0.000000015002

Reusing previously generated solute cavity.
MG BCs: +ve charge blocks (gridpoints):     30102 (   19528466).
MG BCs: -ve charge blocks (gridpoints):      8351 (    1042583).
MG BCs:     Elided blocks (gridpoints):    179943 (  185648776).
MG BCs: Computational effort saved:  99.9814%.
MG BCs: Charge after coarse-graining:           -9.0010092.
MG DL_MG: Calling solver with defect correction order = 8
MG DL_MG: Solver finished
MG Hartree energy from (\int phi*rho dr):              1210.011839
MG Hartree energy from (\int eps (grad phi)^2 dr):     1209.821589
MG Discrepancy due to finite box and discretization:     -0.190249 (  -0.01572%)
MG Correction to account for finite box:                  0.006297
MG Remaining discrepancy, due to discretization:         -0.183952 (  -0.01520%)
     Trial step:       0.711754227211
             Q1:  -11678.526671014144
 Quadratic coef:       0.000000005164
 Linear coef   :      -0.000000006794
           Qmin:  -11678.526671014748
Quadratic minimum step length (  0.468183276686) accepted
    Initial Ne1:    7192.00000000
      Final Ne1:    7192.00000000

=================== Penalty functional idempotency correction ==================
 RMS occupancy error at iteration   1:  0.000000 (step -0.5000 Ne1=   7192.0000)
            Final RMS occupancy error   :  0.000000 (Ne1=   7192.0000)
               Final occupancy bounds   : [ -0.0000,  1.0000]
================================================================================

    8        -1.167852667101E+04     1.5002E-08     1.3569E-08    -1.0361E-08

Reusing previously generated solute cavity.
MG BCs: +ve charge blocks (gridpoints):     30102 (   19528467).
MG BCs: -ve charge blocks (gridpoints):      8351 (    1042583).
MG BCs:     Elided blocks (gridpoints):    179943 (  185648775).
MG BCs: Computational effort saved:  99.9814%.
MG BCs: Charge after coarse-graining:           -9.0010092.
MG DL_MG: Calling solver with defect correction order = 8
MG DL_MG: Solver finished
MG Hartree energy from (\int phi*rho dr):              1210.011803
MG Hartree energy from (\int eps (grad phi)^2 dr):     1209.821554
MG Discrepancy due to finite box and discretization:     -0.190249 (  -0.01572%)
MG Correction to account for finite box:                  0.006297
MG Remaining discrepancy, due to discretization:         -0.183952 (  -0.01520%)
      ideal mu1:      -0.481449280538
             Q0:  -11678.526671014377
             G0:      -0.000000004192
   RMS gradient:       0.000000008528

Reusing previously generated solute cavity.
MG BCs: +ve charge blocks (gridpoints):     30102 (   19528466).
MG BCs: -ve charge blocks (gridpoints):      8351 (    1042583).
MG BCs:     Elided blocks (gridpoints):    179943 (  185648776).
MG BCs: Computational effort saved:  99.9814%.
MG BCs: Charge after coarse-graining:           -9.0010092.
MG DL_MG: Calling solver with defect correction order = 8
MG DL_MG: Solver finished
MG Hartree energy from (\int phi*rho dr):              1210.011785
MG Hartree energy from (\int eps (grad phi)^2 dr):     1209.821536
MG Discrepancy due to finite box and discretization:     -0.190249 (  -0.01572%)
MG Correction to account for finite box:                  0.006297
MG Remaining discrepancy, due to discretization:         -0.183952 (  -0.01520%)
     Trial step:       0.577262008356
             Q1:  -11678.526671016007
 Quadratic coef:       0.000000000789
 Linear coef   :      -0.000000002420
           Qmin:  -11678.526671016230
Quadratic minimum step length (  0.884725441480) accepted
    Initial Ne1:    7192.00000000
      Final Ne1:    7192.00000000

=================== Penalty functional idempotency correction ==================
 RMS occupancy error at iteration   1:  0.000000 (step -0.5000 Ne1=   7192.0000)
            Final RMS occupancy error   :  0.000000 (Ne1=   7192.0000)
               Final occupancy bounds   : [  0.0000,  1.0000]
================================================================================

    9        -1.167852667101E+04     8.5280E-09     7.7134E-09    -1.8626E-09

Reusing previously generated solute cavity.
MG BCs: +ve charge blocks (gridpoints):     30102 (   19528466).
MG BCs: -ve charge blocks (gridpoints):      8351 (    1042583).
MG BCs:     Elided blocks (gridpoints):    179943 (  185648776).
MG BCs: Computational effort saved:  99.9814%.
MG BCs: Charge after coarse-graining:           -9.0010092.
MG DL_MG: Calling solver with defect correction order = 8
MG DL_MG: Solver finished
MG Hartree energy from (\int phi*rho dr):              1210.011776
MG Hartree energy from (\int eps (grad phi)^2 dr):     1209.821527
MG Discrepancy due to finite box and discretization:     -0.190249 (  -0.01572%)
MG Correction to account for finite box:                  0.006297
MG Remaining discrepancy, due to discretization:         -0.183952 (  -0.01520%)
      ideal mu1:      -0.481449254976
   10        -1.167852667102E+04     9.0009E-09     8.1411E-09    -2.0955E-09
Finished density kernel iterations (  10)

Writing density kernel to file "host_21381.dkn" ... done


>>> Density kernel optimised for the current NGWF basis:
     ~~~~~~~~~~~~~~~~~~~~~~~~~~~~~~~~~~~~~~~~~~~~~~~~~~~~~~~~~~~
     Total energy                =  -1.16785266710165E+04  Eh
     Estimated bandgap           =   6.7813E-02  Eh
     RMS occupancy error         =   4.6699E-16
     [H,K] commutator            =   8.1411E-09
     Occupancy bounds            = [ -0.000:  1.000]
     ~~~~~~~~~~~~~~~~~~~~~~~~~~~~~~~~~~~~~~~~~~~~~~~~~~~~~~~~~~~




################################################################################
########################### NGWF CG iteration  004 #############################
################################################################################
****** Reciprocal space K.E. preconditioning with k_zero =  3.5000 a0^-1 *******

>>> Checking for convergence of NGWFs: 
           ........................................................
           |         *** NGWF optimisation converged ***          |
           | RMS NGWF gradient =    0.00000196057340              |
           | Criteria satisfied:                                  |
           | -> RMS NGWF gradient lower than set threshold.       |
           ========================================================

Reusing previously generated solute cavity.
MG BCs: +ve charge blocks (gridpoints):     30102 (   19528466).
MG BCs: -ve charge blocks (gridpoints):      8351 (    1042583).
MG BCs:     Elided blocks (gridpoints):    179943 (  185648776).
MG BCs: Computational effort saved:  99.9814%.
MG BCs: Charge after coarse-graining:           -9.0010092.
MG DL_MG: Calling solver with defect correction order = 8
MG DL_MG: Solver finished
MG Hartree energy from (\int phi*rho dr):              1210.011776
MG Hartree energy from (\int eps (grad phi)^2 dr):     1209.821527
MG Discrepancy due to finite box and discretization:     -0.190249 (  -0.01572%)
MG Correction to account for finite box:                  0.006297
MG Remaining discrepancy, due to discretization:         -0.183952 (  -0.01520%)

================================================================================
           ---------------- ENERGY COMPONENTS (Eh) ----------------
           | Kinetic                    :     8524.42506689702350 |
           | Pseudo. (local,OBC,corr'd) :    -5047.92721892224745 |
           | Pseudopotential (non-local):     1403.33829425393469 |
           | Hartree (molecular)        :     1210.01177603495876 |
           | Exchange-correlation       :    -3356.52817814421724 |
           | Ion-ion (open BC)          :   801496.05771060194820 |
           | Dispersion Correction      :       -3.22705481173751 |
           | Smeared ion non-self corr. :  -801448.17521401168779 |
           | Smeared ion self corr.     :   -14457.16956389741972 |
           | Solvent cavitation energy  :        2.37556162231182 |
           | Solute-solvent dis-rep en. :       -1.70785063932052 |
           | Total                      :   -11678.52667101651605 |
           --------------------------------------------------------
           ------ LOCAL ENERGY COMPONENTS FROM MATRIX TRACES ------
           | Pseudopotential (local)    :    -5047.92721892226291 |
           | Hartree                    :    -1991.27410153789765 |
           --------------------------------------------------------
           Integrated density           :     7191.99999999809097
           Integrated density tr(KS)    :     7192.00000000000091
================================================================================


                        <<<<< CALCULATION SUMMARY >>>>>                         
|ITER|    RMS GRADIENT   |     TOTAL ENERGY    |   step   |     Epredicted              
   0     0.00004212642473 -11678.45608514267951   0.635547 -11678.51710362818812        
   1     0.00000931626975 -11678.52623734076042   0.075125 -11678.52659009732452        
   2     0.00000424852376 -11678.52665449539199   0.014751 -11678.52666890030378        
   3     0.00000196057340 -11678.52667101647239  <-- CG                                 

=================== Finished the calculation in solvent ========================
= Adjusting the following parameters: 
= read_denskern: F
= read_tightbox_ngwfs: F
= maxit_pen: 0 (restored to user-specified value)
= restart read filename prefix: ""
= restart write filename prefix: ""
================================================================================

================================================================================
IS: Calculation in solvent completed (NGWFs converged).      

Individual components of total energy in solvent:     hartree           kcal/mol
- Usual non-electrostatic DFT terms:    -12889.20615803442161    -8088098.801847
- Electrostatic fixed charge energy:      1210.01177603495876      759293.836717
- Apolar cavitation energy:                  2.37556162231182        1490.687392
- Apolar dispersion-repulsion energy:       -1.70785063932052       -1071.692433
 -------------------------------------------------------------------------------
- Total energy in solvent:              -11678.52667101647239    -7328385.970171

Components of total energy in solvent:                hartree           kcal/mol
- Usual non-electrostatic DFT terms:    -12889.20615803442161    -8088098.801847
- Electrostatic energy:                   1210.01177603495876      759293.836717
- Apolar energy terms:                       0.66771098299129         418.994959
 -------------------------------------------------------------------------------
- Total energy in solvent:              -11678.52667101647239    -7328385.970171

Calculation of free energy of solvation:              hartree           kcal/mol
- Total energy in solvent:         (+)  -11678.52667101647239    -7328385.970171
- Total energy in vacuum:          (-)  -11674.59296222275589    -7325917.530689
 -------------------------------------------------------------------------------
- Total free energy of solvation:           -3.93370879371651       -2468.439483

Components of polar term in f.e. of solvation:        hartree           kcal/mol
- Electrostatic:                            -4.64300966315955       -2913.532489
- Change in nonelectrostatic DFT terms:      0.04158988645213          26.098047
 -------------------------------------------------------------------------------
- Polar term in f.e. of solvation:          -4.60141977670742       -2887.434441

Components of free energy of solvation:               hartree           kcal/mol
- Polar term in f.e. of solvation: (+)      -4.60141977670742       -2887.434441
- Apolar (cavitation, dis., rep.): (+)       0.66771098299129         418.994959
 -------------------------------------------------------------------------------
- Total free energy of solvation:           -3.93370879371612       -2468.439483
================================================================================


------------------------------ TIMING INFORMATION ------------------------------
AVERAGE TIME:   29148.808s on     40 node(s)                                    
TOTAL TIME:     29148.809s on     40 node(s)                                    
================= AVERAGE TIMINGS FROM ALL NODES (CUMULATIVE) ==================
|| TAG                                    #calls    cpu time   %total  Gflops ||
|| work_imbalance                       :     1        0.00s   0.000%  ------ ||
|| parallel_prepare_fd_halos_request    :  2067        0.02s   0.000%  ------ ||
|| sparse_set_to_garbage                :   194        0.04s   0.000%  ------ ||
|| parallel_prepare_fd_halos_satisfy    :  2067        0.06s   0.000%  ------ ||
|| ngwfs_initialise_from_radial         :     1        0.17s   0.001%  ------ ||
|| basis_extract_function_from_box      :  5691        0.22s   0.001%  ------ ||
|| parallel_prepare_fd_halos_alloc      :  2067        0.24s   0.001%  ------ ||
|| pseudopotentials_nonlocal_mat        :    33        1.38s   0.005%  ------ ||
|| restart_ngwfs_tightbox_input         :     1        3.16s   0.011%  ------ ||
|| parallel_prepare_fd_halos_comms_imbal:  2067        3.37s   0.012%  ------ ||
|| density_init_guess_real              :     1        4.27s   0.015%  ------ ||
|| openbc_locps_radial                  :     1        4.60s   0.016%  ------ ||
|| restart_kernel_read                  :     1        5.19s   0.018%  ------ ||
|| parallel_prepare_fd_halos_clear      :  2067       15.23s   0.052%  ------ ||
|| sparse_init                          :     2       22.39s   0.077%  ------ ||
|| projectors_func_ovlp_box             :    33       25.26s   0.087%  ------ ||
|| parallel_prepare_fd_halos_comms_wait :  2067       25.98s   0.089%  ------ ||
|| projectors_init_fftbox_recip         :   220       28.22s   0.097%  ------ ||
|| function_ops_brappd_ketppd           :    33       29.89s   0.103%  ------ ||
|| palser_mano_kernel_optimise          :     1       43.36s   0.149%  ------ ||
|| parallel_prepare_fd_halos            :  2067       44.91s   0.154%  ------ ||
|| fourier_apply_box_pair               :  8222       56.95s   0.195% 557.272 ||
|| basis_copy_function_to_box           : 92696       58.83s   0.202%  ------ ||
|| pseudo_make_structure_factor         :     2       61.42s   0.211%  ------ ||
|| ngwf_gradient_coeffs                 :    17       67.76s   0.232%  ------ ||
|| sparse_embed_hotelling_invert_embed  :    33      102.19s   0.351%  ------ ||
|| restart_kernel_write                 :    18      108.33s   0.372%  ------ ||
|| finite_difference_derivative         :  2067      125.71s   0.431%  ------ ||
|| integrals_kinetic                    :    33      176.38s   0.605%  ------ ||
|| openbc_locps_on_grid                 :     2      208.75s   0.716%  ------ ||
|| projectors_gradient_batch            :   187      223.30s   0.766%  ------ ||
|| fourier_apply_cell_backward          :  1379      242.60s   0.832%  83.288 ||
|| fourier_apply_cell_forward           :  1377      255.49s   0.877%  78.971 ||
|| basis_dot_function_with_box          : 13.79M     273.51s   0.938%  ------ ||
|| sparse_trace                         :  5603      283.95s   0.974%  ------ ||
|| kernel_purify                        :   526      369.19s   1.267%  ------ ||
|| restart_ngwfs_tightbox_output        :    15      408.04s   1.400%  ------ ||
|| hamiltonian_energy_components        :     4      424.86s   1.458%  ------ ||
|| basis_add_function_to_box            : 28.73M     561.27s   1.926%  ------ ||
|| xc_energy_potential                  :   344      583.12s   2.000%  ------ ||
|| lnv_gradient_norm                    :   170      617.85s   2.120%  ------ ||
|| kernel_fix                           :   170      674.97s   2.316%  ------ ||
|| ngwf_gradient_build_batch            :   187      805.49s   2.763%  ------ ||
|| cell_grid_deposit_box_real           : 58040      890.07s   3.054%  ------ ||
|| integrals_locpot_mat_els_batch       :  1969      911.42s   3.127%  ------ ||
|| cell_grid_extract_box_real           : 55175     1055.53s   3.621%  ------ ||
|| ngwf_gradient_batch                  :   187     1113.61s   3.820%  ------ ||
|| density_batch_row_sums               :  3773     1268.81s   4.353%  ------ ||
|| ngwf_gradient_lnv                    :    17     1284.95s   4.408%  ------ ||
|| density_fftbox_deposit_to_cell       : 55909     1511.57s   5.186%  ------ ||
|| sparse_product                       :  7018     2306.93s   7.914%  ------ ||
|| multigrid_prepare_bound_cond         :   344     2835.99s   9.729%  ------ ||
|| potential_apply_to_ngwf_batch        :  1969     3421.20s  11.737%  ------ ||
|| density_fftbox_interpolate_multiply  : 55909     3894.20s  13.360%  ------ ||
|| fourier_apply_box                    : 193.2k    3904.14s  13.394% 925.410 ||
|| integrals_locpot_dbl_grid            :   179     4357.00s  14.947%  ------ ||
|| density_batch_interp_deposit         :  3773     6110.00s  20.961%  ------ ||
|| dl_mg_solver_calls                   :   344     7542.40s  25.875%  ------ ||
|| density_on_dbl_grid                  :   343     7793.07s  26.735%  ------ ||
|| multigrid_calculate_hartree          :   344    10553.91s  36.207%  ------ ||
|| hamiltonian_lhxc_calculate           :   339    18965.50s  65.064%  ------ ||
|| lnv_denskernel_optimise_cg           :    17    24790.78s  85.049%  ------ ||
|| ngwf_cg_optimise                     :     2    28286.33s  97.041%  ------ ||
|| total_time                           :     1    29148.81s 100.000%  ------ ||
================================================================================
Overhead of generating timer report: 
- 0 ms averaging over threads,
- 5 ms ensuring consistency across MPI ranks,
- 2 ms printing in order.

Job completed: 30-04-2020 09:58 (+0100)

