 +---------------------------------------------------------------+
 |                                                               |
 |        ####### #     # ####### ####### ####### ######         |
 |        #     # ##    # #          #    #       #     #        |
 |        #     # # #   # #          #    #       #     #        |
 |        #     # #  #  # #####      #    #####   ######         |
 |        #     # #   # # #          #    #       #              |
 |        #     # #    ## #          #    #       #              |
 |        ####### #     # #######    #    ####### #              |
 |                                                               |
 |        Linear-Scaling Ab Initio Total Energy Program          |
 |                                                               |
 |          Release for academic collaborators of ODG            |
 |                                             Version 5.3.2.6.  |
 |                                                               |
 +---------------------------------------------------------------+
 |                                                               |
 |  Authors:                                                     |
 |  Jacek Dziedzic, Peter D. Haynes, Nicholas D. M. Hine,        |
 |  Arash. A. Mostofi, Mike C. Payne and Chris-Kriton Skylaris   |
 |                                                               |
 |  Contributors:                                                |
 |  J. Aarons, L. Andrinopoulos, P. W. Avraam, R. A. Bell,       |
 |  A. Bhandari, G. A. Bramley, R. J. Charlton, S. J. Clark,     |
 |  R. J. Clements, G. C. Constantinescu, F. Corsetti,           |
 |  N. Corsini, O. Dieguez, S. M. M. Dubois, K. K. B. Duff,      |
 |  J. M. Escartin, A. Greco, H. Helal, Q. O. Hill, L. P. Lee,   |
 |  J.-H. Li, E. B. Linscott, G. Moynihan, D. D. O`Regan,        |
 |  O. K. Okan, M. J. S. Phipps, C. J. Pickard,                  |
 |  J. C. A. Prentice, M. I. J. Probert, L. E. Ratcliff,         |
 |  M. Robinson, A. Ruiz Serrano, J. S. Spencer, E. W. Tait,     |
 |  G. Teobaldi, D. Turban, V. Vitale, K. A. Wilkinson,          |
 |  C. Weber, J. C. Womack, N. Yeung and T. J. Zuehlsdorff       |
 |                                                               |
 |                                   Copyright (c) 2004-2019     |
 |                                                               |
 |  Please cite:                                                 |
 |  "Introducing ONETEP: Linear-scaling density functional       |
 |   simulations on parallel computers".                         |
 |   C.-K. Skylaris, P. D. Haynes, A. A. Mostofi, M. C. Payne.   |
 |   J. Chem. Phys. 122 084119 (2005).                           |
 |                                                               |
 |          in all publications arising from your use of ONETEP. |
 |                                                               |
 +---------------------------------------------------------------+
 |                                                               |
 |   ONETEP is based on developments described in the following  |
 |   publications:                                               |
 |                                                               |
 |  "Nonorthogonal generalized Wannier function pseudopotential  |
 |   plane-wave method".                                         |
 |   C.-K. Skylaris, A. A. Mostofi, P. D. Haynes, O. Dieguez,    |
 |   M. C. Payne.                                                |
 |   Phys. Rev. B 66 035119 (2002).                              |
 |                                                               |
 |  "Preconditioned iterative minimization for linear-scaling    |
 |   electronic structure calculations".                         |
 |   A. A. Mostofi, P. D. Haynes, C.-K. Skylaris, M. C. Payne.   |
 |   J. Chem. Phys. 119(17), pp.8842-8848 (2003).                |
 |                                                               |
 |  "Total-energy calculations on a real space grid with         |
 |   localized functions and a plane-wave basis".                |
 |   A. A. Mostofi, C.-K. Skylaris, P. D. Haynes, M. C. Payne.   |
 |   Comput. Phys. Commun. 147, pp.788-802 (2002).               |
 |                                                               |
 |  "Accurate kinetic energy evaluation in electronic structure  |
 |   calculations with localized functions on real space grids"  |
 |   C.-K. Skylaris, A. A. Mostofi, P. D. Haynes, C. J. Pickard, |
 |   M. C. Payne.                                                |
 |   Comput. Phys. Commun. 140, pp.315-322 (2001).               |
 |                                                               |
 |  "Accurate ionic forces and geometry optimization in linear-  |
 |   scaling density-functional theory with local orbitals"      |
 |   N. D. M. Hine, M. Robinson, P. D. Haynes, C.-K. Skylaris,   |
 |   M. C. Payne, and A. A. Mostofi.                             |
 |   Phys. Rev. B 83 195102 (2011).                              |
 |                                                               |
 +---------------------------------------------------------------+

Job started: 17-02-2020 21:59 (-0000)
 
Reading parameters from file "host_23281.dat" ...... done

If your calculation crashes here, before "Checking processes and threads..."
is displayed, then your stack size is insufficient.
If so, use "ulimit -s unlimited" at runtime.
You can disable this check with "check_stack_size F".

Checking processes and threads...
   Determining the default number of threads...
      No default threads set at compilation time: defaulting to 1.
      OpenMP library call suggests 4 threads.
      Hybrid MPI-OpenMP compilation detected.
      Number of MPI processes > 1.
      OMP_NUM_THREADS environment variable present and
      its value matches the one obtained from the OpenMP library call.
      Using this value as default.
      Default threads: 4
      Default applies to threads_max and threads_num_fftboxes.
      Settings in the input file override this default.
   ... done

   Running with 60 MPI processes.
   There are 6 MPI processes running on the same node as the root process.
   Each MPI process is using: 
               1 threads for simulation cell FFTs.
               1 threads for parallel FFT box operations.
               4 threads for loops over batched FFT box operations.
               4 threads in other parallel regions.
... done

Basic input checks...... done

Reading geometry and species blocks from file "host_23281.dat" ...
  <species_atomic_set> block not found: NGWF initialisation set to SOLVE
IS: Dielectric excluded regions:
    - NONE.
    
  Number of PPD points along a3 set to 1.  This is 
  the default value, it may have been provided also in the input file.
... done
 Writing xyz coordinates to file "host_23281.xyz" ... done


--------------------------------------------------------------------------------
---------------------------------- INPUT FILE ----------------------------------
--------------------------------------------------------------------------------

cutoff_energy       : 800 eV                                                    
xc_functional PBE                                                               
task SINGLEPOINT                                                                
write_xyz true                                                                  
output_detail VERBOSE                                                           
ngwf_threshold_orig : 0.000002                                                  
kernel_cutoff       : 1000                                                      
k_zero              : 3.5                                                       
elec_cg_max 0                                                                   
occ_mix 1.0                                                                     
dispersion 1                                                                    
maxit_ngwf_cg 40                                                                
minit_lnv 10                                                                    
maxit_lnv 10                                                                    
write_denskern T                                                                
write_tightbox_ngwfs T                                                          
charge 9                                                                        
is_implicit_solvent T                                                           
is_auto_solvation T                                                             
is_include_apolar T                                                             
is_smeared_ion_rep T                                                            
is_solvent_surf_tension 4.7624E-5 Ha/bohr**2                                    
is_apolar_scaling_factor 0.281075                                               
is_solvation_beta 1.3                                                           
is_density_threshold 0.00035                                                    
is_bulk_permittivity 78.54                                                      
is_dielectric_model fix_initial                                                 
is_smeared_ion_width 0.8                                                        
mg_defco_fd_order 8                                                             
is_bc_coarseness 10                                                             
is_bc_surface_coarseness 1                                                      
fine_grid_scale 2.0                                                             
%block species                                                                  
N   N   7 4 8.0                                                                 
H   H   1 1 8.0                                                                 
C   C   6 4 8.0                                                                 
S   S  16 9 8.0                                                                 
O   O   8 4 8.0                                                                 
%endblock species                                                               
%block species_pot                                                              
N   N_00.recpot                                                                 
H   H_04.recpot                                                                 
C   C_01.recpot                                                                 
S   S_00.recpot                                                                 
O   O_02.recpot                                                                 
%endblock species_pot                                                           
%block lattice_cart                                                             
139.898   0.000   0.000                                                         
0.000 144.87   0.000                                                            
0.000   0.000   168.12                                                          
%endblock lattice_cart                                                          
%block positions_abs                                                            
     Hash =   000008747227602225071850
%endblock positions_abs                                                         

--------------------------------------------------------------------------------
-------------------------------- END INPUT FILE --------------------------------
--------------------------------------------------------------------------------


 
 ESDF WARNING(1): "kernelcutoff" (esdf_physical) has no units. Assume "bohr".
 ESDF WARNING(2): "kzero" (esdf_physical) has no units. Assume "1/bohr".
 ESDF WARNING(3
 ): "issmearedionwidth" (esdf_physical) has no units. Assume "bohr".
<<<<<<<<<<<<<<<<<<<<<<<<<<<<<<<<< Full system >>>>>>>>>>>>>>>>>>>>>>>>>>>>>>>>>>
<<<<<<<<<<<<<<<<<<<<<<<<< Pseudopotential information >>>>>>>>>>>>>>>>>>>>>>>>>>
File: N_00.recpot [ 2001 points up to Gmax=  52.9 (1/bohr)]
  Atomic number:  7;  ionic charge:  5.000000
    Shell 1: l = 0; rc = 1.48 bohr
File: H_04.recpot [ 2001 points up to Gmax=  52.9 (1/bohr)]
  Atomic number:  1;  ionic charge:  1.000000
    Local potential
File: C_01.recpot [ 2001 points up to Gmax=  52.9 (1/bohr)]
  Atomic number:  6;  ionic charge:  4.000000
    Shell 1: l = 0; rc = 1.48 bohr
File: S_00.recpot [ 2001 points up to Gmax=  52.9 (1/bohr)]
  Atomic number: 16;  ionic charge:  6.000000
    Shell 1: l = 0; rc = 1.90 bohr
    Shell 2: l = 2; rc = 1.84 bohr
File: O_02.recpot [ 2001 points up to Gmax=  52.9 (1/bohr)]
  Atomic number:  8;  ionic charge:  6.000000
    Shell 1: l = 0; rc = 1.31 bohr
<<<<<<<<<<<<<<<<<<<<<<<<<<<<<<<<<<<<<<<<>>>>>>>>>>>>>>>>>>>>>>>>>>>>>>>>>>>>>>>>

-------------------------- Atom counting information ---------------------------
Symbol    Natoms    Nngwfs    Nprojs
  N        236       944       236
  H       1311      1311         0
  C        810      3240       810
  S          6        54        36
  O        239       956       239
.......   ......    ......    ......
Totals:   2602      6505      1321
--------------------------------------------------------------------------------

=============================== PSINC grid sizes ===============================
                      Simulation cell:  275 x 286 x 336
                              FFT-box:   99 x  99 x  99
                                  PPD:    5 x  11 x   1
Grid space d1=  0.508720000000a0 (KE cutoff=  29.35259Eh = 798.72452eV)
Grid space d2=  0.506538461538a0 (KE cutoff=  29.60596Eh = 805.61916eV)
Grid space d3=  0.500357142857a0 (KE cutoff=  30.34197Eh = 825.64705eV)
================================================================================

********************* Fourier parallelisation information **********************
       Coarse grid (whole simulation cell) dimensions:    275   286   336
          Real-space ('12') slabs/node (min max mean):      5     6     5
         Recip-space ('23') slabs/node (min max mean):      2     3     2
********************************************************************************

********************* Fourier parallelisation information **********************
       Double grid (whole simulation cell) dimensions:    550   572   672
          Real-space ('12') slabs/node (min max mean):     11    12    11
         Recip-space ('23') slabs/node (min max mean):      4     5     4
********************************************************************************
ONETEP fine grid is 550 x 572 x 672 gridpoints, 139.8980 x 144.8700 x 168.1200 bohr.
FD multigrid is     545 x 569 x 665 gridpoints, 138.6262 x 144.1102 x 166.3688 bohr.


Calculating local pseudopotential in open BC on a radial grid ...
Discrepancy between calculated realspace psloc and -Z/x on [5a0,262.342a0]:
max |rel. diff| # avg |rel. diff| #  avg rel. diff #  f # pseudopotential file
 0.000258413739    0.000003708905   0.000000070960   56  'N_00.recpot'
 0.000398954828    0.000016185045  -0.000000074508   56  'H_04.recpot'
 0.000375346405    0.000017198923   0.000000144535   56  'C_01.recpot'
 0.000466850533    0.000020125278   0.000000461745   56  'S_00.recpot'
 0.000671508953    0.000026045986   0.000000155458   56  'O_02.recpot'
... done

Atom SCF Calculation for N  : Z (AE atom) =   7 : Z (PS atom) =   5
Config String:
Orbitals (num,occ):  2     2.00 3.00
Orbitals   (num,l):  2        0    1
Real-space Grid (nr,dr,rmax): 1203    0.0066555740    8.0000000000
Spherical Bessel Basis (nsws,lmax,cutoff):   47    1  176.3951722778
Confining potential (l,width,scale):  0    3.0000000000  100.0000000000
Confining potential (l,width,scale):  1    3.0000000000  100.0000000000
  1         -4.7312375307   -3.4155304497    7.0523828109   -1.9351020946
  2         -9.7309464766   -2.0532547791    8.2966052865   -2.2494486027
  3         -9.6627394379   -2.1124926340    8.2327997121   -2.2369778124
  4         -9.6814993499   -2.1215521045    8.2229805960   -2.2365178421
  5         -9.6843326483   -2.1250939529    8.2191374534   -2.2362718126
  6         -9.6859628709   -2.1267894855    8.2172963573   -2.2362066344
  7         -9.6867347035   -2.1276425665    8.2163697352   -2.2361903369
  8         -9.6870802100   -2.1280764625    8.2158983890   -2.2361891460
  9         -9.6872290423   -2.1282977424    8.2156580222   -2.2361920435
 10         -9.6872901988   -2.1284107021    8.2155353368   -2.2361953393
 11         -9.6873135296   -2.1284684031    8.2154726809   -2.2361979819
 12         -9.6873212476   -2.1284978948    8.2154406648   -2.2361998431
 13         -9.6873229586   -2.1285129774    8.2154242957   -2.2362010676
 14         -9.6873226456   -2.1285206957    8.2154159216   -2.2362018403
 15         -9.6873218534   -2.1285246479    8.2154116349   -2.2362023142
 16         -9.6873212599   -2.1285262679    8.2154098784   -2.2362025420
 17         -9.6873207834   -2.1285272564    8.2154088068   -2.2362026955
 18         -9.6873204210   -2.1285278596    8.2154081529   -2.2362027982
 19         -9.6873201550   -2.1285282280    8.2154077538   -2.2362028667
 20         -9.6873199645   -2.1285284529    8.2154075102   -2.2362029121
 21         -9.6873198305   -2.1285285903    8.2154073614   -2.2362029421
 22         -9.6873197377   -2.1285286742    8.2154072705   -2.2362029618
Atom SCF converged after  22 iterations to a total energy of     -9.68731974

Atom SCF Calculation for H  : Z (AE atom) =   1 : Z (PS atom) =   1
Config String:
Orbitals (num,occ):  1     1.00
Orbitals   (num,l):  1        0
Real-space Grid (nr,dr,rmax): 1203    0.0066555740    8.0000000000
Spherical Bessel Basis (nsws,lmax,cutoff):   47    0  176.3951722778
Confining potential (l,width,scale):  0    3.0000000000  100.0000000000
  1         -0.3194257691   -0.2393854593    0.2820953124   -0.2424203209
  2         -0.3951823392   -0.2377116493    0.2886404059   -0.2475147891
  3         -0.4317044583   -0.2352244387    0.2921333887   -0.2514046172
  4         -0.4470703708   -0.2341892222    0.2934391879   -0.2531009782
  5         -0.4532132900   -0.2338556667    0.2938388426   -0.2537313520
  6         -0.4556579251   -0.2337612552    0.2939448584   -0.2539550462
  7         -0.4566418315   -0.2337377355    0.2939680120   -0.2540342273
  8         -0.4570437922   -0.2337331116    0.2939708287   -0.2540627372
  9         -0.4572102946   -0.2337328328    0.2939698291   -0.2540732650
 10         -0.4572800424   -0.2337332404    0.2939687193   -0.2540772588
 11         -0.4573095100   -0.2337335791    0.2939680317   -0.2540788122
 12         -0.4573220379   -0.2337337762    0.2939676699   -0.2540794294
 13         -0.4573273880   -0.2337338775    0.2939674931   -0.2540796787
 14         -0.4573296803   -0.2337339266    0.2939674099   -0.2540797808
 15         -0.4573306647   -0.2337339495    0.2939673718   -0.2540798230
 16         -0.4573310882   -0.2337339601    0.2939673545   -0.2540798406
 17         -0.4573312706   -0.2337339649    0.2939673467   -0.2540798479
 18         -0.4573313493   -0.2337339670    0.2939673433   -0.2540798510
Atom SCF converged after  18 iterations to a total energy of     -0.45733135

Atom SCF Calculation for C  : Z (AE atom) =   6 : Z (PS atom) =   4
Config String:
Orbitals (num,occ):  2     2.00 2.00
Orbitals   (num,l):  2        0    1
Real-space Grid (nr,dr,rmax): 1203    0.0066555740    8.0000000000
Spherical Bessel Basis (nsws,lmax,cutoff):   47    1  176.3951722778
Confining potential (l,width,scale):  0    3.0000000000  100.0000000000
Confining potential (l,width,scale):  1    3.0000000000  100.0000000000
  1         -5.2976922011   -1.3069684169    4.5135249990   -1.4493313817
  2         -5.3721716256   -1.3429755895    4.4750154450   -1.4361613026
  3         -5.3809959565   -1.3617365618    4.4541655428   -1.4305930207
  4         -5.3918938866   -1.3667928461    4.4484735100   -1.4294652294
  5         -5.3956096428   -1.3688539142    4.4461376126   -1.4290734646
  6         -5.3968271862   -1.3696852393    4.4451910874   -1.4289366866
  7         -5.3972028401   -1.3700178062    4.4448112275   -1.4288900460
  8         -5.3973067903   -1.3701500158    4.4446598370   -1.4288749220
  9         -5.3973286940   -1.3702023868    4.4445997329   -1.4288704293
 10         -5.3973289850   -1.3702230869    4.4445759233   -1.4288693188
 11         -5.3973254264   -1.3702312560    4.4445665049   -1.4288691775
 12         -5.3973224003   -1.3702344755    4.4445627836   -1.4288692549
 13         -5.3973208708   -1.3702354890    4.4445616088   -1.4288693270
 14         -5.3973198783   -1.3702360102    4.4445610034   -1.4288693814
 15         -5.3973192535   -1.3702362780    4.4445606917   -1.4288694190
 16         -5.3973188684   -1.3702364155    4.4445605313   -1.4288694437
 17         -5.3973186349   -1.3702364860    4.4445604489   -1.4288694595
 18         -5.3973184951   -1.3702365221    4.4445604065   -1.4288694693
 19         -5.3973184122   -1.3702365405    4.4445603848   -1.4288694753
Atom SCF converged after  19 iterations to a total energy of     -5.39731841

Atom SCF Calculation for S  : Z (AE atom) =  16 : Z (PS atom) =   6
Config String:
Orbitals (num,occ):  3     2.00 4.00 0.00
Orbitals   (num,l):  3        0    1    2
Real-space Grid (nr,dr,rmax): 1203    0.0066555740    8.0000000000
Spherical Bessel Basis (nsws,lmax,cutoff):   47    2  176.3951722778
Confining potential (l,width,scale):  0    3.0000000000  100.0000000000
Confining potential (l,width,scale):  1    3.0000000000  100.0000000000
Confining potential (l,width,scale):  2    3.0000000000  100.0000000000
  1        -12.4735062396   -1.0328741412   10.1554312477   -2.4512393157
  2         -9.9458301913   -2.4607392455    8.3041325857   -2.0306994528
  3        -10.1450417646   -2.2931184565    8.4831893826   -2.0812538287
  4        -10.1528335592   -2.2733105793    8.5050388867   -2.0896035179
  5        -10.1571940363   -2.2633716629    8.5160794258   -2.0939370707
  6        -10.1594380571   -2.2584938667    8.5215163935   -2.0961289008
  7        -10.1605856507   -2.2561081821    8.5241804044   -2.0972291378
  8        -10.1611799191   -2.2549395235    8.5254868240   -2.0977806248
  9        -10.1614918752   -2.2543658586    8.5261285885   -2.0980571586
 10        -10.1616572884   -2.2540839121    8.5264441898   -2.0981959233
 11        -10.1617455602   -2.2539453058    8.5265994231   -2.0982656006
 12        -10.1617928447   -2.2538772062    8.5266757320   -2.0983006047
 13        -10.1618182292   -2.2538437891    8.5267131983   -2.0983181961
 14        -10.1618318741   -2.2538274201    8.5267315620   -2.0983270391
 15        -10.1618392144   -2.2538194197    8.5267405433   -2.0983314852
 16        -10.1618431651   -2.2538155200    8.5267449245   -2.0983337210
 17        -10.1618452923   -2.2538136252    8.5267470551   -2.0983348455
 18        -10.1618464380   -2.2538127080    8.5267480875   -2.0983354110
 19        -10.1618470552   -2.2538122659    8.5267485856   -2.0983356955
 20        -10.1618473878   -2.2538120540    8.5267488248   -2.0983358386
 21        -10.1618475670   -2.2538119530    8.5267489389   -2.0983359106
 22        -10.1618476637   -2.2538119053    8.5267489929   -2.0983359468
Atom SCF converged after  22 iterations to a total energy of    -10.16184766

Atom SCF Calculation for O  : Z (AE atom) =   8 : Z (PS atom) =   6
Config String:
Orbitals (num,occ):  2     2.00 4.00
Orbitals   (num,l):  2        0    1
Real-space Grid (nr,dr,rmax): 1203    0.0066555740    8.0000000000
Spherical Bessel Basis (nsws,lmax,cutoff):   47    1  176.3951722778
Confining potential (l,width,scale):  0    3.0000000000  100.0000000000
Confining potential (l,width,scale):  1    3.0000000000  100.0000000000
  1         -1.8735052164   -7.5539365035   10.1554312477   -2.4512393157
  2        -16.0318313751   -3.1285771268   13.6395848164   -3.2358799643
  3        -15.9524020423   -3.0762819706   13.6967272503   -3.2536856837
  4        -15.8521515939   -3.0781493909   13.6951909330   -3.2561700440
  5        -15.8357139793   -3.0748501933   13.6988803334   -3.2580493133
  6        -15.8246052853   -3.0740779781   13.6997881576   -3.2588327446
  7        -15.8189019501   -3.0737449687   13.7001869911   -3.2592378801
  8        -15.8159785510   -3.0736026016   13.7003615168   -3.2594475790
  9        -15.8144776168   -3.0735437994   13.7004360379   -3.2595560735
 10        -15.8137058024   -3.0735207882   13.7004667348   -3.2596122456
 11        -15.8133083127   -3.0735125946   13.7004786868   -3.2596413656
 12        -15.8131032938   -3.0735102195   13.7004828997   -3.2596564858
 13        -15.8129973902   -3.0735099286   13.7004840891   -3.2596643505
 14        -15.8129426040   -3.0735102506   13.7004842061   -3.2596684489
 15        -15.8129142203   -3.0735106556   13.7004840157   -3.2596705887
 16        -15.8128994940   -3.0735109855   13.7004837906   -3.2596717080
 17        -15.8128918425   -3.0735112169   13.7004836103   -3.2596722946
 18        -15.8128878614   -3.0735113674   13.7004834848   -3.2596726026
 19        -15.8128857871   -3.0735114608   13.7004834035   -3.2596727646
 20        -15.8128847048   -3.0735115170   13.7004833533   -3.2596728500
 21        -15.8128841394   -3.0735115501   13.7004833231   -3.2596728951
 22        -15.8128838436   -3.0735115693   13.7004833054   -3.2596729190
 23        -15.8128836887   -3.0735115802   13.7004832951   -3.2596729316
 24        -15.8128836074   -3.0735115864   13.7004832893   -3.2596729383
Atom SCF converged after  24 iterations to a total energy of    -15.81288361

========================== Calculation in vacuum ==============================
= Adjusting the following parameters: 
= is_implicit_solvent: F
= is_include_apolar: F
= write_denskern: T
= write_tightbox_ngwfs: T
= restart read filename prefix: ""
= restart write filename prefix: "vacuum_"
===============================================================================

Determining parallel strategy ...
... using space-filling curve
... NGWF load balancing: max    109;  min    108;  average    108
... Projector load balancing: max     25;  min     21;  average     22
... done
Calculating direct Ion-Ion energy ...
Ion-Ion Energy        :    809993.27452465961687
======================= Empirical dispersion information =======================
Model : Elstner
Dispersion Correction Energy: -0.32292968E+01 Hartree
================================================================================
Basis initialisation ...... NGWF spheres initialised
... Projector spheres initialised
... NGWF tight boxes initialised
... Tight-boxes gathered
... NGWF basis size (local,global):    1032868  62070251
... Nonlocal pseudopotential projector initialisation
... done

========================== Sparse matrix information ===========================
                        Overlap matrix filling:   6.64%
                        Density kernel filling: 100.00%
              NGWF-Proj overlap matrix filling:   1.77%
                    Hamiltonian matrix filling:   7.51%
                  NGWF diagonal matrix filling:   0.05%
                             KS matrix filling: 100.00% 
                           KSKS matrix filling: 100.00% 
================================================================================

Sparse matrix initialisation ... done

Generating smeared ion density ... done
Smeared ion self correction:     -14457.169564
Smeared ion non-self correction: -809945.064526
NGWF initialisation ...... done
============ Calculation of NGWF S^-1 using Hotelling algorithm ================ 
         Iteration  |  Frobenius norm and Maximum abs value    (of I-S*S_n^-1)   
               1       0.78611535E+02     0.98382076E+00
               2       0.76855200E+02     0.96805035E+00
               3       0.73979203E+02     0.93765232E+00
               4       0.69834324E+02     0.88094293E+00
               5       0.64611216E+02     0.78102387E+00
               6       0.58686065E+02     0.70624689E+00
               7       0.52657100E+02     0.67061445E+00
               8       0.47082379E+02     0.64704955E+00
               9       0.41153701E+02     0.60908140E+00
              10       0.33147815E+02     0.54311801E+00
              11       0.22743101E+02     0.44123796E+00
              12       0.11998918E+02     0.30565625E+00
              13       0.41568608E+01     0.14896542E+00
              14       0.70801772E+00     0.36104050E-01
              15       0.37350380E-01     0.32105315E-02
              16       0.26541960E-03     0.29836044E-04
              17       0.29382843E-07     0.40087513E-08
              18       0.10312284E-12     0.84376950E-14
================================================================================
Calculating local pseudopotential in open BC on the fine real space grid ...
... done

MG BCs: +ve charge blocks (gridpoints):     20712 (   16186413).
MG BCs: -ve charge blocks (gridpoints):      7970 (    1073699).
MG BCs:     Elided blocks (gridpoints):    189333 (  188959713).
MG BCs: Computational effort saved:  99.9861%.
MG BCs: Charge after coarse-graining:           -9.0002375.
MG DL_MG: Calling solver with defect correction order = 8
MG DL_MG: Solver finished
MG Hartree energy from (\int phi*rho dr):              1462.209370
MG Hartree energy from (\int eps (grad phi)^2 dr):     1461.601180
MG Discrepancy due to finite box and discretization:     -0.608189 (  -0.04159%)
MG Correction to account for finite box:                  0.454273
MG Remaining discrepancy, due to discretization:         -0.153916 (  -0.01053%)
Up spin density kernel initialisation ... 
======= Optimisation of K by Palser-Manolopoulos canonical purification ======== 
         Iteration  |  Band structure energy |    c_n   
               1       -2561.22512441861045    0.5268727
               2       -2737.08564535589630    0.5170385
               3       -2917.31132310835756    0.5153356
               4       -3067.79356841730350    0.5286183
               5       -3160.35492412242320    0.5639837
               6       -3199.05708625984880    0.6081464
               7       -3212.19509708303030    0.6191438
               8       -3217.89012429559489    0.6182581
               9       -3220.62370956763607    0.6367748
              10       -3221.72406989007504    0.6683349
              11       -3222.14167708162950    0.6914948
              12       -3222.32124204585580    0.6690720
              13       -3222.42597000837668    0.5906231
              14       -3222.50146387527093    0.4877236
              15       -3222.53763582061765    0.4107157
              16       -3222.53977937390982    0.4333181
              17       -3222.54080382411121    0.4575757
              18       -3222.54112423219158    0.4878435
              19       -3222.54118897235821    0.4992279
              20       -3222.54120028434954    0.4999969
              21       -3222.54121173323256    0.5000000
              22       -3222.54122834254804    0.5000000
              23       -3222.54125152349616    0.5000000
              24       -3222.54128113196793    0.5000000
              25       -3222.54131229198174    0.5000000
              26       -3222.54133407612699    0.5000000
              27       -3222.54134083778308    0.5000000
              28       -3222.54134130611510    0.5000002
              29       -3222.54134130813100    0.5000002
Termination criterion satisfied: band energy change below threshold.
Final occupancy bounds: [    0.00000000000003:    0.99999999999996]
Closest occupancy to 0.5:     0.99999999999998
================================================================================
... done

Writing density kernel to file "host_23281.vacuum_dkn" ... done

>>> Optimising kernel for current NGWFs:
   Initial electron number for spin 1:    7192.00000000
     Final electron number for spin 1:    7192.00000000

=================== Penalty functional idempotency correction ==================
 RMS occupancy error at iteration   1:  0.000000 (step -0.5000 Ne1=   7192.0000)
            Final RMS occupancy error   :  0.000000 (Ne1=   7192.0000)
               Final occupancy bounds   : [ -0.0000,  1.0000]
================================================================================

................................................................................
<<<<<<<<<<<<<< LNV (Original version) density kernel optimisation >>>>>>>>>>>>>>
~~~~~~~~~~~~~~~~~~~~~~~~~~~~~~~~~~~~~~~~~~~~~~~~~~~~~~~~~~~~~~~~~~~~~~~~~~~~~~~~
   iter  |      energy (Eh)       | rms gradient |  commutator  |   dE (Eh)
MG BCs: +ve charge blocks (gridpoints):     31261 (   17393379).
MG BCs: -ve charge blocks (gridpoints):      8294 (    1106991).
MG BCs:     Elided blocks (gridpoints):    178779 (  187719455).
MG BCs: Computational effort saved:  99.9808%.
MG BCs: Charge after coarse-graining:           -9.0009924.
MG DL_MG: Calling solver with defect correction order = 8
MG DL_MG: Solver finished
MG Hartree energy from (\int phi*rho dr):              1415.436726
MG Hartree energy from (\int eps (grad phi)^2 dr):     1414.779538
MG Discrepancy due to finite box and discretization:     -0.657188 (  -0.04643%)
MG Correction to account for finite box:                  0.460139
MG Remaining discrepancy, due to discretization:         -0.197049 (  -0.01392%)
      ideal mu1:      -0.714089263424
             Q0:  -11507.687417024630
             G0:    -141.615590156905
   RMS gradient:       0.001829398137
MG BCs: +ve charge blocks (gridpoints):     31260 (   17483709).
MG BCs: -ve charge blocks (gridpoints):      8213 (    1086422).
MG BCs:     Elided blocks (gridpoints):    178778 (  187649694).
MG BCs: Computational effort saved:  99.9809%.
MG BCs: Charge after coarse-graining:           -9.0010105.
MG DL_MG: Calling solver with defect correction order = 8
MG DL_MG: Solver finished
MG Hartree energy from (\int phi*rho dr):              1441.916902
MG Hartree energy from (\int eps (grad phi)^2 dr):     1441.275784
MG Discrepancy due to finite box and discretization:     -0.641117 (  -0.04446%)
MG Correction to account for finite box:                  0.459971
MG Remaining discrepancy, due to discretization:         -0.181147 (  -0.01256%)
     Trial step:       0.500000000000
             Q1:  -11518.600543629611
 Quadratic coef:      59.894668473471
 Linear coef   :     -70.807795078453
           Qmin:  -11528.614754848082
Quadratic minimum step length (  0.295551327368) accepted
    Initial Ne1:    7192.00000000
      Final Ne1:    7192.00000000

=================== Penalty functional idempotency correction ==================
 RMS occupancy error at iteration   1:  0.003306 (step -0.4888 Ne1=   7192.0000)
 RMS occupancy error at iteration   2:  0.000025 (step -0.5001 Ne1=   7192.0000)
            Final RMS occupancy error   :  0.000000 (Ne1=   7192.0000)
               Final occupancy bounds   : [  0.0000,  1.0000]
================================================================================

    1        -1.150768741702E+04     1.8294E-03     1.6546E-03
MG BCs: +ve charge blocks (gridpoints):     31238 (   17448565).
MG BCs: -ve charge blocks (gridpoints):      8263 (    1095428).
MG BCs:     Elided blocks (gridpoints):    178800 (  187675832).
MG BCs: Computational effort saved:  99.9808%.
MG BCs: Charge after coarse-graining:           -9.0010029.
MG DL_MG: Calling solver with defect correction order = 8
MG DL_MG: Solver finished
MG Hartree energy from (\int phi*rho dr):              1423.249432
MG Hartree energy from (\int eps (grad phi)^2 dr):     1422.602780
MG Discrepancy due to finite box and discretization:     -0.646652 (  -0.04543%)
MG Correction to account for finite box:                  0.459840
MG Remaining discrepancy, due to discretization:         -0.186812 (  -0.01313%)
      ideal mu1:      -0.755198120987
             Q0:  -11528.998704365687
             G0:     -11.643131908830
   RMS gradient:       0.000521093906
MG BCs: +ve charge blocks (gridpoints):     31253 (   17466564).
MG BCs: -ve charge blocks (gridpoints):      8233 (    1090088).
MG BCs:     Elided blocks (gridpoints):    178784 (  187663173).
MG BCs: Computational effort saved:  99.9809%.
MG BCs: Charge after coarse-graining:           -9.0010065.
MG DL_MG: Calling solver with defect correction order = 8
MG DL_MG: Solver finished
MG Hartree energy from (\int phi*rho dr):              1428.782794
MG Hartree energy from (\int eps (grad phi)^2 dr):     1428.139662
MG Discrepancy due to finite box and discretization:     -0.643132 (  -0.04501%)
MG Correction to account for finite box:                  0.459602
MG Remaining discrepancy, due to discretization:         -0.183530 (  -0.01285%)
     Trial step:       0.384416003418
             Q1:  -11531.724603377748
 Quadratic coef:       1.749907223604
 Linear coef   :      -4.475806235664
           Qmin:  -11531.860690588299
Quadratic minimum step length (  0.491617933220) accepted
    Initial Ne1:    7191.99991001
      Final Ne1:    7192.00000000

=================== Penalty functional idempotency correction ==================
 RMS occupancy error at iteration   1:  0.001735 (step -0.4934 Ne1=   7192.0000)
 RMS occupancy error at iteration   2:  0.000009 (step -0.5001 Ne1=   7192.0000)
            Final RMS occupancy error   :  0.000000 (Ne1=   7192.0000)
               Final occupancy bounds   : [  0.0000,  1.0000]
================================================================================

    2        -1.152899870437E+04     5.2109E-04     4.7132E-04    -2.1311E+01
MG BCs: +ve charge blocks (gridpoints):     31252 (   17471572).
MG BCs: -ve charge blocks (gridpoints):      8222 (    1088591).
MG BCs:     Elided blocks (gridpoints):    178785 (  187659662).
MG BCs: Computational effort saved:  99.9809%.
MG BCs: Charge after coarse-graining:           -9.0010075.
MG DL_MG: Calling solver with defect correction order = 8
MG DL_MG: Solver finished
MG Hartree energy from (\int phi*rho dr):              1430.367266
MG Hartree energy from (\int eps (grad phi)^2 dr):     1429.725032
MG Discrepancy due to finite box and discretization:     -0.642234 (  -0.04490%)
MG Correction to account for finite box:                  0.459555
MG Remaining discrepancy, due to discretization:         -0.182679 (  -0.01277%)
      ideal mu1:      -0.776640522694
             Q0:  -11531.894829748664
             G0:      -1.821280665624
   RMS gradient:       0.000206208860
MG BCs: +ve charge blocks (gridpoints):     31249 (   17470205).
MG BCs: -ve charge blocks (gridpoints):      8230 (    1089619).
MG BCs:     Elided blocks (gridpoints):    178787 (  187660001).
MG BCs: Computational effort saved:  99.9809%.
MG BCs: Charge after coarse-graining:           -9.0010076.
MG DL_MG: Calling solver with defect correction order = 8
MG DL_MG: Solver finished
MG Hartree energy from (\int phi*rho dr):              1428.140769
MG Hartree energy from (\int eps (grad phi)^2 dr):     1427.498848
MG Discrepancy due to finite box and discretization:     -0.641921 (  -0.04495%)
MG Correction to account for finite box:                  0.459436
MG Remaining discrepancy, due to discretization:         -0.182484 (  -0.01278%)
     Trial step:       0.434724971789
             Q1:  -11532.349328746670
 Quadratic coef:       0.337257187977
 Linear coef   :      -0.791756185984
           Qmin:  -11532.359518034333
Quadratic minimum step length (  0.510287397698) accepted
    Initial Ne1:    7191.99996497
      Final Ne1:    7192.00000000

=================== Penalty functional idempotency correction ==================
 RMS occupancy error at iteration   1:  0.000570 (step -0.4977 Ne1=   7192.0000)
 RMS occupancy error at iteration   2:  0.000001 (step -0.5000 Ne1=   7192.0000)
            Final RMS occupancy error   :  0.000000 (Ne1=   7192.0000)
               Final occupancy bounds   : [  0.0000,  1.0000]
================================================================================

    3        -1.153189482975E+04     2.0621E-04     1.8651E-04    -2.8961E+00
MG BCs: +ve charge blocks (gridpoints):     31251 (   17470005).
MG BCs: -ve charge blocks (gridpoints):      8233 (    1089787).
MG BCs:     Elided blocks (gridpoints):    178785 (  187660033).
MG BCs: Computational effort saved:  99.9809%.
MG BCs: Charge after coarse-graining:           -9.0010076.
MG DL_MG: Calling solver with defect correction order = 8
MG DL_MG: Solver finished
MG Hartree energy from (\int phi*rho dr):              1427.761863
MG Hartree energy from (\int eps (grad phi)^2 dr):     1427.119988
MG Discrepancy due to finite box and discretization:     -0.641875 (  -0.04496%)
MG Correction to account for finite box:                  0.459417
MG Remaining discrepancy, due to discretization:         -0.182458 (  -0.01278%)
      ideal mu1:      -0.776867244929
             Q0:  -11532.363630601321
             G0:      -0.425044783729
   RMS gradient:       0.000099735941
MG BCs: +ve charge blocks (gridpoints):     31251 (   17471002).
MG BCs: -ve charge blocks (gridpoints):      8226 (    1089601).
MG BCs:     Elided blocks (gridpoints):    178785 (  187659222).
MG BCs: Computational effort saved:  99.9809%.
MG BCs: Charge after coarse-graining:           -9.0010076.
MG DL_MG: Calling solver with defect correction order = 8
MG DL_MG: Solver finished
MG Hartree energy from (\int phi*rho dr):              1428.921025
MG Hartree energy from (\int eps (grad phi)^2 dr):     1428.279081
MG Discrepancy due to finite box and discretization:     -0.641944 (  -0.04493%)
MG Correction to account for finite box:                  0.459368
MG Remaining discrepancy, due to discretization:         -0.182577 (  -0.01278%)
     Trial step:       0.470993285057
             Q1:  -11532.460764021380
 Quadratic coef:       0.103059818926
 Linear coef   :      -0.200193238985
           Qmin:  -11532.460849219966
Quadratic minimum step length (  0.457451178635) accepted
    Initial Ne1:    7191.99999252
      Final Ne1:    7192.00000000

=================== Penalty functional idempotency correction ==================
 RMS occupancy error at iteration   1:  0.000184 (step -0.4992 Ne1=   7192.0000)
            Final RMS occupancy error   :  0.000000 (Ne1=   7192.0000)
               Final occupancy bounds   : [ -0.0000,  1.0000]
================================================================================

    4        -1.153236363060E+04     9.9736E-05     9.0209E-05    -4.6880E-01
MG BCs: +ve charge blocks (gridpoints):     31251 (   17470931).
MG BCs: -ve charge blocks (gridpoints):      8225 (    1089623).
MG BCs:     Elided blocks (gridpoints):    178785 (  187659271).
MG BCs: Computational effort saved:  99.9809%.
MG BCs: Charge after coarse-graining:           -9.0010077.
MG DL_MG: Calling solver with defect correction order = 8
MG DL_MG: Solver finished
MG Hartree energy from (\int phi*rho dr):              1428.887705
MG Hartree energy from (\int eps (grad phi)^2 dr):     1428.245762
MG Discrepancy due to finite box and discretization:     -0.641942 (  -0.04493%)
MG Correction to account for finite box:                  0.459369
MG Remaining discrepancy, due to discretization:         -0.182573 (  -0.01278%)
      ideal mu1:      -0.777133698557
             Q0:  -11532.461261368589
             G0:      -0.103017757302
   RMS gradient:       0.000049240427
MG BCs: +ve charge blocks (gridpoints):     31252 (   17471282).
MG BCs: -ve charge blocks (gridpoints):      8227 (    1089394).
MG BCs:     Elided blocks (gridpoints):    178784 (  187659149).
MG BCs: Computational effort saved:  99.9809%.
MG BCs: Charge after coarse-graining:           -9.0010076.
MG DL_MG: Calling solver with defect correction order = 8
MG DL_MG: Solver finished
MG Hartree energy from (\int phi*rho dr):              1429.280473
MG Hartree energy from (\int eps (grad phi)^2 dr):     1428.638393
MG Discrepancy due to finite box and discretization:     -0.642080 (  -0.04492%)
MG Correction to account for finite box:                  0.459369
MG Remaining discrepancy, due to discretization:         -0.182711 (  -0.01278%)
     Trial step:       0.464172848601
             Q1:  -11532.486671933322
 Quadratic coef:       0.022407481130
 Linear coef   :      -0.047818045863
           Qmin:  -11532.486772552744
Quadratic minimum step length (  0.495277412793) accepted
    Initial Ne1:    7192.00167191
      Final Ne1:    7192.00000000

=================== Penalty functional idempotency correction ==================
 RMS occupancy error at iteration   1:  0.000065 (step -0.4997 Ne1=   7192.0000)
            Final RMS occupancy error   :  0.000000 (Ne1=   7192.0000)
               Final occupancy bounds   : [ -0.0000,  1.0000]
================================================================================

    5        -1.153246126137E+04     4.9240E-05     4.4537E-05    -9.7631E-02
MG BCs: +ve charge blocks (gridpoints):     31252 (   17471286).
MG BCs: -ve charge blocks (gridpoints):      8227 (    1089389).
MG BCs:     Elided blocks (gridpoints):    178784 (  187659150).
MG BCs: Computational effort saved:  99.9809%.
MG BCs: Charge after coarse-graining:           -9.0010076.
MG DL_MG: Calling solver with defect correction order = 8
MG DL_MG: Solver finished
MG Hartree energy from (\int phi*rho dr):              1429.306831
MG Hartree energy from (\int eps (grad phi)^2 dr):     1428.664742
MG Discrepancy due to finite box and discretization:     -0.642090 (  -0.04492%)
MG Correction to account for finite box:                  0.459369
MG Remaining discrepancy, due to discretization:         -0.182721 (  -0.01278%)
      ideal mu1:      -0.777135641398
             Q0:  -11532.486821544473
             G0:      -0.030954035318
   RMS gradient:       0.000027013109
MG BCs: +ve charge blocks (gridpoints):     31253 (   17470865).
MG BCs: -ve charge blocks (gridpoints):      8229 (    1089634).
MG BCs:     Elided blocks (gridpoints):    178783 (  187659326).
MG BCs: Computational effort saved:  99.9809%.
MG BCs: Charge after coarse-graining:           -9.0010075.
MG DL_MG: Calling solver with defect correction order = 8
MG DL_MG: Solver finished
MG Hartree energy from (\int phi*rho dr):              1428.691002
MG Hartree energy from (\int eps (grad phi)^2 dr):     1428.048911
MG Discrepancy due to finite box and discretization:     -0.642091 (  -0.04494%)
MG Correction to account for finite box:                  0.459382
MG Remaining discrepancy, due to discretization:         -0.182709 (  -0.01279%)
     Trial step:       0.479472968523
             Q1:  -11532.496564725763
 Quadratic coef:       0.005098441912
 Linear coef   :      -0.014841623202
           Qmin:  -11532.497622578547
Quadratic minimum step length (  0.697875670329) accepted
    Initial Ne1:    7192.00103225
      Final Ne1:    7192.00000000

=================== Penalty functional idempotency correction ==================
 RMS occupancy error at iteration   1:  0.000039 (step -0.4998 Ne1=   7192.0000)
            Final RMS occupancy error   :  0.000000 (Ne1=   7192.0000)
               Final occupancy bounds   : [ -0.0000,  1.0000]
================================================================================

    6        -1.153248682154E+04     2.7013E-05     2.4433E-05    -2.5560E-02
MG BCs: +ve charge blocks (gridpoints):     31254 (   17470680).
MG BCs: -ve charge blocks (gridpoints):      8229 (    1089750).
MG BCs:     Elided blocks (gridpoints):    178782 (  187659395).
MG BCs: Computational effort saved:  99.9809%.
MG BCs: Charge after coarse-graining:           -9.0010074.
MG DL_MG: Calling solver with defect correction order = 8
MG DL_MG: Solver finished
MG Hartree energy from (\int phi*rho dr):              1428.409766
MG Hartree energy from (\int eps (grad phi)^2 dr):     1427.767674
MG Discrepancy due to finite box and discretization:     -0.642092 (  -0.04495%)
MG Correction to account for finite box:                  0.459387
MG Remaining discrepancy, due to discretization:         -0.182704 (  -0.01279%)
      ideal mu1:      -0.776907977360
             Q0:  -11532.497632287908
             G0:      -0.016169026500
   RMS gradient:       0.000019547654
MG BCs: +ve charge blocks (gridpoints):     31252 (   17471184).
MG BCs: -ve charge blocks (gridpoints):      8228 (    1089478).
MG BCs:     Elided blocks (gridpoints):    178784 (  187659163).
MG BCs: Computational effort saved:  99.9809%.
MG BCs: Charge after coarse-graining:           -9.0010076.
MG DL_MG: Calling solver with defect correction order = 8
MG DL_MG: Solver finished
MG Hartree energy from (\int phi*rho dr):              1429.015235
MG Hartree energy from (\int eps (grad phi)^2 dr):     1428.373170
MG Discrepancy due to finite box and discretization:     -0.642065 (  -0.04493%)
MG Correction to account for finite box:                  0.459380
MG Remaining discrepancy, due to discretization:         -0.182685 (  -0.01278%)
     Trial step:       0.578457015959
             Q1:  -11532.501683705836
 Quadratic coef:       0.005301668893
 Linear coef   :      -0.009353086820
           Qmin:  -11532.501757415053
Quadratic minimum step length (  0.510250526918) accepted
    Initial Ne1:    7192.00014060
      Final Ne1:    7192.00000000

=================== Penalty functional idempotency correction ==================
 RMS occupancy error at iteration   1:  0.000002 (step -0.5000 Ne1=   7192.0000)
            Final RMS occupancy error   :  0.000000 (Ne1=   7192.0000)
               Final occupancy bounds   : [  0.0000,  1.0000]
================================================================================

    7        -1.153249763229E+04     1.9548E-05     1.7680E-05    -1.0811E-02
MG BCs: +ve charge blocks (gridpoints):     31252 (   17471129).
MG BCs: -ve charge blocks (gridpoints):      8229 (    1089489).
MG BCs:     Elided blocks (gridpoints):    178784 (  187659207).
MG BCs: Computational effort saved:  99.9809%.
MG BCs: Charge after coarse-graining:           -9.0010076.
MG DL_MG: Calling solver with defect correction order = 8
MG DL_MG: Solver finished
MG Hartree energy from (\int phi*rho dr):              1428.943734
MG Hartree energy from (\int eps (grad phi)^2 dr):     1428.301666
MG Discrepancy due to finite box and discretization:     -0.642068 (  -0.04493%)
MG Correction to account for finite box:                  0.459381
MG Remaining discrepancy, due to discretization:         -0.182688 (  -0.01278%)
      ideal mu1:      -0.777211285732
             Q0:  -11532.501757576480
             G0:      -0.009307428092
   RMS gradient:       0.000014831459
MG BCs: +ve charge blocks (gridpoints):     31253 (   17471174).
MG BCs: -ve charge blocks (gridpoints):      8227 (    1089477).
MG BCs:     Elided blocks (gridpoints):    178783 (  187659174).
MG BCs: Computational effort saved:  99.9809%.
MG BCs: Charge after coarse-graining:           -9.0010076.
MG DL_MG: Calling solver with defect correction order = 8
MG DL_MG: Solver finished
MG Hartree energy from (\int phi*rho dr):              1429.004203
MG Hartree energy from (\int eps (grad phi)^2 dr):     1428.362172
MG Discrepancy due to finite box and discretization:     -0.642030 (  -0.04493%)
MG Correction to account for finite box:                  0.459374
MG Remaining discrepancy, due to discretization:         -0.182657 (  -0.01278%)
     Trial step:       0.543284453296
             Q1:  -11532.505450158846
 Quadratic coef:       0.001363998617
 Linear coef   :      -0.005056580983
           Qmin:  -11532.506443983582
Quadratic minimum step length (  1.007025153808) accepted
    Initial Ne1:    7192.00015885
      Final Ne1:    7192.00000000

=================== Penalty functional idempotency correction ==================
 RMS occupancy error at iteration   1:  0.000020 (step -0.4995 Ne1=   7192.0000)
            Final RMS occupancy error   :  0.000000 (Ne1=   7192.0000)
               Final occupancy bounds   : [ -0.0000,  1.0000]
================================================================================

    8        -1.153250175758E+04     1.4831E-05     1.3415E-05    -4.1253E-03
MG BCs: +ve charge blocks (gridpoints):     31253 (   17471191).
MG BCs: -ve charge blocks (gridpoints):      8226 (    1089480).
MG BCs:     Elided blocks (gridpoints):    178783 (  187659154).
MG BCs: Computational effort saved:  99.9809%.
MG BCs: Charge after coarse-graining:           -9.0010076.
MG DL_MG: Calling solver with defect correction order = 8
MG DL_MG: Solver finished
MG Hartree energy from (\int phi*rho dr):              1429.054377
MG Hartree energy from (\int eps (grad phi)^2 dr):     1428.412380
MG Discrepancy due to finite box and discretization:     -0.641997 (  -0.04492%)
MG Correction to account for finite box:                  0.459368
MG Remaining discrepancy, due to discretization:         -0.182630 (  -0.01278%)
      ideal mu1:      -0.777197522780
             Q0:  -11532.506436913973
             G0:      -0.012808108344
   RMS gradient:       0.000017424118
MG BCs: +ve charge blocks (gridpoints):     31253 (   17471080).
MG BCs: -ve charge blocks (gridpoints):      8227 (    1089584).
MG BCs:     Elided blocks (gridpoints):    178783 (  187659161).
MG BCs: Computational effort saved:  99.9809%.
MG BCs: Charge after coarse-graining:           -9.0010076.
MG DL_MG: Calling solver with defect correction order = 8
MG DL_MG: Solver finished
MG Hartree energy from (\int phi*rho dr):              1428.730464
MG Hartree energy from (\int eps (grad phi)^2 dr):     1428.088523
MG Discrepancy due to finite box and discretization:     -0.641941 (  -0.04493%)
MG Correction to account for finite box:                  0.459358
MG Remaining discrepancy, due to discretization:         -0.182582 (  -0.01278%)
     Trial step:       0.739662835447
             Q1:  -11532.512398431427
 Quadratic coef:       0.003512164280
 Linear coef   :      -0.009473681734
           Qmin:  -11532.512825470889
Quadratic minimum step length (  0.997580086826) accepted
    Initial Ne1:    7192.00037305
      Final Ne1:    7192.00000000

=================== Penalty functional idempotency correction ==================
 RMS occupancy error at iteration   1:  0.000107 (step -0.4971 Ne1=   7192.0000)
 RMS occupancy error at iteration   2:  0.000000 (step -0.5000 Ne1=   7192.0000)
            Final RMS occupancy error   :  0.000000 (Ne1=   7192.0000)
               Final occupancy bounds   : [  0.0000,  1.0000]
================================================================================

    9        -1.153250643691E+04     1.7424E-05     1.5760E-05    -4.6793E-03
MG BCs: +ve charge blocks (gridpoints):     31253 (   17471020).
MG BCs: -ve charge blocks (gridpoints):      8227 (    1089647).
MG BCs:     Elided blocks (gridpoints):    178783 (  187659158).
MG BCs: Computational effort saved:  99.9809%.
MG BCs: Charge after coarse-graining:           -9.0010075.
MG DL_MG: Calling solver with defect correction order = 8
MG DL_MG: Solver finished
MG Hartree energy from (\int phi*rho dr):              1428.614718
MG Hartree energy from (\int eps (grad phi)^2 dr):     1427.972799
MG Discrepancy due to finite box and discretization:     -0.641920 (  -0.04493%)
MG Correction to account for finite box:                  0.459354
MG Remaining discrepancy, due to discretization:         -0.182565 (  -0.01278%)
      ideal mu1:      -0.776879819224
   10        -1.153251279116E+04     1.9120E-05     1.7293E-05    -6.3542E-03
Finished density kernel iterations (  10)

Writing density kernel to file "host_23281.vacuum_dkn" ... done


>>> Density kernel optimised for the current NGWF basis:
     ~~~~~~~~~~~~~~~~~~~~~~~~~~~~~~~~~~~~~~~~~~~~~~~~~~~~~~~~~~~
     Total energy                =  -1.15325127911618E+04  Eh
     Estimated bandgap           =  -3.0041E-01  Eh
     RMS occupancy error         =   9.3989E-12
     [H,K] commutator            =   1.7293E-05
     Occupancy bounds            = [  0.000:  1.000]
     ~~~~~~~~~~~~~~~~~~~~~~~~~~~~~~~~~~~~~~~~~~~~~~~~~~~~~~~~~~~




################################################################################
########################### NGWF CG iteration  001 #############################
################################################################################
****** Reciprocal space K.E. preconditioning with k_zero =  3.5000 a0^-1 *******

>>> Checking for convergence of NGWFs:   NOT CONVERGED
  ========================================================================
         NGWF RMS gradient =  1.6026E-03 >  2.0000E-06  | above tolerance
  ========================================================================

>>> Improving NGWFs using line search:
============ Calculation of NGWF S^-1 using Hotelling algorithm ================ 
         Iteration  |  Frobenius norm and Maximum abs value    (of I-S*S_n^-1)   
               1       0.19773784E+00     0.53880028E-02
               2       0.91047406E-03     0.43785782E-04
               3       0.33689516E-07     0.28722340E-08
               4       0.12534111E-12     0.65503158E-14
================================================================================
MG BCs: +ve charge blocks (gridpoints):     30783 (   17415230).
MG BCs: -ve charge blocks (gridpoints):      8224 (    1089457).
MG BCs:     Elided blocks (gridpoints):    179257 (  187715138).
MG BCs: Computational effort saved:  99.9811%.
MG BCs: Charge after coarse-graining:           -9.0010121.
MG DL_MG: Calling solver with defect correction order = 8
MG DL_MG: Solver finished
MG Hartree energy from (\int phi*rho dr):              1396.726339
MG Hartree energy from (\int eps (grad phi)^2 dr):     1396.085188
MG Discrepancy due to finite box and discretization:     -0.641152 (  -0.04590%)
MG Correction to account for finite box:                  0.459336
MG Remaining discrepancy, due to discretization:         -0.181816 (  -0.01302%)
============ Calculation of NGWF S^-1 using Hotelling algorithm ================ 
         Iteration  |  Frobenius norm and Maximum abs value    (of I-S*S_n^-1)   
               1       0.18390058E+01     0.43540556E-01
               2       0.70402351E-01     0.25807448E-02
               3       0.14226482E-03     0.10067590E-04
               4       0.11607583E-08     0.15811097E-09
               5       0.10817611E-12     0.59952043E-14
================================================================================
------------------------------- NGWF line search -------------------------------
RMS gradient                =       0.00160264850449
Trial step length           =               0.122474
Gradient along search dir.  =       -277.91442869213
Functional at step 0        =  -11532.51279116177466
Functional at step 1        =  -11563.93236567708664
Functional predicted        =  -11643.15179752576842
Selected quadratic step     =               0.796209
--------------------------- NGWF line search finished --------------------------
                                               
Writing NGWFs to file "host_23281.vacuum_tightbox_ngwfs"....  done

>>> Optimising kernel for current NGWFs:
   Initial electron number for spin 1:    7226.42824363
     Final electron number for spin 1:    7192.00000000

=================== Penalty functional idempotency correction ==================
 RMS occupancy error at iteration   1:  0.004292 (step -0.4857 Ne1=   7192.0000)
 RMS occupancy error at iteration   2:  0.000072 (step -0.5003 Ne1=   7192.0000)
            Final RMS occupancy error   :  0.000000 (Ne1=   7192.0000)
               Final occupancy bounds   : [  0.0000,  1.0000]
================================================================================

................................................................................
<<<<<<<<<<<<<< LNV (Original version) density kernel optimisation >>>>>>>>>>>>>>
~~~~~~~~~~~~~~~~~~~~~~~~~~~~~~~~~~~~~~~~~~~~~~~~~~~~~~~~~~~~~~~~~~~~~~~~~~~~~~~~
   iter  |      energy (Eh)       | rms gradient |  commutator  |   dE (Eh)
MG BCs: +ve charge blocks (gridpoints):     25170 (   17120774).
MG BCs: -ve charge blocks (gridpoints):      8356 (    1073077).
MG BCs:     Elided blocks (gridpoints):    184875 (  188025974).
MG BCs: Computational effort saved:  99.9837%.
MG BCs: Charge after coarse-graining:           -9.0007007.
MG DL_MG: Calling solver with defect correction order = 8
MG DL_MG: Solver finished
MG Hartree energy from (\int phi*rho dr):              1243.352487
MG Hartree energy from (\int eps (grad phi)^2 dr):     1242.710834
MG Discrepancy due to finite box and discretization:     -0.641653 (  -0.05161%)
MG Correction to account for finite box:                  0.459281
MG Remaining discrepancy, due to discretization:         -0.182372 (  -0.01467%)
      ideal mu1:      -0.716965096232
             Q0:  -11642.357697472791
             G0:      -9.795530695839
   RMS gradient:       0.000481134705
MG BCs: +ve charge blocks (gridpoints):     25253 (   17139144).
MG BCs: -ve charge blocks (gridpoints):      8340 (    1068886).
MG BCs:     Elided blocks (gridpoints):    184792 (  188011795).
MG BCs: Computational effort saved:  99.9837%.
MG BCs: Charge after coarse-graining:           -9.0006952.
MG DL_MG: Calling solver with defect correction order = 8
MG DL_MG: Solver finished
MG Hartree energy from (\int phi*rho dr):              1262.813447
MG Hartree energy from (\int eps (grad phi)^2 dr):     1262.165340
MG Discrepancy due to finite box and discretization:     -0.648107 (  -0.05132%)
MG Correction to account for finite box:                  0.458634
MG Remaining discrepancy, due to discretization:         -0.189473 (  -0.01500%)
     Trial step:       0.858995294287
             Q1:  -11639.796929993085
 Quadratic coef:      10.975082252478
 Linear coef   :      -8.414314772772
           Qmin:  -11643.970457438196
Quadratic minimum step length (  0.329284857652) accepted
    Initial Ne1:    7191.99955857
      Final Ne1:    7192.00000000

=================== Penalty functional idempotency correction ==================
 RMS occupancy error at iteration   1:  0.000354 (step -0.4986 Ne1=   7192.0000)
 RMS occupancy error at iteration   2:  0.000000 (step -0.5000 Ne1=   7192.0000)
            Final RMS occupancy error   :  0.000000 (Ne1=   7192.0000)
               Final occupancy bounds   : [  0.0000,  1.0000]
================================================================================

    1        -1.164235769747E+04     4.8113E-04     4.3518E-04
MG BCs: +ve charge blocks (gridpoints):     25207 (   17128238).
MG BCs: -ve charge blocks (gridpoints):      8352 (    1071408).
MG BCs:     Elided blocks (gridpoints):    184838 (  188020179).
MG BCs: Computational effort saved:  99.9837%.
MG BCs: Charge after coarse-graining:           -9.0006983.
MG DL_MG: Calling solver with defect correction order = 8
MG DL_MG: Solver finished
MG Hartree energy from (\int phi*rho dr):              1249.530669
MG Hartree energy from (\int eps (grad phi)^2 dr):     1248.886687
MG Discrepancy due to finite box and discretization:     -0.643982 (  -0.05154%)
MG Correction to account for finite box:                  0.458994
MG Remaining discrepancy, due to discretization:         -0.184988 (  -0.01480%)
      ideal mu1:      -0.723419450149
             Q0:  -11643.936101616360
             G0:      -0.976775449178
   RMS gradient:       0.000153058922
MG BCs: +ve charge blocks (gridpoints):     25210 (   17128158).
MG BCs: -ve charge blocks (gridpoints):      8353 (    1072163).
MG BCs:     Elided blocks (gridpoints):    184835 (  188019504).
MG BCs: Computational effort saved:  99.9837%.
MG BCs: Charge after coarse-graining:           -9.0006983.
MG DL_MG: Calling solver with defect correction order = 8
MG DL_MG: Solver finished
MG Hartree energy from (\int phi*rho dr):              1250.787358
MG Hartree energy from (\int eps (grad phi)^2 dr):     1250.143011
MG Discrepancy due to finite box and discretization:     -0.644347 (  -0.05152%)
MG Correction to account for finite box:                  0.458957
MG Remaining discrepancy, due to discretization:         -0.185390 (  -0.01482%)
     Trial step:       0.531840336195
             Q1:  -11644.129050138639
 Quadratic coef:       0.326540060998
 Linear coef   :      -0.519488583278
           Qmin:  -11644.142713622350
Quadratic minimum step length (  0.423049138190) accepted
    Initial Ne1:    7191.99994260
      Final Ne1:    7192.00000000

=================== Penalty functional idempotency correction ==================
 RMS occupancy error at iteration   1:  0.000140 (step -0.4994 Ne1=   7192.0000)
            Final RMS occupancy error   :  0.000000 (Ne1=   7192.0000)
               Final occupancy bounds   : [ -0.0000,  1.0000]
================================================================================

    2        -1.164393610162E+04     1.5306E-04     1.3844E-04    -1.5784E+00
MG BCs: +ve charge blocks (gridpoints):     25209 (   17128228).
MG BCs: -ve charge blocks (gridpoints):      8354 (    1071998).
MG BCs:     Elided blocks (gridpoints):    184836 (  188019599).
MG BCs: Computational effort saved:  99.9837%.
MG BCs: Charge after coarse-graining:           -9.0006982.
MG DL_MG: Calling solver with defect correction order = 8
MG DL_MG: Solver finished
MG Hartree energy from (\int phi*rho dr):              1250.529957
MG Hartree energy from (\int eps (grad phi)^2 dr):     1249.885688
MG Discrepancy due to finite box and discretization:     -0.644269 (  -0.05152%)
MG Correction to account for finite box:                  0.458964
MG Remaining discrepancy, due to discretization:         -0.185305 (  -0.01482%)
      ideal mu1:      -0.724449050548
             Q0:  -11644.143178815371
             G0:      -0.144247068969
   RMS gradient:       0.000058319896
MG BCs: +ve charge blocks (gridpoints):     25208 (   17127585).
MG BCs: -ve charge blocks (gridpoints):      8358 (    1072363).
MG BCs:     Elided blocks (gridpoints):    184837 (  188019877).
MG BCs: Computational effort saved:  99.9837%.
MG BCs: Charge after coarse-graining:           -9.0006982.
MG DL_MG: Calling solver with defect correction order = 8
MG DL_MG: Solver finished
MG Hartree energy from (\int phi*rho dr):              1250.047235
MG Hartree energy from (\int eps (grad phi)^2 dr):     1249.403026
MG Discrepancy due to finite box and discretization:     -0.644209 (  -0.05153%)
MG Correction to account for finite box:                  0.458933
MG Remaining discrepancy, due to discretization:         -0.185276 (  -0.01482%)
     Trial step:       0.474335952550
             Q1:  -11644.186816801317
 Quadratic coef:       0.024783584917
 Linear coef   :      -0.068421570862
           Qmin:  -11644.190402727640
Quadratic minimum step length (  0.654764254220) accepted
    Initial Ne1:    7192.00057354
      Final Ne1:    7192.00000000

=================== Penalty functional idempotency correction ==================
 RMS occupancy error at iteration   1:  0.000060 (step -0.4998 Ne1=   7192.0000)
            Final RMS occupancy error   :  0.000000 (Ne1=   7192.0000)
               Final occupancy bounds   : [ -0.0000,  1.0000]
================================================================================

    3        -1.164414317882E+04     5.8320E-05     5.2749E-05    -2.0708E-01
MG BCs: +ve charge blocks (gridpoints):     25208 (   17127325).
MG BCs: -ve charge blocks (gridpoints):      8359 (    1072541).
MG BCs:     Elided blocks (gridpoints):    184837 (  188019959).
MG BCs: Computational effort saved:  99.9837%.
MG BCs: Charge after coarse-graining:           -9.0006982.
MG DL_MG: Calling solver with defect correction order = 8
MG DL_MG: Solver finished
MG Hartree energy from (\int phi*rho dr):              1249.863714
MG Hartree energy from (\int eps (grad phi)^2 dr):     1249.219527
MG Discrepancy due to finite box and discretization:     -0.644187 (  -0.05154%)
MG Correction to account for finite box:                  0.458921
MG Remaining discrepancy, due to discretization:         -0.185266 (  -0.01482%)
      ideal mu1:      -0.723539816119
             Q0:  -11644.190486736828
             G0:      -0.034652110123
   RMS gradient:       0.000028575932
MG BCs: +ve charge blocks (gridpoints):     25207 (   17127160).
MG BCs: -ve charge blocks (gridpoints):      8358 (    1072573).
MG BCs:     Elided blocks (gridpoints):    184838 (  188020092).
MG BCs: Computational effort saved:  99.9837%.
MG BCs: Charge after coarse-graining:           -9.0006983.
MG DL_MG: Calling solver with defect correction order = 8
MG DL_MG: Solver finished
MG Hartree energy from (\int phi*rho dr):              1249.867085
MG Hartree energy from (\int eps (grad phi)^2 dr):     1249.223007
MG Discrepancy due to finite box and discretization:     -0.644078 (  -0.05153%)
MG Correction to account for finite box:                  0.458919
MG Remaining discrepancy, due to discretization:         -0.185159 (  -0.01481%)
     Trial step:       0.557295456846
             Q1:  -11644.198956930311
 Quadratic coef:       0.010841270059
 Linear coef   :      -0.019311463542
           Qmin:  -11644.199086573888
Quadratic minimum step length (  0.496352864467) accepted
    Initial Ne1:    7192.00020827
      Final Ne1:    7192.00000000

=================== Penalty functional idempotency correction ==================
 RMS occupancy error at iteration   1:  0.000017 (step -0.4999 Ne1=   7192.0000)
            Final RMS occupancy error   :  0.000000 (Ne1=   7192.0000)
               Final occupancy bounds   : [ -0.0000,  1.0000]
================================================================================

    4        -1.164419048674E+04     2.8576E-05     2.5846E-05    -4.7308E-02
MG BCs: +ve charge blocks (gridpoints):     25207 (   17127200).
MG BCs: -ve charge blocks (gridpoints):      8358 (    1072562).
MG BCs:     Elided blocks (gridpoints):    184838 (  188020063).
MG BCs: Computational effort saved:  99.9837%.
MG BCs: Charge after coarse-graining:           -9.0006983.
MG DL_MG: Calling solver with defect correction order = 8
MG DL_MG: Solver finished
MG Hartree energy from (\int phi*rho dr):              1249.866529
MG Hartree energy from (\int eps (grad phi)^2 dr):     1249.222440
MG Discrepancy due to finite box and discretization:     -0.644090 (  -0.05153%)
MG Correction to account for finite box:                  0.458919
MG Remaining discrepancy, due to discretization:         -0.185171 (  -0.01482%)
      ideal mu1:      -0.723556526578
             Q0:  -11644.199091148097
             G0:      -0.011083691439
   RMS gradient:       0.000016181168
MG BCs: +ve charge blocks (gridpoints):     25207 (   17127698).
MG BCs: -ve charge blocks (gridpoints):      8358 (    1072374).
MG BCs:     Elided blocks (gridpoints):    184838 (  188019753).
MG BCs: Computational effort saved:  99.9837%.
MG BCs: Charge after coarse-graining:           -9.0006982.
MG DL_MG: Calling solver with defect correction order = 8
MG DL_MG: Solver finished
MG Hartree energy from (\int phi*rho dr):              1250.254383
MG Hartree energy from (\int eps (grad phi)^2 dr):     1249.610338
MG Discrepancy due to finite box and discretization:     -0.644045 (  -0.05151%)
MG Correction to account for finite box:                  0.458908
MG Remaining discrepancy, due to discretization:         -0.185137 (  -0.01481%)
     Trial step:       0.525942198687
             Q1:  -11644.202194749028
 Quadratic coef:       0.002725780114
 Linear coef   :      -0.005829381045
           Qmin:  -11644.202207841479
Quadratic minimum step length (  0.562392664785) accepted
    Initial Ne1:    7192.00008699
      Final Ne1:    7192.00000000

=================== Penalty functional idempotency correction ==================
 RMS occupancy error at iteration   1:  0.000009 (step -0.5000 Ne1=   7192.0000)
            Final RMS occupancy error   :  0.000000 (Ne1=   7192.0000)
               Final occupancy bounds   : [ -0.0000,  1.0000]
================================================================================

    5        -1.164419909115E+04     1.6181E-05     1.4635E-05    -8.6044E-03
MG BCs: +ve charge blocks (gridpoints):     25207 (   17127738).
MG BCs: -ve charge blocks (gridpoints):      8358 (    1072357).
MG BCs:     Elided blocks (gridpoints):    184838 (  188019730).
MG BCs: Computational effort saved:  99.9837%.
MG BCs: Charge after coarse-graining:           -9.0006982.
MG DL_MG: Calling solver with defect correction order = 8
MG DL_MG: Solver finished
MG Hartree energy from (\int phi*rho dr):              1250.281293
MG Hartree energy from (\int eps (grad phi)^2 dr):     1249.637251
MG Discrepancy due to finite box and discretization:     -0.644042 (  -0.05151%)
MG Correction to account for finite box:                  0.458907
MG Remaining discrepancy, due to discretization:         -0.185135 (  -0.01481%)
      ideal mu1:      -0.723889119292
             Q0:  -11644.202208755538
             G0:      -0.003406380481
   RMS gradient:       0.000008970553
MG BCs: +ve charge blocks (gridpoints):     25207 (   17127685).
MG BCs: -ve charge blocks (gridpoints):      8358 (    1072397).
MG BCs:     Elided blocks (gridpoints):    184838 (  188019743).
MG BCs: Computational effort saved:  99.9837%.
MG BCs: Charge after coarse-graining:           -9.0006982.
MG DL_MG: Calling solver with defect correction order = 8
MG DL_MG: Solver finished
MG Hartree energy from (\int phi*rho dr):              1250.250557
MG Hartree energy from (\int eps (grad phi)^2 dr):     1249.606523
MG Discrepancy due to finite box and discretization:     -0.644034 (  -0.05151%)
MG Correction to account for finite box:                  0.458903
MG Remaining discrepancy, due to discretization:         -0.185131 (  -0.01481%)
     Trial step:       0.543862146727
             Q1:  -11644.203370693955
 Quadratic coef:       0.000690662984
 Linear coef   :      -0.001852601401
           Qmin:  -11644.203451087917
Quadratic minimum step length (  0.729414923036) accepted
    Initial Ne1:    7192.00004054
      Final Ne1:    7192.00000000

=================== Penalty functional idempotency correction ==================
 RMS occupancy error at iteration   1:  0.000005 (step -0.5000 Ne1=   7192.0000)
            Final RMS occupancy error   :  0.000000 (Ne1=   7192.0000)
               Final occupancy bounds   : [ -0.0000,  1.0000]
================================================================================

    6        -1.164420220876E+04     8.9706E-06     8.1137E-06    -3.1176E-03
MG BCs: +ve charge blocks (gridpoints):     25207 (   17127661).
MG BCs: -ve charge blocks (gridpoints):      8358 (    1072412).
MG BCs:     Elided blocks (gridpoints):    184838 (  188019752).
MG BCs: Computational effort saved:  99.9837%.
MG BCs: Charge after coarse-graining:           -9.0006982.
MG DL_MG: Calling solver with defect correction order = 8
MG DL_MG: Solver finished
MG Hartree energy from (\int phi*rho dr):              1250.240041
MG Hartree energy from (\int eps (grad phi)^2 dr):     1249.596010
MG Discrepancy due to finite box and discretization:     -0.644031 (  -0.05151%)
MG Correction to account for finite box:                  0.458901
MG Remaining discrepancy, due to discretization:         -0.185130 (  -0.01481%)
      ideal mu1:      -0.723843745186
             Q0:  -11644.203451171983
             G0:      -0.001965039418
   RMS gradient:       0.000006814568
MG BCs: +ve charge blocks (gridpoints):     25207 (   17127481).
MG BCs: -ve charge blocks (gridpoints):      8358 (    1072463).
MG BCs:     Elided blocks (gridpoints):    184838 (  188019881).
MG BCs: Computational effort saved:  99.9837%.
MG BCs: Charge after coarse-graining:           -9.0006982.
MG DL_MG: Calling solver with defect correction order = 8
MG DL_MG: Solver finished
MG Hartree energy from (\int phi*rho dr):              1250.138280
MG Hartree energy from (\int eps (grad phi)^2 dr):     1249.494237
MG Discrepancy due to finite box and discretization:     -0.644043 (  -0.05152%)
MG Correction to account for finite box:                  0.458905
MG Remaining discrepancy, due to discretization:         -0.185138 (  -0.01481%)
     Trial step:       0.629842175388
             Q1:  -11644.203887911164
 Quadratic coef:       0.000800925520
 Linear coef   :      -0.001237664702
           Qmin:  -11644.203929310672
Quadratic minimum step length (  0.486645392605) accepted
    Initial Ne1:    7192.00000469
      Final Ne1:    7192.00000000

=================== Penalty functional idempotency correction ==================
 RMS occupancy error at iteration   1:  0.000000 (step -0.5000 Ne1=   7192.0000)
            Final RMS occupancy error   :  0.000000 (Ne1=   7192.0000)
               Final occupancy bounds   : [  0.0000,  1.0000]
================================================================================

    7        -1.164420345117E+04     6.8146E-06     6.1636E-06    -1.2424E-03
MG BCs: +ve charge blocks (gridpoints):     25207 (   17127530).
MG BCs: -ve charge blocks (gridpoints):      8358 (    1072445).
MG BCs:     Elided blocks (gridpoints):    184838 (  188019850).
MG BCs: Computational effort saved:  99.9837%.
MG BCs: Charge after coarse-graining:           -9.0006982.
MG DL_MG: Calling solver with defect correction order = 8
MG DL_MG: Solver finished
MG Hartree energy from (\int phi*rho dr):              1250.161374
MG Hartree energy from (\int eps (grad phi)^2 dr):     1249.517334
MG Discrepancy due to finite box and discretization:     -0.644040 (  -0.05152%)
MG Correction to account for finite box:                  0.458904
MG Remaining discrepancy, due to discretization:         -0.185136 (  -0.01481%)
      ideal mu1:      -0.723753125620
             Q0:  -11644.203929296462
             G0:      -0.001265013550
   RMS gradient:       0.000005467513
MG BCs: +ve charge blocks (gridpoints):     25207 (   17127488).
MG BCs: -ve charge blocks (gridpoints):      8358 (    1072473).
MG BCs:     Elided blocks (gridpoints):    184838 (  188019864).
MG BCs: Computational effort saved:  99.9837%.
MG BCs: Charge after coarse-graining:           -9.0006982.
MG DL_MG: Calling solver with defect correction order = 8
MG DL_MG: Solver finished
MG Hartree energy from (\int phi*rho dr):              1250.115520
MG Hartree energy from (\int eps (grad phi)^2 dr):     1249.471471
MG Discrepancy due to finite box and discretization:     -0.644049 (  -0.05152%)
MG Correction to account for finite box:                  0.458906
MG Remaining discrepancy, due to discretization:         -0.185143 (  -0.01481%)
     Trial step:       0.553633265547
             Q1:  -11644.204491490731
 Quadratic coef:       0.000138159314
 Linear coef   :      -0.000700353583
           Qmin:  -11644.204816849982
Quadratic minimum step length (  1.403231640420) accepted
    Initial Ne1:    7192.00000867
      Final Ne1:    7192.00000000

=================== Penalty functional idempotency correction ==================
 RMS occupancy error at iteration   1:  0.000009 (step -0.4996 Ne1=   7192.0000)
            Final RMS occupancy error   :  0.000000 (Ne1=   7192.0000)
               Final occupancy bounds   : [ -0.0000,  1.0000]
================================================================================

    8        -1.164420392930E+04     5.4675E-06     4.9452E-06    -4.7812E-04
MG BCs: +ve charge blocks (gridpoints):     25207 (   17127420).
MG BCs: -ve charge blocks (gridpoints):      8358 (    1072498).
[...]
MG Hartree energy from (\int phi*rho dr):              1207.843659
MG Hartree energy from (\int eps (grad phi)^2 dr):     1207.653159
MG Discrepancy due to finite box and discretization:     -0.190501 (  -0.01577%)
MG Correction to account for finite box:                  0.006269
MG Remaining discrepancy, due to discretization:         -0.184232 (  -0.01525%)
             Q2:  -11678.594567597378
  Cubic LS coeff:       0.795163067060
Predicted energy:  -11678.594567597365
Cubic minimum step length accepted
    Initial Ne1:    7192.00000000
      Final Ne1:    7192.00000000

=================== Penalty functional idempotency correction ==================
 RMS occupancy error at iteration   1:  0.000000 (step -0.5000 Ne1=   7192.0000)
            Final RMS occupancy error   :  0.000000 (Ne1=   7192.0000)
               Final occupancy bounds   : [  0.0000,  1.0000]
================================================================================

    7        -1.167859456760E+04     6.9684E-09     6.3028E-09    -9.3132E-10

Reusing previously generated solute cavity.
MG BCs: +ve charge blocks (gridpoints):     29636 (   19464710).
MG BCs: -ve charge blocks (gridpoints):      8333 (    1042203).
MG BCs:     Elided blocks (gridpoints):    180409 (  185712912).
MG BCs: Computational effort saved:  99.9816%.
MG BCs: Charge after coarse-graining:           -9.0009868.
MG DL_MG: Calling solver with defect correction order = 8
MG DL_MG: Solver finished
MG Hartree energy from (\int phi*rho dr):              1207.843660
MG Hartree energy from (\int eps (grad phi)^2 dr):     1207.653159
MG Discrepancy due to finite box and discretization:     -0.190501 (  -0.01577%)
MG Correction to account for finite box:                  0.006269
MG Remaining discrepancy, due to discretization:         -0.184232 (  -0.01525%)
      ideal mu1:      -0.480524526616
             Q0:  -11678.594567597378
             G0:      -0.000000001984
   RMS gradient:       0.000000005959

Reusing previously generated solute cavity.
MG BCs: +ve charge blocks (gridpoints):     29636 (   19464710).
MG BCs: -ve charge blocks (gridpoints):      8333 (    1042203).
MG BCs:     Elided blocks (gridpoints):    180409 (  185712912).
MG BCs: Computational effort saved:  99.9816%.
MG BCs: Charge after coarse-graining:           -9.0009868.
MG DL_MG: Calling solver with defect correction order = 8
MG DL_MG: Solver finished
MG Hartree energy from (\int phi*rho dr):              1207.843640
MG Hartree energy from (\int eps (grad phi)^2 dr):     1207.653140
MG Discrepancy due to finite box and discretization:     -0.190501 (  -0.01577%)
MG Correction to account for finite box:                  0.006269
MG Remaining discrepancy, due to discretization:         -0.184232 (  -0.01525%)
     Trial step:       0.568713514742
             Q1:  -11678.594567597844
 Quadratic coef:       0.000000000662
 Linear coef   :      -0.000000001128
           Qmin:  -11678.594567597858
Quadratic minimum step length (  0.484514402443) accepted
    Initial Ne1:    7192.00000000
      Final Ne1:    7192.00000000

=================== Penalty functional idempotency correction ==================
 RMS occupancy error at iteration   1:  0.000000 (step -0.5000 Ne1=   7192.0000)
            Final RMS occupancy error   :  0.000000 (Ne1=   7192.0000)
               Final occupancy bounds   : [  0.0000,  1.0000]
================================================================================

    8        -1.167859456760E+04     5.9588E-09     5.3896E-09    -2.0955E-09

Reusing previously generated solute cavity.
MG BCs: +ve charge blocks (gridpoints):     29636 (   19464710).
MG BCs: -ve charge blocks (gridpoints):      8333 (    1042203).
MG BCs:     Elided blocks (gridpoints):    180409 (  185712912).
MG BCs: Computational effort saved:  99.9816%.
MG BCs: Charge after coarse-graining:           -9.0009868.
MG DL_MG: Calling solver with defect correction order = 8
MG DL_MG: Solver finished
MG Hartree energy from (\int phi*rho dr):              1207.843643
MG Hartree energy from (\int eps (grad phi)^2 dr):     1207.653142
MG Discrepancy due to finite box and discretization:     -0.190501 (  -0.01577%)
MG Correction to account for finite box:                  0.006269
MG Remaining discrepancy, due to discretization:         -0.184232 (  -0.01525%)
      ideal mu1:      -0.480524507228
             Q0:  -11678.594567597844
             G0:      -0.000000000981
   RMS gradient:       0.000000003634

Reusing previously generated solute cavity.
MG BCs: +ve charge blocks (gridpoints):     29636 (   19464711).
MG BCs: -ve charge blocks (gridpoints):      8333 (    1042203).
MG BCs:     Elided blocks (gridpoints):    180409 (  185712911).
MG BCs: Computational effort saved:  99.9816%.
MG BCs: Charge after coarse-graining:           -9.0009868.
MG DL_MG: Calling solver with defect correction order = 8
MG DL_MG: Solver finished
MG Hartree energy from (\int phi*rho dr):              1207.843642
MG Hartree energy from (\int eps (grad phi)^2 dr):     1207.653142
MG Discrepancy due to finite box and discretization:     -0.190501 (  -0.01577%)
MG Correction to account for finite box:                  0.006269
MG Remaining discrepancy, due to discretization:         -0.184232 (  -0.01525%)
     Trial step:       0.524928460608
             Q1:  -11678.594567597844
 Quadratic coef:       0.000000000515
 Linear coef   :      -0.000000000515
           Qmin:  -11678.594567597973
Quadratic minimum step length (  0.262589319428) accepted
    Initial Ne1:    7192.00000000
      Final Ne1:    7192.00000000

=================== Penalty functional idempotency correction ==================
 RMS occupancy error at iteration   1:  0.000000 (step -0.5000 Ne1=   7192.0000)
            Final RMS occupancy error   :  0.000000 (Ne1=   7192.0000)
               Final occupancy bounds   : [  0.0000,  1.0000]
================================================================================

    9        -1.167859456760E+04     3.6339E-09     3.2868E-09    -4.6566E-10

Reusing previously generated solute cavity.
MG BCs: +ve charge blocks (gridpoints):     29636 (   19464710).
MG BCs: -ve charge blocks (gridpoints):      8333 (    1042203).
MG BCs:     Elided blocks (gridpoints):    180409 (  185712912).
MG BCs: Computational effort saved:  99.9816%.
MG BCs: Charge after coarse-graining:           -9.0009868.
MG DL_MG: Calling solver with defect correction order = 8
MG DL_MG: Solver finished
MG Hartree energy from (\int phi*rho dr):              1207.843643
MG Hartree energy from (\int eps (grad phi)^2 dr):     1207.653142
MG Discrepancy due to finite box and discretization:     -0.190501 (  -0.01577%)
MG Correction to account for finite box:                  0.006269
MG Remaining discrepancy, due to discretization:         -0.184232 (  -0.01525%)
      ideal mu1:      -0.480524505910
   10        -1.167859456760E+04     3.0520E-09     2.7605E-09     0.0000E+00
Finished density kernel iterations (  10)

Writing density kernel to file "host_23281.dkn" ... done


>>> Density kernel optimised for the current NGWF basis:
     ~~~~~~~~~~~~~~~~~~~~~~~~~~~~~~~~~~~~~~~~~~~~~~~~~~~~~~~~~~~
     Total energy                =  -1.16785945675978E+04  Eh
     Estimated bandgap           =   8.7634E-02  Eh
     RMS occupancy error         =   2.9546E-16
     [H,K] commutator            =   2.7605E-09
     Occupancy bounds            = [  0.000:  1.000]
     ~~~~~~~~~~~~~~~~~~~~~~~~~~~~~~~~~~~~~~~~~~~~~~~~~~~~~~~~~~~




################################################################################
########################### NGWF CG iteration  004 #############################
################################################################################
****** Reciprocal space K.E. preconditioning with k_zero =  3.5000 a0^-1 *******

>>> Checking for convergence of NGWFs: 
           ........................................................
           |         *** NGWF optimisation converged ***          |
           | RMS NGWF gradient =    0.00000198323511              |
           | Criteria satisfied:                                  |
           | -> RMS NGWF gradient lower than set threshold.       |
           ========================================================

Reusing previously generated solute cavity.
MG BCs: +ve charge blocks (gridpoints):     29636 (   19464710).
MG BCs: -ve charge blocks (gridpoints):      8333 (    1042203).
MG BCs:     Elided blocks (gridpoints):    180409 (  185712912).
MG BCs: Computational effort saved:  99.9816%.
MG BCs: Charge after coarse-graining:           -9.0009868.
MG DL_MG: Calling solver with defect correction order = 8
MG DL_MG: Solver finished
MG Hartree energy from (\int phi*rho dr):              1207.843643
MG Hartree energy from (\int eps (grad phi)^2 dr):     1207.653142
MG Discrepancy due to finite box and discretization:     -0.190501 (  -0.01577%)
MG Correction to account for finite box:                  0.006269
MG Remaining discrepancy, due to discretization:         -0.184232 (  -0.01525%)

================================================================================
           ---------------- ENERGY COMPONENTS (Eh) ----------------
           | Kinetic                    :     8532.66312019313773 |
           | Pseudo. (local,OBC,corr'd) :    -5052.32063491917870 |
           | Pseudopotential (non-local):     1403.25298351279389 |
           | Hartree (molecular)        :     1207.84364265481258 |
           | Exchange-correlation       :    -3358.51131802009832 |
           | Ion-ion (open BC)          :   809993.27452465961687 |
           | Dispersion Correction      :       -3.22929675923654 |
           | Smeared ion non-self corr. :  -809945.06452552089468 |
           | Smeared ion self corr.     :   -14457.16956389741972 |
           | Solvent cavitation energy  :        2.37125499815547 |
           | Solute-solvent dis-rep en. :       -1.70475449954892 |
           | Total                      :   -11678.59456759777822 |
           --------------------------------------------------------
           ------ LOCAL ENERGY COMPONENTS FROM MATRIX TRACES ------
           | Pseudopotential (local)    :    -5052.32063491916870 |
           | Hartree                    :    -1988.51251755801422 |
           --------------------------------------------------------
           Integrated density           :     7191.99999999878855
           Integrated density tr(KS)    :     7192.00000000000000
================================================================================


                        <<<<< CALCULATION SUMMARY >>>>>                         
|ITER|    RMS GRADIENT   |     TOTAL ENERGY    |   step   |     Epredicted              
   0     0.00004244306815 -11678.52240742859431   0.643406 -11678.58511254550103        
   1     0.00000932211899 -11678.59414427785669   0.074923 -11678.59449652449439        
   2     0.00000428020538 -11678.59455078607425   0.014914 -11678.59456556819350        
   3     0.00000198323511 -11678.59456759784371  <-- CG                                 

=================== Finished the calculation in solvent ========================
= Adjusting the following parameters: 
= read_denskern: F
= read_tightbox_ngwfs: F
= maxit_pen: 0 (restored to user-specified value)
= restart read filename prefix: ""
= restart write filename prefix: ""
================================================================================

================================================================================
IS: Calculation in solvent completed (NGWFs converged).      

Individual components of total energy in solvent:     hartree           kcal/mol
- Usual non-electrostatic DFT terms:    -12887.10471075126225    -8086780.123796
- Electrostatic fixed charge energy:      1207.84364265481258      757933.312509
- Apolar cavitation energy:                  2.37125499815547        1487.984944
- Apolar dispersion-repulsion energy:       -1.70475449954892       -1069.749576
 -------------------------------------------------------------------------------
- Total energy in solvent:              -11678.59456759784371    -7328428.575919

Components of total energy in solvent:                hartree           kcal/mol
- Usual non-electrostatic DFT terms:    -12887.10471075126225    -8086780.123796
- Electrostatic energy:                   1207.84364265481258      757933.312509
- Apolar energy terms:                       0.66650049860655         418.235368
 -------------------------------------------------------------------------------
- Total energy in solvent:              -11678.59456759784371    -7328428.575919

Calculation of free energy of solvation:              hartree           kcal/mol
- Total energy in solvent:         (+)  -11678.59456759784371    -7328428.575919
- Total energy in vacuum:          (-)  -11674.54599127487745    -7325888.055974
 -------------------------------------------------------------------------------
- Total free energy of solvation:           -4.04857632296626       -2540.519944

Components of polar term in f.e. of solvation:        hartree           kcal/mol
- Electrostatic:                            -4.80494259289890       -3015.146934
- Change in nonelectrostatic DFT terms:      0.08986577132600          56.391622
 -------------------------------------------------------------------------------
- Polar term in f.e. of solvation:          -4.71507682157289       -2958.755312

Components of free energy of solvation:               hartree           kcal/mol
- Polar term in f.e. of solvation: (+)      -4.71507682157289       -2958.755312
- Apolar (cavitation, dis., rep.): (+)       0.66650049860655         418.235368
 -------------------------------------------------------------------------------
- Total free energy of solvation:           -4.04857632296634       -2540.519944
================================================================================


------------------------------ TIMING INFORMATION ------------------------------
AVERAGE TIME:   30452.525s on     60 node(s)                                    
TOTAL TIME:     30452.525s on     60 node(s)                                    
================= AVERAGE TIMINGS FROM ALL NODES (CUMULATIVE) ==================
|| TAG                                    #calls    cpu time   %total  Gflops ||
|| work_imbalance                       :     1        0.00s   0.000%  ------ ||
|| sparse_set_to_garbage                :   164        0.03s   0.000%  ------ ||
|| parallel_prepare_fd_halos_request    :  1827        0.03s   0.000%  ------ ||
|| ngwfs_initialise_from_radial         :     1        0.11s   0.000%  ------ ||
|| basis_extract_function_from_box      :  3360        0.15s   0.000%  ------ ||
|| parallel_prepare_fd_halos_satisfy    :  1827        0.65s   0.002%  ------ ||
|| parallel_prepare_fd_halos_alloc      :  1827        1.73s   0.006%  ------ ||
|| pseudopotentials_nonlocal_mat        :    28        2.24s   0.007%  ------ ||
|| openbc_locps_radial                  :     1        3.72s   0.012%  ------ ||
|| density_init_guess_real              :     1        7.85s   0.026%  ------ ||
|| parallel_prepare_fd_halos_comms_imbal:  1827        8.14s   0.027%  ------ ||
|| restart_kernel_read                  :     1        8.57s   0.028%  ------ ||
|| restart_ngwfs_tightbox_input         :     1        8.76s   0.029%  ------ ||
|| parallel_prepare_fd_halos_clear      :  1827       18.89s   0.062%  ------ ||
|| sparse_init                          :     2       21.38s   0.070%  ------ ||
|| projectors_func_ovlp_box             :    28       24.98s   0.082%  ------ ||
|| parallel_prepare_fd_halos_comms_wait :  1827       26.25s   0.086%  ------ ||
|| function_ops_brappd_ketppd           :    28       29.12s   0.096%  ------ ||
|| projectors_init_fftbox_recip         :   133       30.43s   0.100%  ------ ||
|| palser_mano_kernel_optimise          :     1       38.54s   0.127%  ------ ||
|| basis_copy_function_to_box           : 54533       39.42s   0.129%  ------ ||
|| fourier_apply_box_pair               :  4776       49.48s   0.162% 558.781 ||
|| ngwf_gradient_coeffs                 :    15       49.58s   0.163%  ------ ||
|| pseudo_make_structure_factor         :     2       54.87s   0.180%  ------ ||
|| parallel_prepare_fd_halos            :  1827       55.71s   0.183%  ------ ||
|| sparse_embed_hotelling_invert_embed  :    28       77.58s   0.255%  ------ ||
|| restart_kernel_write                 :    16       95.52s   0.314%  ------ ||
|| finite_difference_derivative         :  1827      125.97s   0.414%  ------ ||
|| integrals_kinetic                    :    28      138.06s   0.453%  ------ ||
|| projectors_gradient_batch            :   105      153.63s   0.504%  ------ ||
|| basis_dot_function_with_box          : 8.174M     164.56s   0.540%  ------ ||
|| fourier_apply_cell_backward          :  1219      191.77s   0.630%  93.141 ||
|| sparse_trace                         :  4943      196.16s   0.644%  ------ ||
|| fourier_apply_cell_forward           :  1217      240.99s   0.791%  73.996 ||
|| openbc_locps_on_grid                 :     2      287.15s   0.943%  ------ ||
|| kernel_purify                        :   464      292.86s   0.962%  ------ ||
|| basis_add_function_to_box            : 17.00M     388.55s   1.276%  ------ ||
|| lnv_gradient_norm                    :   150      440.25s   1.446%  ------ ||
|| hamiltonian_energy_components        :     4      493.00s   1.619%  ------ ||
|| kernel_fix                           :   150      499.58s   1.641%  ------ ||
|| xc_energy_potential                  :   304      500.27s   1.643%  ------ ||
|| ngwf_gradient_build_batch            :   105      692.81s   2.275%  ------ ||
|| integrals_locpot_mat_els_batch       :  1113      726.98s   2.387%  ------ ||
|| ngwf_gradient_batch                  :   105      956.11s   3.140%  ------ ||
|| density_batch_row_sums               :  2121     1048.48s   3.443%  ------ ||
|| ngwf_gradient_lnv                    :    15     1093.42s   3.591%  ------ ||
|| cell_grid_deposit_box_real           : 34897     1188.20s   3.902%  ------ ||
|| cell_grid_extract_box_real           : 39493     1474.26s   4.841%  ------ ||
|| restart_ngwfs_tightbox_output        :    13     1611.77s   5.293%  ------ ||
|| density_fftbox_deposit_to_cell       : 33027     1681.69s   5.522%  ------ ||
|| sparse_product                       :  6219     1802.92s   5.920%  ------ ||
|| potential_apply_to_ngwf_batch        :  1113     3296.71s  10.826%  ------ ||
|| density_fftbox_interpolate_multiply  : 33027     3490.99s  11.464%  ------ ||
|| integrals_locpot_dbl_grid            :   159     4046.13s  13.287%  ------ ||
|| fourier_apply_box                    : 113.8k    4298.42s  14.115% 743.636 ||
|| multigrid_prepare_bound_cond         :   304     4529.62s  14.874%  ------ ||
|| density_batch_interp_deposit         :  2121     5941.91s  19.512%  ------ ||
|| density_on_dbl_grid                  :   303     7277.20s  23.897%  ------ ||
|| dl_mg_solver_calls                   :   304     7563.78s  24.838%  ------ ||
|| multigrid_calculate_hartree          :   304    12272.60s  40.301%  ------ ||
|| hamiltonian_lhxc_calculate           :   299    20011.17s  65.713%  ------ ||
|| lnv_denskernel_optimise_cg           :    15    24968.90s  81.993%  ------ ||
|| ngwf_cg_optimise                     :     2    29428.02s  96.636%  ------ ||
|| total_time                           :     1    30452.52s 100.000%  ------ ||
================================================================================
Overhead of generating timer report: 
- 0 ms averaging over threads,
- 15 ms ensuring consistency across MPI ranks,
- 0 ms printing in order.

Job completed: 18-02-2020 06:27 (-0000)

Application 39035230 resources: utime ~6262455s, stime ~212967s, Rss ~3694384, inblocks ~308264729, outblocks ~61331313
