 +---------------------------------------------------------------+
 |                                                               |
 |        ####### #     # ####### ####### ####### ######         |
 |        #     # ##    # #          #    #       #     #        |
 |        #     # # #   # #          #    #       #     #        |
 |        #     # #  #  # #####      #    #####   ######         |
 |        #     # #   # # #          #    #       #              |
 |        #     # #    ## #          #    #       #              |
 |        ####### #     # #######    #    ####### #              |
 |                                                               |
 |        Linear-Scaling Ab Initio Total Energy Program          |
 |                                                               |
 |          Release for academic collaborators of ODG            |
 |                                             Version 5.3.2.6.  |
 |                                                               |
 +---------------------------------------------------------------+
 |                                                               |
 |  Authors:                                                     |
 |  Jacek Dziedzic, Peter D. Haynes, Nicholas D. M. Hine,        |
 |  Arash. A. Mostofi, Mike C. Payne and Chris-Kriton Skylaris   |
 |                                                               |
 |  Contributors:                                                |
 |  J. Aarons, L. Andrinopoulos, P. W. Avraam, R. A. Bell,       |
 |  A. Bhandari, G. A. Bramley, R. J. Charlton, S. J. Clark,     |
 |  R. J. Clements, G. C. Constantinescu, F. Corsetti,           |
 |  N. Corsini, O. Dieguez, S. M. M. Dubois, K. K. B. Duff,      |
 |  J. M. Escartin, A. Greco, H. Helal, Q. O. Hill, L. P. Lee,   |
 |  J.-H. Li, E. B. Linscott, G. Moynihan, D. D. O`Regan,        |
 |  O. K. Okan, M. J. S. Phipps, C. J. Pickard,                  |
 |  J. C. A. Prentice, M. I. J. Probert, L. E. Ratcliff,         |
 |  M. Robinson, A. Ruiz Serrano, J. S. Spencer, E. W. Tait,     |
 |  G. Teobaldi, D. Turban, V. Vitale, K. A. Wilkinson,          |
 |  C. Weber, J. C. Womack, N. Yeung and T. J. Zuehlsdorff       |
 |                                                               |
 |                                   Copyright (c) 2004-2019     |
 |                                                               |
 |  Please cite:                                                 |
 |  "Introducing ONETEP: Linear-scaling density functional       |
 |   simulations on parallel computers".                         |
 |   C.-K. Skylaris, P. D. Haynes, A. A. Mostofi, M. C. Payne.   |
 |   J. Chem. Phys. 122 084119 (2005).                           |
 |                                                               |
 |          in all publications arising from your use of ONETEP. |
 |                                                               |
 +---------------------------------------------------------------+
 |                                                               |
 |   ONETEP is based on developments described in the following  |
 |   publications:                                               |
 |                                                               |
 |  "Nonorthogonal generalized Wannier function pseudopotential  |
 |   plane-wave method".                                         |
 |   C.-K. Skylaris, A. A. Mostofi, P. D. Haynes, O. Dieguez,    |
 |   M. C. Payne.                                                |
 |   Phys. Rev. B 66 035119 (2002).                              |
 |                                                               |
 |  "Preconditioned iterative minimization for linear-scaling    |
 |   electronic structure calculations".                         |
 |   A. A. Mostofi, P. D. Haynes, C.-K. Skylaris, M. C. Payne.   |
 |   J. Chem. Phys. 119(17), pp.8842-8848 (2003).                |
 |                                                               |
 |  "Total-energy calculations on a real space grid with         |
 |   localized functions and a plane-wave basis".                |
 |   A. A. Mostofi, C.-K. Skylaris, P. D. Haynes, M. C. Payne.   |
 |   Comput. Phys. Commun. 147, pp.788-802 (2002).               |
 |                                                               |
 |  "Accurate kinetic energy evaluation in electronic structure  |
 |   calculations with localized functions on real space grids"  |
 |   C.-K. Skylaris, A. A. Mostofi, P. D. Haynes, C. J. Pickard, |
 |   M. C. Payne.                                                |
 |   Comput. Phys. Commun. 140, pp.315-322 (2001).               |
 |                                                               |
 |  "Accurate ionic forces and geometry optimization in linear-  |
 |   scaling density-functional theory with local orbitals"      |
 |   N. D. M. Hine, M. Robinson, P. D. Haynes, C.-K. Skylaris,   |
 |   M. C. Payne, and A. A. Mostofi.                             |
 |   Phys. Rev. B 83 195102 (2011).                              |
 |                                                               |
 +---------------------------------------------------------------+

Job started: 17-01-2020 23:50 (-0000)
 
Reading parameters from file "complex_13401.dat" ...... done

If your calculation crashes here, before "Checking processes and threads..."
is displayed, then your stack size is insufficient.
If so, use "ulimit -s unlimited" at runtime.
You can disable this check with "check_stack_size F".

Checking processes and threads...
   Determining the default number of threads...
      No default threads set at compilation time: defaulting to 1.
      OpenMP library call suggests 4 threads.
      Hybrid MPI-OpenMP compilation detected.
      Number of MPI processes > 1.
      OMP_NUM_THREADS environment variable present and
      its value matches the one obtained from the OpenMP library call.
      Using this value as default.
      Default threads: 4
      Default applies to threads_max and threads_num_fftboxes.
      Settings in the input file override this default.
   ... done

   Running with 60 MPI processes.
   There are 6 MPI processes running on the same node as the root process.
   Each MPI process is using: 
               1 threads for simulation cell FFTs.
               1 threads for parallel FFT box operations.
               4 threads for loops over batched FFT box operations.
               4 threads in other parallel regions.
... done

Basic input checks...... done

Reading geometry and species blocks from file "complex_13401.dat" ...
  <species_atomic_set> block not found: NGWF initialisation set to SOLVE
IS: Dielectric excluded regions:
    - NONE.
    
  Number of PPD points along a3 set to 1.  This is 
  the default value, it may have been provided also in the input file.
... done
 Writing xyz coordinates to file "complex_13401.xyz" ... done


--------------------------------------------------------------------------------
---------------------------------- INPUT FILE ----------------------------------
--------------------------------------------------------------------------------

cutoff_energy       : 800 eV                                                    
xc_functional VV10                                                              
task SINGLEPOINT                                                                
write_xyz true                                                                  
output_detail VERBOSE                                                           
ngwf_threshold_orig : 0.000002                                                  
kernel_cutoff       : 1000                                                      
k_zero              : 3.5                                                       
elec_cg_max 0                                                                   
occ_mix 1.0                                                                     
dispersion 0                                                                    
maxit_ngwf_cg 40                                                                
minit_lnv 10                                                                    
maxit_lnv 10                                                                    
write_denskern T                                                                
write_tightbox_ngwfs T                                                          
charge 9                                                                        
is_implicit_solvent T                                                           
is_auto_solvation T                                                             
is_include_apolar T                                                             
is_smeared_ion_rep T                                                            
is_solvent_surf_tension 4.7624E-5 Ha/bohr**2                                    
is_apolar_scaling_factor 0.281075                                               
is_solvation_beta 1.3                                                           
is_density_threshold 0.00035                                                    
is_bulk_permittivity 78.54                                                      
is_dielectric_model fix_initial                                                 
is_smeared_ion_width 0.8                                                        
mg_defco_fd_order 8                                                             
is_bc_coarseness 10                                                             
is_bc_surface_coarseness 1                                                      
fine_grid_scale 2.0                                                             
%block species                                                                  
N   N   7 4 8.0                                                                 
H   H   1 1 8.0                                                                 
C   C   6 4 8.0                                                                 
S   S  16 9 8.0                                                                 
O   O   8 4 8.0                                                                 
%endblock species                                                               
%block species_pot                                                              
N   N_00.recpot                                                                 
H   H_04.recpot                                                                 
C   C_01.recpot                                                                 
S   S_00.recpot                                                                 
O   O_02.recpot                                                                 
%endblock species_pot                                                           
%block lattice_cart                                                             
142.669   0.000   0.000                                                         
0.000 146.65   0.000                                                            
0.000   0.000   162.396                                                         
%endblock lattice_cart                                                          
%block positions_abs                                                            
     Hash =  -000006252252101561778260
%endblock positions_abs                                                         

--------------------------------------------------------------------------------
-------------------------------- END INPUT FILE --------------------------------
--------------------------------------------------------------------------------


 
 ESDF WARNING(1): "kernelcutoff" (esdf_physical) has no units. Assume "bohr".
 ESDF WARNING(2): "kzero" (esdf_physical) has no units. Assume "1/bohr".
 ESDF WARNING(3
 ): "issmearedionwidth" (esdf_physical) has no units. Assume "bohr".
<<<<<<<<<<<<<<<<<<<<<<<<<<<<<<<<< Full system >>>>>>>>>>>>>>>>>>>>>>>>>>>>>>>>>>
<<<<<<<<<<<<<<<<<<<<<<<<< Pseudopotential information >>>>>>>>>>>>>>>>>>>>>>>>>>
File: N_00.recpot [ 2001 points up to Gmax=  52.9 (1/bohr)]
  Atomic number:  7;  ionic charge:  5.000000
    Shell 1: l = 0; rc = 1.48 bohr
File: H_04.recpot [ 2001 points up to Gmax=  52.9 (1/bohr)]
  Atomic number:  1;  ionic charge:  1.000000
    Local potential
File: C_01.recpot [ 2001 points up to Gmax=  52.9 (1/bohr)]
  Atomic number:  6;  ionic charge:  4.000000
    Shell 1: l = 0; rc = 1.48 bohr
File: S_00.recpot [ 2001 points up to Gmax=  52.9 (1/bohr)]
  Atomic number: 16;  ionic charge:  6.000000
    Shell 1: l = 0; rc = 1.90 bohr
    Shell 2: l = 2; rc = 1.84 bohr
File: O_02.recpot [ 2001 points up to Gmax=  52.9 (1/bohr)]
  Atomic number:  8;  ionic charge:  6.000000
    Shell 1: l = 0; rc = 1.31 bohr
<<<<<<<<<<<<<<<<<<<<<<<<<<<<<<<<<<<<<<<<>>>>>>>>>>>>>>>>>>>>>>>>>>>>>>>>>>>>>>>>

-------------------------- Atom counting information ---------------------------
Symbol    Natoms    Nngwfs    Nprojs
  N        236       944       236
  H       1317      1317         0
  C        816      3264       816
  S          6        54        36
  O        241       964       241
.......   ......    ......    ......
Totals:   2616      6543      1329
--------------------------------------------------------------------------------

=============================== PSINC grid sizes ===============================
                      Simulation cell:  286 x 294 x 320
                              FFT-box:  105 x 105 x  99
                                  PPD:   11 x   6 x   1
Grid space d1=  0.498842657343a0 (KE cutoff=  30.52649Eh = 830.66799eV)
Grid space d2=  0.498809523810a0 (KE cutoff=  30.53054Eh = 830.77835eV)
Grid space d3=  0.507487500000a0 (KE cutoff=  29.49533Eh = 802.60885eV)
================================================================================

********************* Fourier parallelisation information **********************
       Coarse grid (whole simulation cell) dimensions:    286   294   320
          Real-space ('12') slabs/node (min max mean):      5     6     5
         Recip-space ('23') slabs/node (min max mean):      2     3     2
********************************************************************************

********************* Fourier parallelisation information **********************
       Double grid (whole simulation cell) dimensions:    572   588   640
          Real-space ('12') slabs/node (min max mean):     10    11    10
         Recip-space ('23') slabs/node (min max mean):      4     5     4
********************************************************************************
ONETEP fine grid is 572 x 588 x 640 gridpoints, 142.6690 x 146.6500 x 162.3960 bohr.
FD multigrid is     569 x 585 x 633 gridpoints, 141.9207 x 145.9018 x 160.6198 bohr.


Calculating local pseudopotential in open BC on a radial grid ...
Discrepancy between calculated realspace psloc and -Z/x on [5a0,261.215a0]:
max |rel. diff| # avg |rel. diff| #  avg rel. diff #  f # pseudopotential file
 0.000261901569    0.000004963664   0.000000071970   55  'N_00.recpot'
 0.000422260137    0.000017549664  -0.000000063361   55  'H_04.recpot'
 0.000361991046    0.000016543264   0.000000134927   55  'C_01.recpot'
 0.000447743184    0.000019132268   0.000000438157   55  'S_00.recpot'
 0.000711628927    0.000028437426   0.000000135877   55  'O_02.recpot'
... done

Atom SCF Calculation for N  : Z (AE atom) =   7 : Z (PS atom) =   5
Config String:
Orbitals (num,occ):  2     2.00 3.00
Orbitals   (num,l):  2        0    1
Real-space Grid (nr,dr,rmax): 1203    0.0066555740    8.0000000000
Spherical Bessel Basis (nsws,lmax,cutoff):   47    1  176.3951722778
Confining potential (l,width,scale):  0    3.0000000000  100.0000000000
Confining potential (l,width,scale):  1    3.0000000000  100.0000000000
  1         -4.7366890484   -3.4501654188    7.0523828109   -1.9619316308
  2         -9.7225420322   -2.0763080851    8.3068355706   -2.2908832437
  3         -9.7134243553   -2.1270543915    8.2534567806   -2.2819809971
  4         -9.7235185949   -2.1427582218    8.2369947390   -2.2802814234
  5         -9.7258373845   -2.1477905863    8.2317116314   -2.2798536235
  6         -9.7268932325   -2.1503512400    8.2290229806   -2.2796830099
  7         -9.7273189469   -2.1516634231    8.2276451699   -2.2796169657
  8         -9.7274675212   -2.1523365544    8.2269384796   -2.2795940092
  9         -9.7275041773   -2.1526817003    8.2265762312   -2.2795881371
 10         -9.7275008637   -2.1528585007    8.2263907413   -2.2795884060
 11         -9.7274868305   -2.1529489544    8.2262958841   -2.2795903922
 12         -9.7274755655   -2.1529859230    8.2262571347   -2.2795920452
 13         -9.7274662327   -2.1530083995    8.2262335832   -2.2795934369
 14         -9.7274589439   -2.1530220534    8.2262192809   -2.2795945372
 15         -9.7274534633   -2.1530303399    8.2262106039   -2.2795953734
 16         -9.7274494492   -2.1530353634    8.2262053452   -2.2795959920
 17         -9.7274465654   -2.1530384053    8.2262021621   -2.2795964406
 18         -9.7274445237   -2.1530402447    8.2262002378   -2.2795967611
 19         -9.7274430947   -2.1530413553    8.2261990762   -2.2795969874
 20         -9.7274421038   -2.1530420249    8.2261983762   -2.2795971458
 21         -9.7274414219   -2.1530424277    8.2261979551   -2.2795972557
 22         -9.7274409555   -2.1530426696    8.2261977024   -2.2795973315
 23         -9.7274406382   -2.1530428144    8.2261975510   -2.2795973835
 24         -9.7274404232   -2.1530429010    8.2261974606   -2.2795974190
 25         -9.7274402783   -2.1530429525    8.2261974067   -2.2795974432
 26         -9.7274401808   -2.1530429831    8.2261973748   -2.2795974596
Atom SCF converged after  26 iterations to a total energy of     -9.72744018

Atom SCF Calculation for H  : Z (AE atom) =   1 : Z (PS atom) =   1
Config String:
Orbitals (num,occ):  1     1.00
Orbitals   (num,l):  1        0
Real-space Grid (nr,dr,rmax): 1203    0.0066555740    8.0000000000
Spherical Bessel Basis (nsws,lmax,cutoff):   47    0  176.3951722778
Confining potential (l,width,scale):  0    3.0000000000  100.0000000000
  1         -0.3178661827   -0.2469879004    0.2820953124   -0.2487802071
  2         -0.3961824611   -0.2455070831    0.2902209900   -0.2567664324
  3         -0.4406462424   -0.2424227551    0.2948173255   -0.2622129794
  4         -0.4569739054   -0.2416771342    0.2960118236   -0.2639986016
  5         -0.4627745219   -0.2416114401    0.2961916694   -0.2644992007
  6         -0.4648634749   -0.2416666130    0.2961598921   -0.2646237065
  7         -0.4656347011   -0.2417155160    0.2961132802   -0.2646490719
  8         -0.4659271144   -0.2417438448    0.2960836537   -0.2646515522
  9         -0.4660407254   -0.2417580788    0.2960682004   -0.2646501482
 10         -0.4660857867   -0.2417647566    0.2960608087   -0.2646488305
 11         -0.4661039568   -0.2417677717    0.2960574330   -0.2646480606
 12         -0.4661113773   -0.2417691018    0.2960559329   -0.2646476727
 13         -0.4661144368   -0.2417696800    0.2960552775   -0.2646474903
 14         -0.4661157072   -0.2417699291    0.2960549942   -0.2646474079
 15         -0.4661162374   -0.2417700356    0.2960548727   -0.2646473715
 16         -0.4661164596   -0.2417700810    0.2960548208   -0.2646473556
 17         -0.4661165529   -0.2417701003    0.2960547987   -0.2646473488
Atom SCF converged after  17 iterations to a total energy of     -0.46611655

Atom SCF Calculation for C  : Z (AE atom) =   6 : Z (PS atom) =   4
Config String:
Orbitals (num,occ):  2     2.00 2.00
Orbitals   (num,l):  2        0    1
Real-space Grid (nr,dr,rmax): 1203    0.0066555740    8.0000000000
Spherical Bessel Basis (nsws,lmax,cutoff):   47    1  176.3951722778
Confining potential (l,width,scale):  0    3.0000000000  100.0000000000
Confining potential (l,width,scale):  1    3.0000000000  100.0000000000
  1         -5.2812238291   -1.3293161250    4.5135249990   -1.4716766231
  2         -5.3996591362   -1.3542148509    4.4876064308   -1.4645117417
  3         -5.4111847148   -1.3757224423    4.4645718036   -1.4593107263
  4         -5.4199203659   -1.3833334895    4.4563636676   -1.4579885221
  5         -5.4226876204   -1.3865104950    4.4529090432   -1.4575385943
  6         -5.4235070726   -1.3878131251    4.4514866831   -1.4573882877
  7         -5.4237271252   -1.3883401868    4.4509094528   -1.4573411661
  8         -5.4237693051   -1.3885521813    4.4506766230   -1.4573281030
  9         -5.4237656430   -1.3886371046    4.4505830704   -1.4573255254
 10         -5.4237547927   -1.3886709976    4.4505456041   -1.4573257244
 11         -5.4237478594   -1.3886817763    4.4505336403   -1.4573262476
 12         -5.4237429748   -1.3886873440    4.4505274417   -1.4573266921
 13         -5.4237397042   -1.3886902144    4.4505242350   -1.4573270222
 14         -5.4237375865   -1.3886916908    4.4505225792   -1.4573272507
 15         -5.4237362473   -1.3886924482    4.4505217259   -1.4573274021
 16         -5.4237354152   -1.3886928356    4.4505212873   -1.4573274996
 17         -5.4237349050   -1.3886930331    4.4505210623   -1.4573275610
 18         -5.4237345954   -1.3886931333    4.4505209473   -1.4573275991
 19         -5.4237344092   -1.3886931840    4.4505208887   -1.4573276224
 20         -5.4237342980   -1.3886932094    4.4505208590   -1.4573276366
 21         -5.4237342320   -1.3886932221    4.4505208440   -1.4573276451
Atom SCF converged after  21 iterations to a total energy of     -5.42373423

Atom SCF Calculation for S  : Z (AE atom) =  16 : Z (PS atom) =   6
Config String:
Orbitals (num,occ):  3     2.00 4.00 0.00
Orbitals   (num,l):  3        0    1    2
Real-space Grid (nr,dr,rmax): 1203    0.0066555740    8.0000000000
Spherical Bessel Basis (nsws,lmax,cutoff):   47    2  176.3951722778
Confining potential (l,width,scale):  0    3.0000000000  100.0000000000
Confining potential (l,width,scale):  1    3.0000000000  100.0000000000
Confining potential (l,width,scale):  2    3.0000000000  100.0000000000
  1        -12.4916237786   -1.0485914554   10.1554312477   -2.4822447765
  2         -9.9747083603   -2.4807597367    8.3138131863   -2.0618837268
  3        -10.1811370131   -2.3153496392    8.4906092179   -2.1137756843
  4        -10.1856385898   -2.2984912006    8.5093862195   -2.1218167101
  5        -10.1891317560   -2.2894783333    8.5195006030   -2.1261392389
  6        -10.1911142562   -2.2849160124    8.5246320974   -2.1283733378
  7        -10.1921506977   -2.2826473329    8.5271859473   -2.1295140514
  8        -10.1926851273   -2.2815219985    8.5284534218   -2.1300957983
  9        -10.1929632671   -2.2809620806    8.5290843811   -2.1303933136
 10        -10.1931100895   -2.2806822783    8.5293998452   -2.1305460626
 11        -10.1931885828   -2.2805418782    8.5295582201   -2.1306248009
 12        -10.1932309625   -2.2804711729    8.5296380158   -2.1306655459
 13        -10.1932540142   -2.2804354512    8.5296783476   -2.1306867097
 14        -10.1932666242   -2.2804173494    8.5296987927   -2.1306977435
 15        -10.1932735535   -2.2804081489    8.5297091868   -2.1307035175
 16        -10.1932773756   -2.2804034581    8.5297144867   -2.1307065505
 17        -10.1932794908   -2.2804010586    8.5297171976   -2.1307081499
 18        -10.1932806648   -2.2803998268    8.5297185890   -2.1307089965
 19        -10.1932813181   -2.2803991920    8.5297193057   -2.1307094466
 20        -10.1932816826   -2.2803988634    8.5297196763   -2.1307096867
 21        -10.1932818864   -2.2803986926    8.5297198688   -2.1307098154
 22        -10.1932820006   -2.2803986034    8.5297199692   -2.1307098847
 23        -10.1932820648   -2.2803985565    8.5297200219   -2.1307099221
Atom SCF converged after  23 iterations to a total energy of    -10.19328206

Atom SCF Calculation for O  : Z (AE atom) =   8 : Z (PS atom) =   6
Config String:
Orbitals (num,occ):  2     2.00 4.00
Orbitals   (num,l):  2        0    1
Real-space Grid (nr,dr,rmax): 1203    0.0066555740    8.0000000000
Spherical Bessel Basis (nsws,lmax,cutoff):   47    1  176.3951722778
Confining potential (l,width,scale):  0    3.0000000000  100.0000000000
Confining potential (l,width,scale):  1    3.0000000000  100.0000000000
  1         -1.9497477053   -7.5870966769   10.1554312477   -2.4822447765
  2        -15.9466298225   -3.1778351734   13.6353006614   -3.2931224232
  3        -16.0387051750   -3.0909030611   13.7305651010   -3.3194522996
  4        -15.9025031450   -3.1083023605   13.7128101414   -3.3180850501
  5        -15.8912953362   -3.1033022259   13.7185404266   -3.3206942093
  6        -15.8793912992   -3.1043100674   13.7175820250   -3.3209366960
  7        -15.8748748605   -3.1043975610   13.7175531476   -3.3211845618
  8        -15.8725354084   -3.1044655610   13.7175148333   -3.3213149154
  9        -15.8713193866   -3.1045129589   13.7174824743   -3.3213832909
 10        -15.8706863385   -3.1045436851   13.7174593895   -3.3214192053
 11        -15.8703562731   -3.1045627330   13.7174442347   -3.3214381098
 12        -15.8701839150   -3.1045741887   13.7174347673   -3.3214480859
 13        -15.8700937727   -3.1045809294   13.7174290448   -3.3214533647
 14        -15.8700465571   -3.1045848305   13.7174256662   -3.3214561658
 15        -15.8700217888   -3.1045870593   13.7174237063   -3.3214576563
 16        -15.8700087767   -3.1045883194   13.7174225849   -3.3214584516
 17        -15.8700019307   -3.1045890258   13.7174219502   -3.3214588771
 18        -15.8699983237   -3.1045894190   13.7174215942   -3.3214591053
 19        -15.8699964206   -3.1045896366   13.7174213960   -3.3214592281
 20        -15.8699954151   -3.1045897563   13.7174212864   -3.3214592942
 21        -15.8699948832   -3.1045898219   13.7174212260   -3.3214593299
 22        -15.8699946014   -3.1045898577   13.7174211930   -3.3214593493
 23        -15.8699944520   -3.1045898771   13.7174211750   -3.3214593597
 24        -15.8699943726   -3.1045898877   13.7174211652   -3.3214593654
Atom SCF converged after  24 iterations to a total energy of    -15.86999437

========================== Calculation in vacuum ==============================
= Adjusting the following parameters: 
= is_implicit_solvent: F
= is_include_apolar: F
= write_denskern: T
= write_tightbox_ngwfs: T
= restart read filename prefix: ""
= restart write filename prefix: "vacuum_"
===============================================================================

Determining parallel strategy ...
... using space-filling curve
... NGWF load balancing: max    110;  min    109;  average    109
... Projector load balancing: max     26;  min     21;  average     22
... done
Calculating direct Ion-Ion energy ...
Ion-Ion Energy        :    828268.66110145370476
Basis initialisation ...... NGWF spheres initialised
... Projector spheres initialised
... NGWF tight boxes initialised
... Tight-boxes gathered
... NGWF basis size (local,global):     982559  59032581
... Nonlocal pseudopotential projector initialisation
... done

========================== Sparse matrix information ===========================
                        Overlap matrix filling:   6.72%
                        Density kernel filling: 100.00%
              NGWF-Proj overlap matrix filling:   1.77%
                    Hamiltonian matrix filling:   7.58%
                  NGWF diagonal matrix filling:   0.05%
                             KS matrix filling: 100.00% 
                           KSKS matrix filling: 100.00% 
================================================================================

Sparse matrix initialisation ... done

Generating smeared ion density ... done
Smeared ion self correction:     -14543.939510
Smeared ion non-self correction: -828220.454388
NGWF initialisation ...... done
============ Calculation of NGWF S^-1 using Hotelling algorithm ================ 
         Iteration  |  Frobenius norm and Maximum abs value    (of I-S*S_n^-1)   
               1       0.78698749E+02     0.98250240E+00
               2       0.76832988E+02     0.96545148E+00
               3       0.73811063E+02     0.93261570E+00
               4       0.69515666E+02     0.87155540E+00
               5       0.64168504E+02     0.76716470E+00
               6       0.58167365E+02     0.70107345E+00
               7       0.52145215E+02     0.66810607E+00
               8       0.46577949E+02     0.64409559E+00
               9       0.40463987E+02     0.60362654E+00
              10       0.32130151E+02     0.53175834E+00
              11       0.21516174E+02     0.43093847E+00
              12       0.10945379E+02     0.29281843E+00
              13       0.35869720E+01     0.13826718E+00
              14       0.55786169E+00     0.31763878E-01
              15       0.25139571E-01     0.21993143E-02
              16       0.12118845E-03     0.15360280E-04
              17       0.50040526E-08     0.84623231E-09
              18       0.93323062E-13     0.55511151E-14
================================================================================
Calculating local pseudopotential in open BC on the fine real space grid ...
... done

MG BCs: +ve charge blocks (gridpoints):     21126 (   16468374).
MG BCs: -ve charge blocks (gridpoints):      8128 (    1103670).
MG BCs:     Elided blocks (gridpoints):    194106 (  193131501).
MG BCs: Computational effort saved:  99.9861%.
MG BCs: Charge after coarse-graining:           -9.0002472.
MG DL_MG: Calling solver with defect correction order = 8
MG DL_MG: Solver finished
MG Hartree energy from (\int phi*rho dr):              1460.705419
MG Hartree energy from (\int eps (grad phi)^2 dr):     1460.100202
MG Discrepancy due to finite box and discretization:     -0.605217 (  -0.04143%)
MG Correction to account for finite box:                  0.454348
MG Remaining discrepancy, due to discretization:         -0.150868 (  -0.01033%)
Up spin density kernel initialisation ... 
======= Optimisation of K by Palser-Manolopoulos canonical purification ======== 
         Iteration  |  Band structure energy |    c_n   
               1       -2582.23597780845694    0.5270221
               2       -2759.24105732889439    0.5173329
               3       -2940.47195666793232    0.5160930
               4       -3091.39638353777809    0.5305310
               5       -3183.72040174203084    0.5679009
               6       -3222.12156621518079    0.6140032
               7       -3235.19604737194186    0.6270198
               8       -3240.91962353005829    0.6273848
               9       -3243.72651164683521    0.6407873
              10       -3244.93358465308029    0.6598307
              11       -3245.43479552182544    0.6732550
              12       -3245.65961079881572    0.6652604
              13       -3245.77524668815613    0.6142101
              14       -3245.84660483546122    0.5328612
              15       -3245.88495528987005    0.4393994
              16       -3245.89204648035411    0.4146165
              17       -3245.89337084828185    0.4211594
              18       -3245.89416054629555    0.4562864
              19       -3245.89468908436083    0.4889981
              20       -3245.89496375379395    0.4993010
              21       -3245.89502272122354    0.4999973
              22       -3245.89502501812512    0.4999999
              23       -3245.89502502150526    0.4999999
Termination criterion satisfied: band energy change below threshold.
Final occupancy bounds: [    0.00000000000000:    1.00000000000000]
Closest occupancy to 0.5:     1.00000000000000
================================================================================
... done

Writing density kernel to file "complex_13401.vacuum_dkn" ... done

>>> Optimising kernel for current NGWFs:
   Initial electron number for spin 1:    7234.00000000
     Final electron number for spin 1:    7234.00000000

=================== Penalty functional idempotency correction ==================
 RMS occupancy error at iteration   1:  0.000000 (step -0.5000 Ne1=   7234.0000)
            Final RMS occupancy error   :  0.000000 (Ne1=   7234.0000)
               Final occupancy bounds   : [  0.0000,  1.0000]
================================================================================

................................................................................
<<<<<<<<<<<<<< LNV (Original version) density kernel optimisation >>>>>>>>>>>>>>
~~~~~~~~~~~~~~~~~~~~~~~~~~~~~~~~~~~~~~~~~~~~~~~~~~~~~~~~~~~~~~~~~~~~~~~~~~~~~~~~
   iter  |      energy (Eh)       | rms gradient |  commutator  |   dE (Eh)
MG BCs: +ve charge blocks (gridpoints):     32204 (   17641729).
MG BCs: -ve charge blocks (gridpoints):      8448 (    1132409).
MG BCs:     Elided blocks (gridpoints):    183022 (  191929407).
MG BCs: Computational effort saved:  99.9807%.
MG BCs: Charge after coarse-graining:           -9.0010561.
MG DL_MG: Calling solver with defect correction order = 8
MG DL_MG: Solver finished
MG Hartree energy from (\int phi*rho dr):              1423.106465
MG Hartree energy from (\int eps (grad phi)^2 dr):     1422.453107
MG Discrepancy due to finite box and discretization:     -0.653358 (  -0.04591%)
MG Correction to account for finite box:                  0.460554
MG Remaining discrepancy, due to discretization:         -0.192804 (  -0.01355%)
      ideal mu1:      -0.726560998831
             Q0:  -11595.894165416947
             G0:    -147.389554187295
   RMS gradient:       0.001855480661
MG BCs: +ve charge blocks (gridpoints):     32225 (   17725614).
MG BCs: -ve charge blocks (gridpoints):      8368 (    1114758).
MG BCs:     Elided blocks (gridpoints):    183001 (  191863173).
MG BCs: Computational effort saved:  99.9807%.
MG BCs: Charge after coarse-graining:           -9.0010774.
MG DL_MG: Calling solver with defect correction order = 8
MG DL_MG: Solver finished
MG Hartree energy from (\int phi*rho dr):              1443.057991
MG Hartree energy from (\int eps (grad phi)^2 dr):     1442.420945
MG Discrepancy due to finite box and discretization:     -0.637046 (  -0.04415%)
MG Correction to account for finite box:                  0.460436
MG Remaining discrepancy, due to discretization:         -0.176610 (  -0.01224%)
     Trial step:       0.500000000000
             Q1:  -11607.223291640519
 Quadratic coef:      62.365650870075
 Linear coef   :     -73.694777093648
           Qmin:  -11617.664643617345
Quadratic minimum step length (  0.295414126468) accepted
    Initial Ne1:    7234.00000000
      Final Ne1:    7234.00000000

=================== Penalty functional idempotency correction ==================
 RMS occupancy error at iteration   1:  0.003491 (step -0.4881 Ne1=   7234.0000)
 RMS occupancy error at iteration   2:  0.000026 (step -0.5000 Ne1=   7234.0000)
            Final RMS occupancy error   :  0.000000 (Ne1=   7234.0000)
               Final occupancy bounds   : [  0.0000,  1.0000]
================================================================================

    1        -1.159589416542E+04     1.8555E-03     1.6782E-03
MG BCs: +ve charge blocks (gridpoints):     32230 (   17692616).
MG BCs: -ve charge blocks (gridpoints):      8398 (    1122614).
MG BCs:     Elided blocks (gridpoints):    182996 (  191888315).
MG BCs: Computational effort saved:  99.9807%.
MG BCs: Charge after coarse-graining:           -9.0010687.
MG DL_MG: Calling solver with defect correction order = 8
MG DL_MG: Solver finished
MG Hartree energy from (\int phi*rho dr):              1426.688797
MG Hartree energy from (\int eps (grad phi)^2 dr):     1426.046069
MG Discrepancy due to finite box and discretization:     -0.642728 (  -0.04505%)
MG Correction to account for finite box:                  0.460373
MG Remaining discrepancy, due to discretization:         -0.182355 (  -0.01278%)
      ideal mu1:      -0.761498859046
             Q0:  -11618.105560421944
             G0:     -11.890646650714
   RMS gradient:       0.000523224691
MG BCs: +ve charge blocks (gridpoints):     32216 (   17709900).
MG BCs: -ve charge blocks (gridpoints):      8387 (    1117853).
MG BCs:     Elided blocks (gridpoints):    183010 (  191875792).
MG BCs: Computational effort saved:  99.9807%.
MG BCs: Charge after coarse-graining:           -9.0010726.
MG DL_MG: Calling solver with defect correction order = 8
MG DL_MG: Solver finished
MG Hartree energy from (\int phi*rho dr):              1431.205531
MG Hartree energy from (\int eps (grad phi)^2 dr):     1430.566426
MG Discrepancy due to finite box and discretization:     -0.639105 (  -0.04466%)
MG Correction to account for finite box:                  0.460015
MG Remaining discrepancy, due to discretization:         -0.179090 (  -0.01251%)
     Trial step:       0.384326766221
             Q1:  -11620.931246117805
 Quadratic coef:       1.744208079688
 Linear coef   :      -4.569893775550
           Qmin:  -11621.098885783036
Quadratic minimum step length (  0.503475622314) accepted
    Initial Ne1:    7233.99991388
      Final Ne1:    7234.00000000

=================== Penalty functional idempotency correction ==================
 RMS occupancy error at iteration   1:  0.001861 (step -0.4929 Ne1=   7234.0000)
 RMS occupancy error at iteration   2:  0.000010 (step -0.5001 Ne1=   7234.0000)
            Final RMS occupancy error   :  0.000000 (Ne1=   7234.0000)
               Final occupancy bounds   : [  0.0000,  1.0000]
================================================================================

    2        -1.161810556042E+04     5.2322E-04     4.7325E-04    -2.2211E+01
MG BCs: +ve charge blocks (gridpoints):     32221 (   17715267).
MG BCs: -ve charge blocks (gridpoints):      8378 (    1116332).
MG BCs:     Elided blocks (gridpoints):    183005 (  191871946).
MG BCs: Computational effort saved:  99.9807%.
MG BCs: Charge after coarse-graining:           -9.0010740.
MG DL_MG: Calling solver with defect correction order = 8
MG DL_MG: Solver finished
MG Hartree energy from (\int phi*rho dr):              1432.646413
MG Hartree energy from (\int eps (grad phi)^2 dr):     1432.008343
MG Discrepancy due to finite box and discretization:     -0.638070 (  -0.04454%)
MG Correction to account for finite box:                  0.459920
MG Remaining discrepancy, due to discretization:         -0.178149 (  -0.01243%)
      ideal mu1:      -0.780499735704
             Q0:  -11621.135678400984
             G0:      -1.882607961918
   RMS gradient:       0.000208454932
MG BCs: +ve charge blocks (gridpoints):     32223 (   17715071).
MG BCs: -ve charge blocks (gridpoints):      8381 (    1117020).
MG BCs:     Elided blocks (gridpoints):    183003 (  191871454).
MG BCs: Computational effort saved:  99.9807%.
MG BCs: Charge after coarse-graining:           -9.0010738.
MG DL_MG: Calling solver with defect correction order = 8
MG DL_MG: Solver finished
MG Hartree energy from (\int phi*rho dr):              1431.027082
MG Hartree energy from (\int eps (grad phi)^2 dr):     1430.389323
MG Discrepancy due to finite box and discretization:     -0.637759 (  -0.04457%)
MG Correction to account for finite box:                  0.459703
MG Remaining discrepancy, due to discretization:         -0.178057 (  -0.01244%)
     Trial step:       0.439885391659
             Q1:  -11621.612932142569
 Quadratic coef:       0.350877999084
 Linear coef   :      -0.828131740669
           Qmin:  -11621.624311331585
Quadratic minimum step length (  0.519102160922) accepted
    Initial Ne1:    7233.99996120
      Final Ne1:    7234.00000000

=================== Penalty functional idempotency correction ==================
 RMS occupancy error at iteration   1:  0.000614 (step -0.4975 Ne1=   7234.0000)
 RMS occupancy error at iteration   2:  0.000001 (step -0.5000 Ne1=   7234.0000)
            Final RMS occupancy error   :  0.000000 (Ne1=   7234.0000)
               Final occupancy bounds   : [  0.0000,  1.0000]
================================================================================

    3        -1.162113567840E+04     2.0845E-04     1.8854E-04    -3.0301E+00
MG BCs: +ve charge blocks (gridpoints):     32222 (   17715054).
MG BCs: -ve charge blocks (gridpoints):      8383 (    1117207).
MG BCs:     Elided blocks (gridpoints):    183004 (  191871284).
MG BCs: Computational effort saved:  99.9807%.
MG BCs: Charge after coarse-graining:           -9.0010737.
MG DL_MG: Calling solver with defect correction order = 8
MG DL_MG: Solver finished
MG Hartree energy from (\int phi*rho dr):              1430.742151
MG Hartree energy from (\int eps (grad phi)^2 dr):     1430.104438
MG Discrepancy due to finite box and discretization:     -0.637713 (  -0.04457%)
MG Correction to account for finite box:                  0.459664
MG Remaining discrepancy, due to discretization:         -0.178049 (  -0.01244%)
      ideal mu1:      -0.781606883739
             Q0:  -11621.629096315708
             G0:      -0.457828035746
   RMS gradient:       0.000102838926
MG BCs: +ve charge blocks (gridpoints):     32222 (   17716178).
MG BCs: -ve charge blocks (gridpoints):      8383 (    1117033).
MG BCs:     Elided blocks (gridpoints):    183004 (  191870334).
MG BCs: Computational effort saved:  99.9807%.
MG BCs: Charge after coarse-graining:           -9.0010738.
MG DL_MG: Calling solver with defect correction order = 8
MG DL_MG: Solver finished
MG Hartree energy from (\int phi*rho dr):              1431.766899
MG Hartree energy from (\int eps (grad phi)^2 dr):     1431.129137
MG Discrepancy due to finite box and discretization:     -0.637762 (  -0.04454%)
MG Correction to account for finite box:                  0.459634
MG Remaining discrepancy, due to discretization:         -0.178128 (  -0.01244%)
     Trial step:       0.477855058955
             Q1:  -11621.731737947441
 Quadratic coef:       0.116133811280
 Linear coef   :      -0.218775443012
           Qmin:  -11621.732129820632
Quadratic minimum step length (  0.450096966019) accepted
    Initial Ne1:    7233.99999165
      Final Ne1:    7234.00000000

=================== Penalty functional idempotency correction ==================
 RMS occupancy error at iteration   1:  0.000198 (step -0.4992 Ne1=   7234.0000)
 RMS occupancy error at iteration   2:  0.000000 (step -0.5000 Ne1=   7234.0000)
            Final RMS occupancy error   :  0.000000 (Ne1=   7234.0000)
               Final occupancy bounds   : [  0.0000,  1.0000]
================================================================================

    4        -1.162162909632E+04     1.0284E-04     9.3016E-05    -4.9342E-01
MG BCs: +ve charge blocks (gridpoints):     32222 (   17716122).
MG BCs: -ve charge blocks (gridpoints):      8383 (    1117050).
MG BCs:     Elided blocks (gridpoints):    183004 (  191870373).
MG BCs: Computational effort saved:  99.9807%.
MG BCs: Charge after coarse-graining:           -9.0010738.
MG DL_MG: Calling solver with defect correction order = 8
MG DL_MG: Solver finished
MG Hartree energy from (\int phi*rho dr):              1431.707225
MG Hartree energy from (\int eps (grad phi)^2 dr):     1431.069466
MG Discrepancy due to finite box and discretization:     -0.637759 (  -0.04455%)
MG Correction to account for finite box:                  0.459636
MG Remaining discrepancy, due to discretization:         -0.178123 (  -0.01244%)
      ideal mu1:      -0.781595777936
             Q0:  -11621.732618117705
             G0:      -0.107223457549
   RMS gradient:       0.000049934809
MG BCs: +ve charge blocks (gridpoints):     32222 (   17716280).
MG BCs: -ve charge blocks (gridpoints):      8386 (    1116890).
MG BCs:     Elided blocks (gridpoints):    183004 (  191870375).
MG BCs: Computational effort saved:  99.9807%.
MG BCs: Charge after coarse-graining:           -9.0010737.
MG DL_MG: Calling solver with defect correction order = 8
MG DL_MG: Solver finished
MG Hartree energy from (\int phi*rho dr):              1432.098333
MG Hartree energy from (\int eps (grad phi)^2 dr):     1431.460427
MG Discrepancy due to finite box and discretization:     -0.637907 (  -0.04454%)
MG Correction to account for finite box:                  0.459624
MG Remaining discrepancy, due to discretization:         -0.178283 (  -0.01245%)
     Trial step:       0.463768382096
             Q1:  -11621.759285863140
 Quadratic coef:       0.023059103996
 Linear coef   :      -0.049726849430
           Qmin:  -11621.759427046996
Quadratic minimum step length (  0.500057168543) accepted
    Initial Ne1:    7233.99999781
      Final Ne1:    7234.00000000

=================== Penalty functional idempotency correction ==================
 RMS occupancy error at iteration   1:  0.000069 (step -0.4997 Ne1=   7234.0000)
            Final RMS occupancy error   :  0.000000 (Ne1=   7234.0000)
               Final occupancy bounds   : [ -0.0000,  1.0000]
================================================================================

    5        -1.162173261812E+04     4.9935E-05     4.5165E-05    -1.0352E-01
MG BCs: +ve charge blocks (gridpoints):     32221 (   17716326).
MG BCs: -ve charge blocks (gridpoints):      8386 (    1116864).
MG BCs:     Elided blocks (gridpoints):    183005 (  191870355).
MG BCs: Computational effort saved:  99.9807%.
MG BCs: Charge after coarse-graining:           -9.0010737.
MG DL_MG: Calling solver with defect correction order = 8
MG DL_MG: Solver finished
MG Hartree energy from (\int phi*rho dr):              1432.128930
MG Hartree energy from (\int eps (grad phi)^2 dr):     1431.491012
MG Discrepancy due to finite box and discretization:     -0.637918 (  -0.04454%)
MG Correction to account for finite box:                  0.459623
MG Remaining discrepancy, due to discretization:         -0.178295 (  -0.01245%)
      ideal mu1:      -0.781664246482
             Q0:  -11621.759483369649
             G0:      -0.031734313333
   RMS gradient:       0.000027188849
MG BCs: +ve charge blocks (gridpoints):     32223 (   17715794).
MG BCs: -ve charge blocks (gridpoints):      8386 (    1117117).
MG BCs:     Elided blocks (gridpoints):    183003 (  191870634).
MG BCs: Computational effort saved:  99.9807%.
MG BCs: Charge after coarse-graining:           -9.0010736.
MG DL_MG: Calling solver with defect correction order = 8
MG DL_MG: Solver finished
MG Hartree energy from (\int phi*rho dr):              1431.474343
MG Hartree energy from (\int eps (grad phi)^2 dr):     1430.836416
MG Discrepancy due to finite box and discretization:     -0.637927 (  -0.04456%)
MG Correction to account for finite box:                  0.459637
MG Remaining discrepancy, due to discretization:         -0.178290 (  -0.01245%)
     Trial step:       0.481571078877
             Q1:  -11621.769485724624
 Quadratic coef:       0.005279972534
 Linear coef   :      -0.015282327509
           Qmin:  -11621.770541643749
Quadratic minimum step length (  0.696928525510) accepted
    Initial Ne1:    7234.00033574
      Final Ne1:    7234.00000000

=================== Penalty functional idempotency correction ==================
 RMS occupancy error at iteration   1:  0.000040 (step -0.4998 Ne1=   7234.0000)
            Final RMS occupancy error   :  0.000000 (Ne1=   7234.0000)
               Final occupancy bounds   : [ -0.0000,  1.0000]
================================================================================

    6        -1.162175948337E+04     2.7189E-05     2.4592E-05    -2.6865E-02
MG BCs: +ve charge blocks (gridpoints):     32222 (   17715611).
MG BCs: -ve charge blocks (gridpoints):      8386 (    1117206).
MG BCs:     Elided blocks (gridpoints):    183004 (  191870728).
MG BCs: Computational effort saved:  99.9807%.
MG BCs: Charge after coarse-graining:           -9.0010736.
MG DL_MG: Calling solver with defect correction order = 8
MG DL_MG: Solver finished
MG Hartree energy from (\int phi*rho dr):              1431.180867
MG Hartree energy from (\int eps (grad phi)^2 dr):     1430.542936
MG Discrepancy due to finite box and discretization:     -0.637931 (  -0.04457%)
MG Correction to account for finite box:                  0.459643
MG Remaining discrepancy, due to discretization:         -0.178287 (  -0.01246%)
      ideal mu1:      -0.781318570694
             Q0:  -11621.770552328788
             G0:      -0.016894479230
   RMS gradient:       0.000019865316
MG BCs: +ve charge blocks (gridpoints):     32223 (   17716158).
MG BCs: -ve charge blocks (gridpoints):      8385 (    1116929).
MG BCs:     Elided blocks (gridpoints):    183003 (  191870458).
MG BCs: Computational effort saved:  99.9807%.
MG BCs: Charge after coarse-graining:           -9.0010737.
MG DL_MG: Calling solver with defect correction order = 8
MG DL_MG: Solver finished
MG Hartree energy from (\int phi*rho dr):              1431.833675
MG Hartree energy from (\int eps (grad phi)^2 dr):     1431.195784
MG Discrepancy due to finite box and discretization:     -0.637891 (  -0.04455%)
MG Correction to account for finite box:                  0.459625
MG Remaining discrepancy, due to discretization:         -0.178266 (  -0.01245%)
     Trial step:       0.579327732747
             Q1:  -11621.775012273225
 Quadratic coef:       0.005327495912
 Linear coef   :      -0.009787440349
           Qmin:  -11621.775047592142
Quadratic minimum step length (  0.532157670353) accepted
    Initial Ne1:    7234.00013747
      Final Ne1:    7234.00000000

=================== Penalty functional idempotency correction ==================
 RMS occupancy error at iteration   1:  0.000002 (step -0.5000 Ne1=   7234.0000)
            Final RMS occupancy error   :  0.000000 (Ne1=   7234.0000)
               Final occupancy bounds   : [  0.0000,  1.0000]
================================================================================

    7        -1.162177055233E+04     1.9865E-05     1.7968E-05    -1.1069E-02
MG BCs: +ve charge blocks (gridpoints):     32223 (   17716101).
MG BCs: -ve charge blocks (gridpoints):      8385 (    1116950).
MG BCs:     Elided blocks (gridpoints):    183003 (  191870494).
MG BCs: Computational effort saved:  99.9807%.
MG BCs: Charge after coarse-graining:           -9.0010737.
MG DL_MG: Calling solver with defect correction order = 8
MG DL_MG: Solver finished
MG Hartree energy from (\int phi*rho dr):              1431.780446
MG Hartree energy from (\int eps (grad phi)^2 dr):     1431.142552
MG Discrepancy due to finite box and discretization:     -0.637894 (  -0.04455%)
MG Correction to account for finite box:                  0.459627
MG Remaining discrepancy, due to discretization:         -0.178267 (  -0.01245%)
      ideal mu1:      -0.781614592384
             Q0:  -11621.775047725299
             G0:      -0.010421825110
   RMS gradient:       0.000015603252
MG BCs: +ve charge blocks (gridpoints):     32223 (   17716182).
MG BCs: -ve charge blocks (gridpoints):      8384 (    1116920).
MG BCs:     Elided blocks (gridpoints):    183003 (  191870443).
MG BCs: Computational effort saved:  99.9807%.
MG BCs: Charge after coarse-graining:           -9.0010737.
MG DL_MG: Calling solver with defect correction order = 8
MG DL_MG: Solver finished
MG Hartree energy from (\int phi*rho dr):              1431.840211
MG Hartree energy from (\int eps (grad phi)^2 dr):     1431.202358
MG Discrepancy due to finite box and discretization:     -0.637853 (  -0.04455%)
MG Correction to account for finite box:                  0.459618
MG Remaining discrepancy, due to discretization:         -0.178235 (  -0.01245%)
     Trial step:       0.555242016268
             Q1:  -11621.779471065383
 Quadratic coef:       0.001363295103
 Linear coef   :      -0.005786635187
           Qmin:  -11621.781188205581
Quadratic minimum step length (  1.178388663407) accepted
    Initial Ne1:    7234.00018617
      Final Ne1:    7234.00000000

=================== Penalty functional idempotency correction ==================
 RMS occupancy error at iteration   1:  0.000034 (step -0.4991 Ne1=   7234.0000)
            Final RMS occupancy error   :  0.000000 (Ne1=   7234.0000)
               Final occupancy bounds   : [ -0.0000,  1.0000]
================================================================================

    8        -1.162177504773E+04     1.5603E-05     1.4113E-05    -4.4954E-03
MG BCs: +ve charge blocks (gridpoints):     32223 (   17716296).
MG BCs: -ve charge blocks (gridpoints):      8384 (    1116890).
MG BCs:     Elided blocks (gridpoints):    183003 (  191870359).
MG BCs: Computational effort saved:  99.9807%.
MG BCs: Charge after coarse-graining:           -9.0010738.
MG DL_MG: Calling solver with defect correction order = 8
MG DL_MG: Solver finished
MG Hartree energy from (\int phi*rho dr):              1431.904252
MG Hartree energy from (\int eps (grad phi)^2 dr):     1431.266446
MG Discrepancy due to finite box and discretization:     -0.637805 (  -0.04454%)
MG Correction to account for finite box:                  0.459607
MG Remaining discrepancy, due to discretization:         -0.178199 (  -0.01244%)
      ideal mu1:      -0.781646756856
             Q0:  -11621.781163890846
             G0:      -0.018382073271
   RMS gradient:       0.000020798157
MG BCs: +ve charge blocks (gridpoints):     32223 (   17716122).
MG BCs: -ve charge blocks (gridpoints):      8384 (    1117017).
MG BCs:     Elided blocks (gridpoints):    183003 (  191870406).
MG BCs: Computational effort saved:  99.9807%.
MG BCs: Charge after coarse-graining:           -9.0010738.
MG DL_MG: Calling solver with defect correction order = 8
MG DL_MG: Solver finished
MG Hartree energy from (\int phi*rho dr):              1431.507084
MG Hartree energy from (\int eps (grad phi)^2 dr):     1430.869374
MG Discrepancy due to finite box and discretization:     -0.637710 (  -0.04455%)
MG Correction to account for finite box:                  0.459568
MG Remaining discrepancy, due to discretization:         -0.178142 (  -0.01244%)
     Trial step:       0.808882499142
             Q1:  -11621.791068807943
 Quadratic coef:       0.004964020271
 Linear coef   :      -0.014868937367
           Qmin:  -11621.792298278217
Quadratic minimum step length (  1.211439776774) accepted
    Initial Ne1:    7234.00080872
      Final Ne1:    7234.00000000

=================== Penalty functional idempotency correction ==================
 RMS occupancy error at iteration   1:  0.000284 (step -0.4923 Ne1=   7234.0000)
 RMS occupancy error at iteration   2:  0.000002 (step -0.5000 Ne1=   7234.0000)
            Final RMS occupancy error   :  0.000000 (Ne1=   7234.0000)
               Final occupancy bounds   : [  0.0000,  1.0000]
================================================================================

    9        -1.162178116389E+04     2.0798E-05     1.8811E-05    -6.1162E-03
MG BCs: +ve charge blocks (gridpoints):     32225 (   17716016).
MG BCs: -ve charge blocks (gridpoints):      8384 (    1117122).
MG BCs:     Elided blocks (gridpoints):    183001 (  191870407).
MG BCs: Computational effort saved:  99.9807%.
MG BCs: Charge after coarse-graining:           -9.0010737.
MG DL_MG: Calling solver with defect correction order = 8
MG DL_MG: Solver finished
MG Hartree energy from (\int phi*rho dr):              1431.299396
MG Hartree energy from (\int eps (grad phi)^2 dr):     1430.661738
MG Discrepancy due to finite box and discretization:     -0.637657 (  -0.04455%)
MG Correction to account for finite box:                  0.459546
MG Remaining discrepancy, due to discretization:         -0.178111 (  -0.01244%)
      ideal mu1:      -0.780863564649
   10        -1.162179198421E+04     2.7696E-05     2.5051E-05    -1.0820E-02
Finished density kernel iterations (  10)

Writing density kernel to file "complex_13401.vacuum_dkn" ... done


>>> Density kernel optimised for the current NGWF basis:
     ~~~~~~~~~~~~~~~~~~~~~~~~~~~~~~~~~~~~~~~~~~~~~~~~~~~~~~~~~~~
     Total energy                =  -1.16217919842131E+04  Eh
     Estimated bandgap           =  -2.9255E-01  Eh
     RMS occupancy error         =   1.0650E-10
     [H,K] commutator            =   2.5051E-05
     Occupancy bounds            = [  0.000:  1.000]
     ~~~~~~~~~~~~~~~~~~~~~~~~~~~~~~~~~~~~~~~~~~~~~~~~~~~~~~~~~~~




################################################################################
########################### NGWF CG iteration  001 #############################
################################################################################
****** Reciprocal space K.E. preconditioning with k_zero =  3.5000 a0^-1 *******

>>> Checking for convergence of NGWFs:   NOT CONVERGED
  ========================================================================
         NGWF RMS gradient =  1.5753E-03 >  2.0000E-06  | above tolerance
  ========================================================================

>>> Improving NGWFs using line search:
============ Calculation of NGWF S^-1 using Hotelling algorithm ================ 
         Iteration  |  Frobenius norm and Maximum abs value    (of I-S*S_n^-1)   
               1       0.19641538E+00     0.52810051E-02
               2       0.88706671E-03     0.38606979E-04
               3       0.30083761E-07     0.20746471E-08
               4       0.12684803E-12     0.57731597E-14
================================================================================
MG BCs: +ve charge blocks (gridpoints):     31714 (   17658401).
MG BCs: -ve charge blocks (gridpoints):      8394 (    1116964).
MG BCs:     Elided blocks (gridpoints):    183513 (  191928180).
MG BCs: Computational effort saved:  99.9810%.
MG BCs: Charge after coarse-graining:           -9.0010733.
MG DL_MG: Calling solver with defect correction order = 8
MG DL_MG: Solver finished
MG Hartree energy from (\int phi*rho dr):              1399.445276
MG Hartree energy from (\int eps (grad phi)^2 dr):     1398.808378
MG Discrepancy due to finite box and discretization:     -0.636899 (  -0.04551%)
MG Correction to account for finite box:                  0.459502
MG Remaining discrepancy, due to discretization:         -0.177396 (  -0.01268%)
============ Calculation of NGWF S^-1 using Hotelling algorithm ================ 
         Iteration  |  Frobenius norm and Maximum abs value    (of I-S*S_n^-1)   
               1       0.18872256E+01     0.44107638E-01
               2       0.73723795E-01     0.24951814E-02
               3       0.14846239E-03     0.83404016E-05
               4       0.10274481E-08     0.94178665E-10
               5       0.11128513E-12     0.55511151E-14
================================================================================
------------------------------- NGWF line search -------------------------------
RMS gradient                =       0.00157533388539
Trial step length           =               0.122474
Gradient along search dir.  =       -275.77636978874
Functional at step 0        =  -11621.79198421305045
Functional at step 1        =  -11653.02860398555640
Functional predicted        =  -11734.12082435162665
Selected quadratic step     =               0.814637
--------------------------- NGWF line search finished --------------------------
                                               
Writing NGWFs to file "complex_13401.vacuum_tightbox_ngwfs"....  done

>>> Optimising kernel for current NGWFs:
   Initial electron number for spin 1:    7269.63481047
     Final electron number for spin 1:    7234.00000000

=================== Penalty functional idempotency correction ==================
 RMS occupancy error at iteration   1:  0.004256 (step -0.4864 Ne1=   7234.0000)
 RMS occupancy error at iteration   2:  0.000067 (step -0.5003 Ne1=   7234.0000)
            Final RMS occupancy error   :  0.000000 (Ne1=   7234.0000)
               Final occupancy bounds   : [  0.0000,  1.0000]
================================================================================

................................................................................
<<<<<<<<<<<<<< LNV (Original version) density kernel optimisation >>>>>>>>>>>>>>
~~~~~~~~~~~~~~~~~~~~~~~~~~~~~~~~~~~~~~~~~~~~~~~~~~~~~~~~~~~~~~~~~~~~~~~~~~~~~~~~
   iter  |      energy (Eh)       | rms gradient |  commutator  |   dE (Eh)
MG BCs: +ve charge blocks (gridpoints):     25604 (   17410087).
MG BCs: -ve charge blocks (gridpoints):      8558 (    1098604).
MG BCs:     Elided blocks (gridpoints):    189628 (  192194854).
MG BCs: Computational effort saved:  99.9838%.
MG BCs: Charge after coarse-graining:           -9.0007163.
MG DL_MG: Calling solver with defect correction order = 8
MG DL_MG: Solver finished
MG Hartree energy from (\int phi*rho dr):              1242.586380
MG Hartree energy from (\int eps (grad phi)^2 dr):     1241.949531
MG Discrepancy due to finite box and discretization:     -0.636848 (  -0.05125%)
MG Correction to account for finite box:                  0.459295
MG Remaining discrepancy, due to discretization:         -0.177553 (  -0.01429%)
      ideal mu1:      -0.718425844117
             Q0:  -11733.142624178203
             G0:      -9.908985012567
   RMS gradient:       0.000481102557
MG BCs: +ve charge blocks (gridpoints):     25689 (   17446119).
MG BCs: -ve charge blocks (gridpoints):      8514 (    1088803).
MG BCs:     Elided blocks (gridpoints):    189543 (  192168623).
MG BCs: Computational effort saved:  99.9838%.
MG BCs: Charge after coarse-graining:           -9.0007079.
MG DL_MG: Calling solver with defect correction order = 8
MG DL_MG: Solver finished
MG Hartree energy from (\int phi*rho dr):              1272.858946
MG Hartree energy from (\int eps (grad phi)^2 dr):     1272.214950
MG Discrepancy due to finite box and discretization:     -0.643995 (  -0.05059%)
MG Correction to account for finite box:                  0.458596
MG Remaining discrepancy, due to discretization:         -0.185399 (  -0.01457%)
     Trial step:       0.989905265263
             Q1:  -11728.484468381968
 Quadratic coef:      14.467112233591
 Linear coef   :      -9.808956437356
           Qmin:  -11734.805285406588
Quadratic minimum step length (  0.335586586573) accepted
    Initial Ne1:    7233.99961010
      Final Ne1:    7234.00000000

=================== Penalty functional idempotency correction ==================
 RMS occupancy error at iteration   1:  0.000367 (step -0.4985 Ne1=   7234.0000)
 RMS occupancy error at iteration   2:  0.000000 (step -0.5000 Ne1=   7234.0000)
            Final RMS occupancy error   :  0.000000 (Ne1=   7234.0000)
               Final occupancy bounds   : [  0.0000,  1.0000]
================================================================================

    1        -1.173314262418E+04     4.8110E-04     4.3515E-04
MG BCs: +ve charge blocks (gridpoints):     25634 (   17422628).
MG BCs: -ve charge blocks (gridpoints):      8536 (    1095258).
MG BCs:     Elided blocks (gridpoints):    189598 (  192185659).
MG BCs: Computational effort saved:  99.9838%.
MG BCs: Charge after coarse-graining:           -9.0007133.
MG DL_MG: Calling solver with defect correction order = 8
MG DL_MG: Solver finished
MG Hartree energy from (\int phi*rho dr):              1251.273938
MG Hartree energy from (\int eps (grad phi)^2 dr):     1250.634819
MG Discrepancy due to finite box and discretization:     -0.639119 (  -0.05108%)
MG Correction to account for finite box:                  0.459027
MG Remaining discrepancy, due to discretization:         -0.180092 (  -0.01439%)
      ideal mu1:      -0.727606829699
             Q0:  -11734.756062561530
             G0:      -1.011413779232
   RMS gradient:       0.000155453247
MG BCs: +ve charge blocks (gridpoints):     25642 (   17423879).
MG BCs: -ve charge blocks (gridpoints):      8535 (    1095672).
MG BCs:     Elided blocks (gridpoints):    189590 (  192183994).
MG BCs: Computational effort saved:  99.9838%.
MG BCs: Charge after coarse-graining:           -9.0007130.
MG DL_MG: Calling solver with defect correction order = 8
MG DL_MG: Solver finished
MG Hartree energy from (\int phi*rho dr):              1253.234096
MG Hartree energy from (\int eps (grad phi)^2 dr):     1252.594712
MG Discrepancy due to finite box and discretization:     -0.639384 (  -0.05102%)
MG Correction to account for finite box:                  0.458993
MG Remaining discrepancy, due to discretization:         -0.180390 (  -0.01439%)
     Trial step:       0.576367008945
             Q1:  -11734.940356545616
 Quadratic coef:       0.398651550655
 Linear coef   :      -0.582945534742
           Qmin:  -11734.969171914747
Quadratic minimum step length (  0.421408838979) accepted
    Initial Ne1:    7233.99994887
      Final Ne1:    7234.00000000

=================== Penalty functional idempotency correction ==================
 RMS occupancy error at iteration   1:  0.000145 (step -0.4994 Ne1=   7234.0000)
            Final RMS occupancy error   :  0.000000 (Ne1=   7234.0000)
               Final occupancy bounds   : [ -0.0000,  1.0000]
================================================================================

    2        -1.173475606256E+04     1.5545E-04     1.4060E-04    -1.6134E+00
MG BCs: +ve charge blocks (gridpoints):     25641 (   17423585).
MG BCs: -ve charge blocks (gridpoints):      8534 (    1095553).
MG BCs:     Elided blocks (gridpoints):    189591 (  192184407).
MG BCs: Computational effort saved:  99.9838%.
MG BCs: Charge after coarse-graining:           -9.0007130.
MG DL_MG: Calling solver with defect correction order = 8
MG DL_MG: Solver finished
MG Hartree energy from (\int phi*rho dr):              1252.705057
MG Hartree energy from (\int eps (grad phi)^2 dr):     1252.065748
MG Discrepancy due to finite box and discretization:     -0.639309 (  -0.05103%)
MG Correction to account for finite box:                  0.459002
MG Remaining discrepancy, due to discretization:         -0.180307 (  -0.01439%)
      ideal mu1:      -0.729110493773
             Q0:  -11734.969733060221
             G0:      -0.156874058878
   RMS gradient:       0.000060461033
MG BCs: +ve charge blocks (gridpoints):     25640 (   17422357).
MG BCs: -ve charge blocks (gridpoints):      8536 (    1096116).
MG BCs:     Elided blocks (gridpoints):    189592 (  192185072).
MG BCs: Computational effort saved:  99.9838%.
MG BCs: Charge after coarse-graining:           -9.0007132.
MG DL_MG: Calling solver with defect correction order = 8
MG DL_MG: Solver finished
MG Hartree energy from (\int phi*rho dr):              1252.020670
MG Hartree energy from (\int eps (grad phi)^2 dr):     1251.381421
MG Discrepancy due to finite box and discretization:     -0.639249 (  -0.05106%)
MG Correction to account for finite box:                  0.458977
MG Remaining discrepancy, due to discretization:         -0.180272 (  -0.01440%)
     Trial step:       0.492834812148
             Q1:  -11735.018982580630
 Quadratic coef:       0.028063476930
 Linear coef   :      -0.077312997338
           Qmin:  -11735.022981091215
Quadratic minimum step length (  0.678863431912) accepted
    Initial Ne1:    7234.00068027
      Final Ne1:    7234.00000000

=================== Penalty functional idempotency correction ==================
 RMS occupancy error at iteration   1:  0.000068 (step -0.4997 Ne1=   7234.0000)
            Final RMS occupancy error   :  0.000000 (Ne1=   7234.0000)
               Final occupancy bounds   : [ -0.0000,  1.0000]
================================================================================

    3        -1.173496973306E+04     6.0461E-05     5.4686E-05    -2.1367E-01
MG BCs: +ve charge blocks (gridpoints):     25639 (   17421899).
MG BCs: -ve charge blocks (gridpoints):      8537 (    1096372).
MG BCs:     Elided blocks (gridpoints):    189593 (  192185274).
MG BCs: Computational effort saved:  99.9838%.
MG BCs: Charge after coarse-graining:           -9.0007133.
MG DL_MG: Calling solver with defect correction order = 8
MG DL_MG: Solver finished
MG Hartree energy from (\int phi*rho dr):              1251.762156
MG Hartree energy from (\int eps (grad phi)^2 dr):     1251.122929
MG Discrepancy due to finite box and discretization:     -0.639227 (  -0.05107%)
MG Correction to account for finite box:                  0.458968
MG Remaining discrepancy, due to discretization:         -0.180259 (  -0.01440%)
      ideal mu1:      -0.727974685367
             Q0:  -11735.023083761218
             G0:      -0.037915708453
   RMS gradient:       0.000029714659
MG BCs: +ve charge blocks (gridpoints):     25637 (   17422010).
MG BCs: -ve charge blocks (gridpoints):      8535 (    1096346).
MG BCs:     Elided blocks (gridpoints):    189595 (  192185189).
MG BCs: Computational effort saved:  99.9838%.
MG BCs: Charge after coarse-graining:           -9.0007132.
MG DL_MG: Calling solver with defect correction order = 8
MG DL_MG: Solver finished
MG Hartree energy from (\int phi*rho dr):              1251.926811
MG Hartree energy from (\int eps (grad phi)^2 dr):     1251.287694
MG Discrepancy due to finite box and discretization:     -0.639118 (  -0.05105%)
MG Correction to account for finite box:                  0.458961
MG Remaining discrepancy, due to discretization:         -0.180157 (  -0.01439%)
     Trial step:       0.578418128987
             Q1:  -11735.032920313533
 Quadratic coef:       0.012094580827
 Linear coef   :      -0.021931133142
           Qmin:  -11735.033025705627
Quadratic minimum step length (  0.524423507542) accepted
    Initial Ne1:    7234.00026837
      Final Ne1:    7234.00000000

=================== Penalty functional idempotency correction ==================
 RMS occupancy error at iteration   1:  0.000020 (step -0.4999 Ne1=   7234.0000)
            Final RMS occupancy error   :  0.000000 (Ne1=   7234.0000)
               Final occupancy bounds   : [ -0.0000,  1.0000]
================================================================================

    4        -1.173502308376E+04     2.9715E-05     2.6876E-05    -5.3351E-02
MG BCs: +ve charge blocks (gridpoints):     25637 (   17421988).
MG BCs: -ve charge blocks (gridpoints):      8535 (    1096358).
MG BCs:     Elided blocks (gridpoints):    189595 (  192185199).
MG BCs: Computational effort saved:  99.9838%.
MG BCs: Charge after coarse-graining:           -9.0007132.
MG DL_MG: Calling solver with defect correction order = 8
MG DL_MG: Solver finished
MG Hartree energy from (\int phi*rho dr):              1251.911291
MG Hartree energy from (\int eps (grad phi)^2 dr):     1251.272163
MG Discrepancy due to finite box and discretization:     -0.639128 (  -0.05105%)
MG Correction to account for finite box:                  0.458962
MG Remaining discrepancy, due to discretization:         -0.180166 (  -0.01439%)
      ideal mu1:      -0.728147072604
             Q0:  -11735.033031626255
             G0:      -0.014164443207
   RMS gradient:       0.000018185130
MG BCs: +ve charge blocks (gridpoints):     25636 (   17422626).
MG BCs: -ve charge blocks (gridpoints):      8536 (    1096130).
MG BCs:     Elided blocks (gridpoints):    189596 (  192184789).
MG BCs: Computational effort saved:  99.9838%.
MG BCs: Charge after coarse-graining:           -9.0007131.
MG DL_MG: Calling solver with defect correction order = 8
MG DL_MG: Solver finished
MG Hartree energy from (\int phi*rho dr):              1252.352106
MG Hartree energy from (\int eps (grad phi)^2 dr):     1251.713019
MG Discrepancy due to finite box and discretization:     -0.639087 (  -0.05103%)
MG Correction to account for finite box:                  0.458956
MG Remaining discrepancy, due to discretization:         -0.180131 (  -0.01438%)
     Trial step:       0.550759533761
             Q1:  -11735.037177542225
 Quadratic coef:       0.003655286167
 Linear coef   :      -0.007801202137
           Qmin:  -11735.037194005889
Quadratic minimum step length (  0.587722308843) accepted
    Initial Ne1:    7234.00013286
      Final Ne1:    7234.00000000

=================== Penalty functional idempotency correction ==================
 RMS occupancy error at iteration   1:  0.000013 (step -0.4999 Ne1=   7234.0000)
            Final RMS occupancy error   :  0.000000 (Ne1=   7234.0000)
               Final occupancy bounds   : [ -0.0000,  1.0000]
================================================================================

    5        -1.173503303163E+04     1.8185E-05     1.6448E-05    -9.9479E-03
MG BCs: +ve charge blocks (gridpoints):     25636 (   17422671).
MG BCs: -ve charge blocks (gridpoints):      8536 (    1096115).
MG BCs:     Elided blocks (gridpoints):    189596 (  192184759).
MG BCs: Computational effort saved:  99.9838%.
MG BCs: Charge after coarse-graining:           -9.0007131.
MG DL_MG: Calling solver with defect correction order = 8
MG DL_MG: Solver finished
MG Hartree energy from (\int phi*rho dr):              1252.381716
MG Hartree energy from (\int eps (grad phi)^2 dr):     1251.742631
MG Discrepancy due to finite box and discretization:     -0.639084 (  -0.05103%)
MG Correction to account for finite box:                  0.458955
MG Remaining discrepancy, due to discretization:         -0.180129 (  -0.01438%)
      ideal mu1:      -0.728464447320
             Q0:  -11735.037195552140
             G0:      -0.005478895428
   RMS gradient:       0.000011311309
MG BCs: +ve charge blocks (gridpoints):     25636 (   17422540).
MG BCs: -ve charge blocks (gridpoints):      8535 (    1096182).
MG BCs:     Elided blocks (gridpoints):    189596 (  192184823).
MG BCs: Computational effort saved:  99.9838%.
MG BCs: Charge after coarse-graining:           -9.0007131.
MG DL_MG: Calling solver with defect correction order = 8
MG DL_MG: Solver finished
MG Hartree energy from (\int phi*rho dr):              1252.272953
MG Hartree energy from (\int eps (grad phi)^2 dr):     1251.633879
MG Discrepancy due to finite box and discretization:     -0.639074 (  -0.05103%)
MG Correction to account for finite box:                  0.458948
MG Remaining discrepancy, due to discretization:         -0.180126 (  -0.01438%)
     Trial step:       0.568940827151
             Q1:  -11735.039271527552
 Quadratic coef:       0.001041191885
 Linear coef   :      -0.003117167297
           Qmin:  -11735.039528631205
Quadratic minimum step length (  0.851660374145) accepted
    Initial Ne1:    7234.00012460
      Final Ne1:    7234.00000000

=================== Penalty functional idempotency correction ==================
 RMS occupancy error at iteration   1:  0.000017 (step -0.4995 Ne1=   7234.0000)
            Final RMS occupancy error   :  0.000000 (Ne1=   7234.0000)
               Final occupancy bounds   : [ -0.0000,  1.0000]
================================================================================

    6        -1.173503719555E+04     1.1311E-05     1.0231E-05    -4.1639E-03
MG BCs: +ve charge blocks (gridpoints):     25636 (   17422460).
MG BCs: -ve charge blocks (gridpoints):      8537 (    1096224).
MG BCs:     Elided blocks (gridpoints):    189596 (  192184861).
MG BCs: Computational effort saved:  99.9838%.
MG BCs: Charge after coarse-graining:           -9.0007131.
MG DL_MG: Calling solver with defect correction order = 8
MG DL_MG: Solver finished
MG Hartree energy from (\int phi*rho dr):              1252.218696
MG Hartree energy from (\int eps (grad phi)^2 dr):     1251.579627
MG Discrepancy due to finite box and discretization:     -0.639069 (  -0.05103%)
MG Correction to account for finite box:                  0.458945
MG Remaining discrepancy, due to discretization:         -0.180124 (  -0.01438%)
      ideal mu1:      -0.728333616601
             Q0:  -11735.039526976063
             G0:      -0.004465123091
   RMS gradient:       0.000010212682
MG BCs: +ve charge blocks (gridpoints):     25636 (   17422376).
MG BCs: -ve charge blocks (gridpoints):      8536 (    1096226).
MG BCs:     Elided blocks (gridpoints):    189596 (  192184943).
MG BCs: Computational effort saved:  99.9838%.
MG BCs: Charge after coarse-graining:           -9.0007131.
MG DL_MG: Calling solver with defect correction order = 8
MG DL_MG: Solver finished
MG Hartree energy from (\int phi*rho dr):              1252.175621
MG Hartree energy from (\int eps (grad phi)^2 dr):     1251.536529
MG Discrepancy due to finite box and discretization:     -0.639092 (  -0.05104%)
MG Correction to account for finite box:                  0.458955
MG Remaining discrepancy, due to discretization:         -0.180137 (  -0.01439%)
     Trial step:       0.696092204897
             Q1:  -11735.040475005866
 Quadratic coef:       0.002160107575
 Linear coef   :      -0.003108137378
           Qmin:  -11735.040645035884
Quadratic minimum step length (  0.500796864326) accepted
    Initial Ne1:    7234.00015122
      Final Ne1:    7234.00000000

=================== Penalty functional idempotency correction ==================
 RMS occupancy error at iteration   1:  0.000001 (step -0.5000 Ne1=   7234.0000)
            Final RMS occupancy error   :  0.000000 (Ne1=   7234.0000)
               Final occupancy bounds   : [  0.0000,  1.0000]
================================================================================

    7        -1.173503952698E+04     1.0213E-05     9.2372E-06    -2.3314E-03
MG BCs: +ve charge blocks (gridpoints):     25636 (   17422403).
MG BCs: -ve charge blocks (gridpoints):      8536 (    1096233).
MG BCs:     Elided blocks (gridpoints):    189596 (  192184909).
MG BCs: Computational effort saved:  99.9838%.
MG BCs: Charge after coarse-graining:           -9.0007131.
MG DL_MG: Calling solver with defect correction order = 8
MG DL_MG: Solver finished
MG Hartree energy from (\int phi*rho dr):              1252.187584
MG Hartree energy from (\int eps (grad phi)^2 dr):     1251.548498
MG Discrepancy due to finite box and discretization:     -0.639085 (  -0.05104%)
MG Correction to account for finite box:                  0.458952
MG Remaining discrepancy, due to discretization:         -0.180133 (  -0.01439%)
      ideal mu1:      -0.728250995642
             Q0:  -11735.040645042434
             G0:      -0.002967406510
   RMS gradient:       0.000008325418
MG BCs: +ve charge blocks (gridpoints):     25636 (   17422383).
MG BCs: -ve charge blocks (gridpoints):      8536 (    1096232).
MG BCs:     Elided blocks (gridpoints):    189596 (  192184930).
MG BCs: Computational effort saved:  99.9838%.
MG BCs: Charge after coarse-graining:           -9.0007131.
MG DL_MG: Calling solver with defect correction order = 8
MG DL_MG: Solver finished
MG Hartree energy from (\int phi*rho dr):              1252.145811
MG Hartree energy from (\int eps (grad phi)^2 dr):     1251.506716
MG Discrepancy due to finite box and discretization:     -0.639095 (  -0.05104%)
MG Correction to account for finite box:                  0.458952
MG Remaining discrepancy, due to discretization:         -0.180143 (  -0.01439%)
     Trial step:       0.590424248735
             Q1:  -11735.042018753593
 Quadratic coef:       0.000378317600
 Linear coef   :      -0.001752028759
           Qmin:  -11735.042673499989
Quadratic minimum step length (  1.367158525536) accepted
    Initial Ne1:    7234.00027395
      Final Ne1:    7234.00000000

=================== Penalty functional idempotency correction ==================
 RMS occupancy error at iteration   1:  0.000027 (step -0.4987 Ne1=   7234.0000)
            Final RMS occupancy error   :  0.000000 (Ne1=   7234.0000)
               Final occupancy bounds   : [ -0.0000,  1.0000]
================================================================================

    8        -1.173504064504E+04     8.3254E-06     7.5302E-06    -1.1181E-03
MG BCs: +ve charge blocks (gridpoints):     25636 (   17422336).
MG BCs: -ve charge blocks (gridpoints):      8535 (    1096226).
[...]

    7        -1.176881521478E+04     1.3743E-08     1.2430E-08    -4.4238E-09

Reusing previously generated solute cavity.
MG BCs: +ve charge blocks (gridpoints):     29789 (   19747683).
MG BCs: -ve charge blocks (gridpoints):      8527 (    1065169).
MG BCs:     Elided blocks (gridpoints):    185443 (  189890693).
MG BCs: Computational effort saved:  99.9818%.
MG BCs: Charge after coarse-graining:           -9.0010265.
MG DL_MG: Calling solver with defect correction order = 8
MG DL_MG: Solver finished
MG Hartree energy from (\int phi*rho dr):              1208.978787
MG Hartree energy from (\int eps (grad phi)^2 dr):     1208.793405
MG Discrepancy due to finite box and discretization:     -0.185382 (  -0.01533%)
MG Correction to account for finite box:                  0.006266
MG Remaining discrepancy, due to discretization:         -0.179115 (  -0.01482%)
      ideal mu1:      -0.485796792028
             Q0:  -11768.815214781323
             G0:      -0.000000002832
   RMS gradient:       0.000000008675

Reusing previously generated solute cavity.
MG BCs: +ve charge blocks (gridpoints):     29789 (   19747683).
MG BCs: -ve charge blocks (gridpoints):      8527 (    1065169).
MG BCs:     Elided blocks (gridpoints):    185443 (  189890693).
MG BCs: Computational effort saved:  99.9818%.
MG BCs: Charge after coarse-graining:           -9.0010265.
MG DL_MG: Calling solver with defect correction order = 8
MG DL_MG: Solver finished
MG Hartree energy from (\int phi*rho dr):              1208.978808
MG Hartree energy from (\int eps (grad phi)^2 dr):     1208.793426
MG Discrepancy due to finite box and discretization:     -0.185382 (  -0.01533%)
MG Correction to account for finite box:                  0.006266
MG Remaining discrepancy, due to discretization:         -0.179115 (  -0.01482%)
     Trial step:       0.676521508580
             Q1:  -11768.815214782488
 Quadratic coef:       0.000000000751
 Linear coef   :      -0.000000001916
           Qmin:  -11768.815214782546
Quadratic minimum step length (  0.862814831920) accepted
    Initial Ne1:    7234.00000000
      Final Ne1:    7234.00000000

=================== Penalty functional idempotency correction ==================
 RMS occupancy error at iteration   1:  0.000000 (step -0.5000 Ne1=   7234.0000)
            Final RMS occupancy error   :  0.000000 (Ne1=   7234.0000)
               Final occupancy bounds   : [  0.0000,  1.0000]
================================================================================

    8        -1.176881521478E+04     8.6747E-09     7.8461E-09    -2.3283E-09

Reusing previously generated solute cavity.
MG BCs: +ve charge blocks (gridpoints):     29789 (   19747683).
MG BCs: -ve charge blocks (gridpoints):      8527 (    1065169).
MG BCs:     Elided blocks (gridpoints):    185443 (  189890693).
MG BCs: Computational effort saved:  99.9818%.
MG BCs: Charge after coarse-graining:           -9.0010265.
MG DL_MG: Calling solver with defect correction order = 8
MG DL_MG: Solver finished
MG Hartree energy from (\int phi*rho dr):              1208.978814
MG Hartree energy from (\int eps (grad phi)^2 dr):     1208.793432
MG Discrepancy due to finite box and discretization:     -0.185382 (  -0.01533%)
MG Correction to account for finite box:                  0.006266
MG Remaining discrepancy, due to discretization:         -0.179115 (  -0.01482%)
      ideal mu1:      -0.485796786412
             Q0:  -11768.815214782371
             G0:      -0.000000001994
   RMS gradient:       0.000000006612

Reusing previously generated solute cavity.
MG BCs: +ve charge blocks (gridpoints):     29789 (   19747683).
MG BCs: -ve charge blocks (gridpoints):      8527 (    1065169).
MG BCs:     Elided blocks (gridpoints):    185443 (  189890693).
MG BCs: Computational effort saved:  99.9818%.
MG BCs: Charge after coarse-graining:           -9.0010265.
MG DL_MG: Calling solver with defect correction order = 8
MG DL_MG: Solver finished
MG Hartree energy from (\int phi*rho dr):              1208.978761
MG Hartree energy from (\int eps (grad phi)^2 dr):     1208.793380
MG Discrepancy due to finite box and discretization:     -0.185382 (  -0.01533%)
MG Correction to account for finite box:                  0.006266
MG Remaining discrepancy, due to discretization:         -0.179115 (  -0.01482%)
     Trial step:       0.764010989264
             Q1:  -11768.815214784001
 Quadratic coef:      -0.000000000106
 Linear coef   :      -0.000000001524
         Quadratic fit unsuccessful: proceeding to cubic fit

Reusing previously generated solute cavity.
MG BCs: +ve charge blocks (gridpoints):     29789 (   19747681).
MG BCs: -ve charge blocks (gridpoints):      8527 (    1065170).
MG BCs:     Elided blocks (gridpoints):    185443 (  189890694).
MG BCs: Computational effort saved:  99.9818%.
MG BCs: Charge after coarse-graining:           -9.0010265.
MG DL_MG: Calling solver with defect correction order = 8
MG DL_MG: Solver finished
MG Hartree energy from (\int phi*rho dr):              1208.978709
MG Hartree energy from (\int eps (grad phi)^2 dr):     1208.793327
MG Discrepancy due to finite box and discretization:     -0.185382 (  -0.01533%)
MG Correction to account for finite box:                  0.006266
MG Remaining discrepancy, due to discretization:         -0.179115 (  -0.01482%)
             Q2:  -11768.815214784467
  Cubic LS coeff:       1.322878258744
Predicted energy:  -11768.815214784579
Cubic minimum step length accepted
    Initial Ne1:    7234.00000000
      Final Ne1:    7234.00000000

=================== Penalty functional idempotency correction ==================
 RMS occupancy error at iteration   1:  0.000000 (step -0.5000 Ne1=   7234.0000)
            Final RMS occupancy error   :  0.000000 (Ne1=   7234.0000)
               Final occupancy bounds   : [  0.0000,  1.0000]
================================================================================

    9        -1.176881521478E+04     6.6121E-09     5.9805E-09    -1.0477E-09

Reusing previously generated solute cavity.
MG BCs: +ve charge blocks (gridpoints):     29789 (   19747683).
MG BCs: -ve charge blocks (gridpoints):      8527 (    1065170).
MG BCs:     Elided blocks (gridpoints):    185443 (  189890692).
MG BCs: Computational effort saved:  99.9818%.
MG BCs: Charge after coarse-graining:           -9.0010265.
MG DL_MG: Calling solver with defect correction order = 8
MG DL_MG: Solver finished
MG Hartree energy from (\int phi*rho dr):              1208.978723
MG Hartree energy from (\int eps (grad phi)^2 dr):     1208.793341
MG Discrepancy due to finite box and discretization:     -0.185382 (  -0.01533%)
MG Correction to account for finite box:                  0.006266
MG Remaining discrepancy, due to discretization:         -0.179115 (  -0.01482%)
      ideal mu1:      -0.485796759436
   10        -1.176881521478E+04     7.9612E-09     7.2008E-09    -2.0955E-09
Finished density kernel iterations (  10)

Writing density kernel to file "complex_13401.dkn" ... done


>>> Density kernel optimised for the current NGWF basis:
     ~~~~~~~~~~~~~~~~~~~~~~~~~~~~~~~~~~~~~~~~~~~~~~~~~~~~~~~~~~~
     Total energy                =  -1.17688152147845E+04  Eh
     Estimated bandgap           =   8.0035E-02  Eh
     RMS occupancy error         =   3.4509E-16
     [H,K] commutator            =   7.2008E-09
     Occupancy bounds            = [  0.000:  1.000]
     ~~~~~~~~~~~~~~~~~~~~~~~~~~~~~~~~~~~~~~~~~~~~~~~~~~~~~~~~~~~




################################################################################
########################### NGWF CG iteration  004 #############################
################################################################################
****** Reciprocal space K.E. preconditioning with k_zero =  3.5000 a0^-1 *******

>>> Checking for convergence of NGWFs: 
           ........................................................
           |         *** NGWF optimisation converged ***          |
           | RMS NGWF gradient =    0.00000188533722              |
           | Criteria satisfied:                                  |
           | -> RMS NGWF gradient lower than set threshold.       |
           ========================================================

Reusing previously generated solute cavity.
MG BCs: +ve charge blocks (gridpoints):     29789 (   19747683).
MG BCs: -ve charge blocks (gridpoints):      8527 (    1065170).
MG BCs:     Elided blocks (gridpoints):    185443 (  189890692).
MG BCs: Computational effort saved:  99.9818%.
MG BCs: Charge after coarse-graining:           -9.0010265.
MG DL_MG: Calling solver with defect correction order = 8
MG DL_MG: Solver finished
MG Hartree energy from (\int phi*rho dr):              1208.978723
MG Hartree energy from (\int eps (grad phi)^2 dr):     1208.793341
MG Discrepancy due to finite box and discretization:     -0.185382 (  -0.01533%)
MG Correction to account for finite box:                  0.006266
MG Remaining discrepancy, due to discretization:         -0.179115 (  -0.01482%)

================================================================================
           ---------------- ENERGY COMPONENTS (Eh) ----------------
           | Kinetic                    :     8613.41122971558980 |
           | Pseudo. (local,OBC,corr'd) :    -5105.88901674012504 |
           | Pseudopotential (non-local):     1412.28218450328086 |
           | Hartree (molecular)        :     1208.97872282276808 |
           | Exchange-correlation       :    -3402.50910187653017 |
           | Ion-ion (open BC)          :   828268.66110145370476 |
           | Smeared ion non-self corr. :  -828220.45438849914353 |
           | Smeared ion self corr.     :   -14543.93950988473262 |
           | Solvent cavitation energy  :        2.28965123424448 |
           | Solute-solvent dis-rep en. :       -1.64608751357921 |
           | Total                      :   -11768.81521478454852 |
           --------------------------------------------------------
           ------ LOCAL ENERGY COMPONENTS FROM MATRIX TRACES ------
           | Pseudopotential (local)    :    -5105.88901674012050 |
           | Hartree                    :    -2015.61560127781445 |
           --------------------------------------------------------
           Integrated density           :     7233.99999999875945
           Integrated density tr(KS)    :     7234.00000000000000
================================================================================


                        <<<<< CALCULATION SUMMARY >>>>>                         
|ITER|    RMS GRADIENT   |     TOTAL ENERGY    |   step   |     Epredicted              
   0     0.00004122072173 -11768.74544968898408   0.640475 -11768.80591625504348        
   1     0.00000904478093 -11768.81480866984930   0.073647 -11768.81514342719493        
   2     0.00000410144618 -11768.81519953382667   0.014334 -11768.81521293146216        
   3     0.00000188533722 -11768.81521478446666  <-- CG                                 

=================== Finished the calculation in solvent ========================
= Adjusting the following parameters: 
= read_denskern: F
= read_tightbox_ngwfs: F
= maxit_pen: 0 (restored to user-specified value)
= restart read filename prefix: ""
= restart write filename prefix: ""
================================================================================

================================================================================
IS: Calculation in solvent completed (NGWFs converged).      

Individual components of total energy in solvent:     hartree           kcal/mol
- Usual non-electrostatic DFT terms:    -12978.43750132790046    -8144092.313932
- Electrostatic fixed charge energy:      1208.97872282276808      758645.586053
- Apolar cavitation energy:                  2.28965123424448        1436.777811
- Apolar dispersion-repulsion energy:       -1.64608751357921       -1032.935487
 -------------------------------------------------------------------------------
- Total energy in solvent:              -11768.81521478446666    -7385042.885556

Components of total energy in solvent:                hartree           kcal/mol
- Usual non-electrostatic DFT terms:    -12978.43750132790046    -8144092.313932
- Electrostatic energy:                   1208.97872282276808      758645.586053
- Apolar energy terms:                       0.64356372066527         403.842323
 -------------------------------------------------------------------------------
- Total energy in solvent:              -11768.81521478446666    -7385042.885556

Calculation of free energy of solvation:              hartree           kcal/mol
- Total energy in solvent:         (+)  -11768.81521478446666    -7385042.885556
- Total energy in vacuum:          (-)  -11764.80951577669475    -7382529.271533
 -------------------------------------------------------------------------------
- Total free energy of solvation:           -4.00569900777191       -2513.614023

Components of polar term in f.e. of solvation:        hartree           kcal/mol
- Electrostatic:                            -4.50933154259246       -2829.648203
- Change in nonelectrostatic DFT terms:     -0.13993118584585         -87.808143
 -------------------------------------------------------------------------------
- Polar term in f.e. of solvation:          -4.64926272843832       -2917.456346

Components of free energy of solvation:               hartree           kcal/mol
- Polar term in f.e. of solvation: (+)      -4.64926272843832       -2917.456346
- Apolar (cavitation, dis., rep.): (+)       0.64356372066527         403.842323
 -------------------------------------------------------------------------------
- Total free energy of solvation:           -4.00569900777305       -2513.614023
================================================================================


------------------------------ TIMING INFORMATION ------------------------------
AVERAGE TIME:   35450.541s on     60 node(s)                                    
TOTAL TIME:     35450.542s on     60 node(s)                                    
================= AVERAGE TIMINGS FROM ALL NODES (CUMULATIVE) ==================
|| TAG                                    #calls    cpu time   %total  Gflops ||
|| work_imbalance                       :     1        0.00s   0.000%  ------ ||
|| sparse_set_to_garbage                :   164        0.03s   0.000%  ------ ||
|| parallel_prepare_fd_halos_request    :  1827        0.03s   0.000%  ------ ||
|| parallel_prepare_fd_halos_alloc      :  1827        0.11s   0.000%  ------ ||
|| ngwfs_initialise_from_radial         :     1        0.11s   0.000%  ------ ||
|| basis_extract_function_from_box      :  3380        0.15s   0.000%  ------ ||
|| parallel_prepare_fd_halos_satisfy    :  1827        0.61s   0.002%  ------ ||
|| pseudopotentials_nonlocal_mat        :    28        1.00s   0.003%  ------ ||
|| openbc_locps_radial                  :     1        3.10s   0.009%  ------ ||
|| density_init_guess_real              :     1        3.83s   0.011%  ------ ||
|| restart_kernel_read                  :     1        4.54s   0.013%  ------ ||
|| restart_ngwfs_tightbox_input         :     1        6.76s   0.019%  ------ ||
|| parallel_prepare_fd_halos_comms_imbal:  1827       10.17s   0.029%  ------ ||
|| parallel_prepare_fd_halos_clear      :  1827       19.44s   0.055%  ------ ||
|| sparse_init                          :     2       22.39s   0.063%  ------ ||
|| parallel_prepare_fd_halos_comms_wait :  1827       22.99s   0.065%  ------ ||
|| projectors_init_fftbox_recip         :   133       27.62s   0.078%  ------ ||
|| function_ops_brappd_ketppd           :    28       27.69s   0.078%  ------ ||
|| projectors_func_ovlp_box             :    28       27.83s   0.079%  ------ ||
|| palser_mano_kernel_optimise          :     1       32.97s   0.093%  ------ ||
|| basis_copy_function_to_box           : 54852       41.91s   0.118%  ------ ||
|| ngwf_gradient_coeffs                 :    15       46.07s   0.130%  ------ ||
|| fourier_apply_box_pair               :  4811       53.34s   0.150% 592.389 ||
|| parallel_prepare_fd_halos            :  1827       53.38s   0.151%  ------ ||
|| pseudo_make_structure_factor         :     2       55.88s   0.158%  ------ ||
|| sparse_embed_hotelling_invert_embed  :    28       69.81s   0.197%  ------ ||
|| restart_kernel_write                 :    16       89.04s   0.251%  ------ ||
|| finite_difference_derivative         :  1827      129.72s   0.366%  ------ ||
|| integrals_kinetic                    :    28      146.59s   0.414%  ------ ||
|| basis_dot_function_with_box          : 8.372M     158.06s   0.446%  ------ ||
|| sparse_trace                         :  5029      169.21s   0.477%  ------ ||
|| projectors_gradient_batch            :   105      172.16s   0.486%  ------ ||
|| kernel_purify                        :   464      271.35s   0.765%  ------ ||
|| openbc_locps_on_grid                 :     2      284.85s   0.804%  ------ ||
|| basis_add_function_to_box            : 17.41M     371.94s   1.049%  ------ ||
|| lnv_gradient_norm                    :   150      395.54s   1.116%  ------ ||
|| kernel_fix                           :   150      489.72s   1.381%  ------ ||
|| hamiltonian_energy_components        :     4      581.46s   1.640%  ------ ||
|| integrals_locpot_mat_els_batch       :  1113      680.65s   1.920%  ------ ||
|| ngwf_gradient_build_batch            :   105      791.18s   2.232%  ------ ||
|| restart_ngwfs_tightbox_output        :    13      895.72s   2.527%  ------ ||
|| ngwf_gradient_batch                  :   105     1082.38s   3.053%  ------ ||
|| ngwf_gradient_lnv                    :    15     1207.08s   3.405%  ------ ||
|| density_batch_row_sums               :  2121     1235.00s   3.484%  ------ ||
|| cell_grid_deposit_box_real           : 35200     1272.14s   3.589%  ------ ||
|| fourier_apply_cell_forward           :  8513     1450.54s   4.092%  87.629 ||
|| fourier_apply_cell_backward          :  9123     1638.89s   4.623%  83.116 ||
|| sparse_product                       :  6257     1722.31s   4.858%  ------ ||
|| density_fftbox_deposit_to_cell       : 33330     2010.20s   5.670%  ------ ||
|| cell_grid_extract_box_real           : 38596     2057.58s   5.804%  ------ ||
|| potential_apply_to_ngwf_batch        :  1113     3843.59s  10.842%  ------ ||
|| density_fftbox_interpolate_multiply  : 33330     3872.63s  10.924%  ------ ||
|| xc_energy_potential                  :   304     4043.61s  11.406%  ------ ||
|| integrals_locpot_dbl_grid            :   159     4539.58s  12.805%  ------ ||
|| fourier_apply_box                    : 114.7k    4662.46s  13.152% 782.778 ||
|| multigrid_prepare_bound_cond         :   304     4963.48s  14.001%  ------ ||
|| nlxc_vdw_energy                      :   608     6600.56s  18.619%  ------ ||
|| density_batch_interp_deposit         :  2121     6803.41s  19.191%  ------ ||
|| dl_mg_solver_calls                   :   304     7877.47s  22.221%  ------ ||
|| density_on_dbl_grid                  :   303     8294.40s  23.397%  ------ ||
|| multigrid_calculate_hartree          :   304    13020.53s  36.729%  ------ ||
|| hamiltonian_lhxc_calculate           :   299    25209.69s  71.112%  ------ ||
|| lnv_denskernel_optimise_cg           :    15    30301.87s  85.476%  ------ ||
|| ngwf_cg_optimise                     :     2    34461.91s  97.211%  ------ ||
|| total_time                           :     1    35450.54s 100.000%  ------ ||
================================================================================
Overhead of generating timer report: 
- 0 ms averaging over threads,
- 15 ms ensuring consistency across MPI ranks,
- 0 ms printing in order.

Job completed: 18-01-2020 09:41 (-0000)

Application 38625543 resources: utime ~7005664s, stime ~344878s, Rss ~4273116, inblocks ~305033626, outblocks ~64632684
