 +---------------------------------------------------------------+
 |                                                               |
 |        ####### #     # ####### ####### ####### ######         |
 |        #     # ##    # #          #    #       #     #        |
 |        #     # # #   # #          #    #       #     #        |
 |        #     # #  #  # #####      #    #####   ######         |
 |        #     # #   # # #          #    #       #              |
 |        #     # #    ## #          #    #       #              |
 |        ####### #     # #######    #    ####### #              |
 |                                                               |
 |        Linear-Scaling Ab Initio Total Energy Program          |
 |                                                               |
 |          Release for academic collaborators of ODG            |
 |                                             Version 5.3.2.6.  |
 |                                                               |
 +---------------------------------------------------------------+
 |                                                               |
 |  Authors:                                                     |
 |  Jacek Dziedzic, Peter D. Haynes, Nicholas D. M. Hine,        |
 |  Arash. A. Mostofi, Mike C. Payne and Chris-Kriton Skylaris   |
 |                                                               |
 |  Contributors:                                                |
 |  J. Aarons, L. Andrinopoulos, P. W. Avraam, R. A. Bell,       |
 |  A. Bhandari, G. A. Bramley, R. J. Charlton, S. J. Clark,     |
 |  R. J. Clements, G. C. Constantinescu, F. Corsetti,           |
 |  N. Corsini, O. Dieguez, S. M. M. Dubois, K. K. B. Duff,      |
 |  J. M. Escartin, A. Greco, H. Helal, Q. O. Hill, L. P. Lee,   |
 |  J.-H. Li, E. B. Linscott, G. Moynihan, D. D. O`Regan,        |
 |  O. K. Okan, M. J. S. Phipps, C. J. Pickard,                  |
 |  J. C. A. Prentice, M. I. J. Probert, L. E. Ratcliff,         |
 |  M. Robinson, A. Ruiz Serrano, J. S. Spencer, E. W. Tait,     |
 |  G. Teobaldi, D. Turban, V. Vitale, K. A. Wilkinson,          |
 |  C. Weber, J. C. Womack, N. Yeung and T. J. Zuehlsdorff       |
 |                                                               |
 |                                   Copyright (c) 2004-2019     |
 |                                                               |
 |  Please cite:                                                 |
 |  "Introducing ONETEP: Linear-scaling density functional       |
 |   simulations on parallel computers".                         |
 |   C.-K. Skylaris, P. D. Haynes, A. A. Mostofi, M. C. Payne.   |
 |   J. Chem. Phys. 122 084119 (2005).                           |
 |                                                               |
 |          in all publications arising from your use of ONETEP. |
 |                                                               |
 +---------------------------------------------------------------+
 |                                                               |
 |   ONETEP is based on developments described in the following  |
 |   publications:                                               |
 |                                                               |
 |  "Nonorthogonal generalized Wannier function pseudopotential  |
 |   plane-wave method".                                         |
 |   C.-K. Skylaris, A. A. Mostofi, P. D. Haynes, O. Dieguez,    |
 |   M. C. Payne.                                                |
 |   Phys. Rev. B 66 035119 (2002).                              |
 |                                                               |
 |  "Preconditioned iterative minimization for linear-scaling    |
 |   electronic structure calculations".                         |
 |   A. A. Mostofi, P. D. Haynes, C.-K. Skylaris, M. C. Payne.   |
 |   J. Chem. Phys. 119(17), pp.8842-8848 (2003).                |
 |                                                               |
 |  "Total-energy calculations on a real space grid with         |
 |   localized functions and a plane-wave basis".                |
 |   A. A. Mostofi, C.-K. Skylaris, P. D. Haynes, M. C. Payne.   |
 |   Comput. Phys. Commun. 147, pp.788-802 (2002).               |
 |                                                               |
 |  "Accurate kinetic energy evaluation in electronic structure  |
 |   calculations with localized functions on real space grids"  |
 |   C.-K. Skylaris, A. A. Mostofi, P. D. Haynes, C. J. Pickard, |
 |   M. C. Payne.                                                |
 |   Comput. Phys. Commun. 140, pp.315-322 (2001).               |
 |                                                               |
 |  "Accurate ionic forces and geometry optimization in linear-  |
 |   scaling density-functional theory with local orbitals"      |
 |   N. D. M. Hine, M. Robinson, P. D. Haynes, C.-K. Skylaris,   |
 |   M. C. Payne, and A. A. Mostofi.                             |
 |   Phys. Rev. B 83 195102 (2011).                              |
 |                                                               |
 +---------------------------------------------------------------+

Job started: 08-02-2020 16:14 (-0000)
 
Reading parameters from file "complex_18721.dat" ...... done

If your calculation crashes here, before "Checking processes and threads..."
is displayed, then your stack size is insufficient.
If so, use "ulimit -s unlimited" at runtime.
You can disable this check with "check_stack_size F".

Checking processes and threads...
   Determining the default number of threads...
      No default threads set at compilation time: defaulting to 1.
      OpenMP library call suggests 4 threads.
      Hybrid MPI-OpenMP compilation detected.
      Number of MPI processes > 1.
      OMP_NUM_THREADS environment variable present and
      its value matches the one obtained from the OpenMP library call.
      Using this value as default.
      Default threads: 4
      Default applies to threads_max and threads_num_fftboxes.
      Settings in the input file override this default.
   ... done

   Running with 60 MPI processes.
   There are 6 MPI processes running on the same node as the root process.
   Each MPI process is using: 
               1 threads for simulation cell FFTs.
               1 threads for parallel FFT box operations.
               4 threads for loops over batched FFT box operations.
               4 threads in other parallel regions.
... done

Basic input checks...... done

Reading geometry and species blocks from file "complex_18721.dat" ...
  <species_atomic_set> block not found: NGWF initialisation set to SOLVE
IS: Dielectric excluded regions:
    - NONE.
    
  Number of PPD points along a3 set to 1.  This is 
  the default value, it may have been provided also in the input file.
... done
 Writing xyz coordinates to file "complex_18721.xyz" ... done


--------------------------------------------------------------------------------
---------------------------------- INPUT FILE ----------------------------------
--------------------------------------------------------------------------------

cutoff_energy       : 800 eV                                                    
xc_functional VV10                                                              
task SINGLEPOINT                                                                
write_xyz true                                                                  
output_detail VERBOSE                                                           
ngwf_threshold_orig : 0.000002                                                  
kernel_cutoff       : 1000                                                      
k_zero              : 3.5                                                       
elec_cg_max 0                                                                   
occ_mix 1.0                                                                     
dispersion 0                                                                    
maxit_ngwf_cg 40                                                                
minit_lnv 10                                                                    
maxit_lnv 10                                                                    
write_denskern T                                                                
write_tightbox_ngwfs T                                                          
charge 9                                                                        
is_implicit_solvent T                                                           
is_auto_solvation T                                                             
is_include_apolar T                                                             
is_smeared_ion_rep T                                                            
is_solvent_surf_tension 4.7624E-5 Ha/bohr**2                                    
is_apolar_scaling_factor 0.281075                                               
is_solvation_beta 1.3                                                           
is_density_threshold 0.00035                                                    
is_bulk_permittivity 78.54                                                      
is_dielectric_model fix_initial                                                 
is_smeared_ion_width 0.8                                                        
mg_defco_fd_order 8                                                             
is_bc_coarseness 10                                                             
is_bc_surface_coarseness 1                                                      
fine_grid_scale 2.0                                                             
%block species                                                                  
N   N   7 4 8.0                                                                 
H   H   1 1 8.0                                                                 
C   C   6 4 8.0                                                                 
S   S  16 9 8.0                                                                 
O   O   8 4 8.0                                                                 
%endblock species                                                               
%block species_pot                                                              
N   N_00.recpot                                                                 
H   H_04.recpot                                                                 
C   C_01.recpot                                                                 
S   S_00.recpot                                                                 
O   O_02.recpot                                                                 
%endblock species_pot                                                           
%block lattice_cart                                                             
142.669   0.000   0.000                                                         
0.000 146.65   0.000                                                            
0.000   0.000   162.396                                                         
%endblock lattice_cart                                                          
%block positions_abs                                                            
     Hash =   000001762290269624693070
%endblock positions_abs                                                         

--------------------------------------------------------------------------------
-------------------------------- END INPUT FILE --------------------------------
--------------------------------------------------------------------------------


 
 ESDF WARNING(1): "kernelcutoff" (esdf_physical) has no units. Assume "bohr".
 ESDF WARNING(2): "kzero" (esdf_physical) has no units. Assume "1/bohr".
 ESDF WARNING(3
 ): "issmearedionwidth" (esdf_physical) has no units. Assume "bohr".
<<<<<<<<<<<<<<<<<<<<<<<<<<<<<<<<< Full system >>>>>>>>>>>>>>>>>>>>>>>>>>>>>>>>>>
<<<<<<<<<<<<<<<<<<<<<<<<< Pseudopotential information >>>>>>>>>>>>>>>>>>>>>>>>>>
File: N_00.recpot [ 2001 points up to Gmax=  52.9 (1/bohr)]
  Atomic number:  7;  ionic charge:  5.000000
    Shell 1: l = 0; rc = 1.48 bohr
File: H_04.recpot [ 2001 points up to Gmax=  52.9 (1/bohr)]
  Atomic number:  1;  ionic charge:  1.000000
    Local potential
File: C_01.recpot [ 2001 points up to Gmax=  52.9 (1/bohr)]
  Atomic number:  6;  ionic charge:  4.000000
    Shell 1: l = 0; rc = 1.48 bohr
File: S_00.recpot [ 2001 points up to Gmax=  52.9 (1/bohr)]
  Atomic number: 16;  ionic charge:  6.000000
    Shell 1: l = 0; rc = 1.90 bohr
    Shell 2: l = 2; rc = 1.84 bohr
File: O_02.recpot [ 2001 points up to Gmax=  52.9 (1/bohr)]
  Atomic number:  8;  ionic charge:  6.000000
    Shell 1: l = 0; rc = 1.31 bohr
<<<<<<<<<<<<<<<<<<<<<<<<<<<<<<<<<<<<<<<<>>>>>>>>>>>>>>>>>>>>>>>>>>>>>>>>>>>>>>>>

-------------------------- Atom counting information ---------------------------
Symbol    Natoms    Nngwfs    Nprojs
  N        236       944       236
  H       1317      1317         0
  C        816      3264       816
  S          6        54        36
  O        241       964       241
.......   ......    ......    ......
Totals:   2616      6543      1329
--------------------------------------------------------------------------------

=============================== PSINC grid sizes ===============================
                      Simulation cell:  286 x 294 x 320
                              FFT-box:  105 x 105 x  99
                                  PPD:   11 x   6 x   1
Grid space d1=  0.498842657343a0 (KE cutoff=  30.52649Eh = 830.66799eV)
Grid space d2=  0.498809523810a0 (KE cutoff=  30.53054Eh = 830.77835eV)
Grid space d3=  0.507487500000a0 (KE cutoff=  29.49533Eh = 802.60885eV)
================================================================================

********************* Fourier parallelisation information **********************
       Coarse grid (whole simulation cell) dimensions:    286   294   320
          Real-space ('12') slabs/node (min max mean):      5     6     5
         Recip-space ('23') slabs/node (min max mean):      2     3     2
********************************************************************************

********************* Fourier parallelisation information **********************
       Double grid (whole simulation cell) dimensions:    572   588   640
          Real-space ('12') slabs/node (min max mean):     10    11    10
         Recip-space ('23') slabs/node (min max mean):      4     5     4
********************************************************************************
ONETEP fine grid is 572 x 588 x 640 gridpoints, 142.6690 x 146.6500 x 162.3960 bohr.
FD multigrid is     569 x 585 x 633 gridpoints, 141.9207 x 145.9018 x 160.6198 bohr.


Calculating local pseudopotential in open BC on a radial grid ...
Discrepancy between calculated realspace psloc and -Z/x on [5a0,261.215a0]:
max |rel. diff| # avg |rel. diff| #  avg rel. diff #  f # pseudopotential file
 0.000261901569    0.000004963664   0.000000071970   55  'N_00.recpot'
 0.000422260137    0.000017549664  -0.000000063361   55  'H_04.recpot'
 0.000361991046    0.000016543264   0.000000134927   55  'C_01.recpot'
 0.000447743184    0.000019132268   0.000000438157   55  'S_00.recpot'
 0.000711628927    0.000028437426   0.000000135877   55  'O_02.recpot'
... done

Atom SCF Calculation for N  : Z (AE atom) =   7 : Z (PS atom) =   5
Config String:
Orbitals (num,occ):  2     2.00 3.00
Orbitals   (num,l):  2        0    1
Real-space Grid (nr,dr,rmax): 1203    0.0066555740    8.0000000000
Spherical Bessel Basis (nsws,lmax,cutoff):   47    1  176.3951722778
Confining potential (l,width,scale):  0    3.0000000000  100.0000000000
Confining potential (l,width,scale):  1    3.0000000000  100.0000000000
  1         -4.7366890484   -3.4501654188    7.0523828109   -1.9619316308
  2         -9.7225420322   -2.0763080851    8.3068355706   -2.2908832437
  3         -9.7134243553   -2.1270543915    8.2534567806   -2.2819809971
  4         -9.7235185949   -2.1427582218    8.2369947390   -2.2802814234
  5         -9.7258373845   -2.1477905863    8.2317116314   -2.2798536235
  6         -9.7268932325   -2.1503512400    8.2290229806   -2.2796830099
  7         -9.7273189469   -2.1516634231    8.2276451699   -2.2796169657
  8         -9.7274675212   -2.1523365544    8.2269384796   -2.2795940092
  9         -9.7275041773   -2.1526817003    8.2265762312   -2.2795881371
 10         -9.7275008637   -2.1528585007    8.2263907413   -2.2795884060
 11         -9.7274868305   -2.1529489544    8.2262958841   -2.2795903922
 12         -9.7274755655   -2.1529859230    8.2262571347   -2.2795920452
 13         -9.7274662327   -2.1530083995    8.2262335832   -2.2795934369
 14         -9.7274589439   -2.1530220534    8.2262192809   -2.2795945372
 15         -9.7274534633   -2.1530303399    8.2262106039   -2.2795953734
 16         -9.7274494492   -2.1530353634    8.2262053452   -2.2795959920
 17         -9.7274465654   -2.1530384053    8.2262021621   -2.2795964406
 18         -9.7274445237   -2.1530402447    8.2262002378   -2.2795967611
 19         -9.7274430947   -2.1530413553    8.2261990762   -2.2795969874
 20         -9.7274421038   -2.1530420249    8.2261983762   -2.2795971458
 21         -9.7274414219   -2.1530424277    8.2261979551   -2.2795972557
 22         -9.7274409555   -2.1530426696    8.2261977024   -2.2795973315
 23         -9.7274406382   -2.1530428144    8.2261975510   -2.2795973835
 24         -9.7274404232   -2.1530429010    8.2261974606   -2.2795974190
 25         -9.7274402783   -2.1530429525    8.2261974067   -2.2795974432
 26         -9.7274401808   -2.1530429831    8.2261973748   -2.2795974596
Atom SCF converged after  26 iterations to a total energy of     -9.72744018

Atom SCF Calculation for H  : Z (AE atom) =   1 : Z (PS atom) =   1
Config String:
Orbitals (num,occ):  1     1.00
Orbitals   (num,l):  1        0
Real-space Grid (nr,dr,rmax): 1203    0.0066555740    8.0000000000
Spherical Bessel Basis (nsws,lmax,cutoff):   47    0  176.3951722778
Confining potential (l,width,scale):  0    3.0000000000  100.0000000000
  1         -0.3178661827   -0.2469879004    0.2820953124   -0.2487802071
  2         -0.3961824611   -0.2455070831    0.2902209900   -0.2567664324
  3         -0.4406462424   -0.2424227551    0.2948173255   -0.2622129794
  4         -0.4569739054   -0.2416771342    0.2960118236   -0.2639986016
  5         -0.4627745219   -0.2416114401    0.2961916694   -0.2644992007
  6         -0.4648634749   -0.2416666130    0.2961598921   -0.2646237065
  7         -0.4656347011   -0.2417155160    0.2961132802   -0.2646490719
  8         -0.4659271144   -0.2417438448    0.2960836537   -0.2646515522
  9         -0.4660407254   -0.2417580788    0.2960682004   -0.2646501482
 10         -0.4660857867   -0.2417647566    0.2960608087   -0.2646488305
 11         -0.4661039568   -0.2417677717    0.2960574330   -0.2646480606
 12         -0.4661113773   -0.2417691018    0.2960559329   -0.2646476727
 13         -0.4661144368   -0.2417696800    0.2960552775   -0.2646474903
 14         -0.4661157072   -0.2417699291    0.2960549942   -0.2646474079
 15         -0.4661162374   -0.2417700356    0.2960548727   -0.2646473715
 16         -0.4661164596   -0.2417700810    0.2960548208   -0.2646473556
 17         -0.4661165529   -0.2417701003    0.2960547987   -0.2646473488
Atom SCF converged after  17 iterations to a total energy of     -0.46611655

Atom SCF Calculation for C  : Z (AE atom) =   6 : Z (PS atom) =   4
Config String:
Orbitals (num,occ):  2     2.00 2.00
Orbitals   (num,l):  2        0    1
Real-space Grid (nr,dr,rmax): 1203    0.0066555740    8.0000000000
Spherical Bessel Basis (nsws,lmax,cutoff):   47    1  176.3951722778
Confining potential (l,width,scale):  0    3.0000000000  100.0000000000
Confining potential (l,width,scale):  1    3.0000000000  100.0000000000
  1         -5.2812238291   -1.3293161250    4.5135249990   -1.4716766231
  2         -5.3996591362   -1.3542148509    4.4876064308   -1.4645117417
  3         -5.4111847148   -1.3757224423    4.4645718036   -1.4593107263
  4         -5.4199203659   -1.3833334895    4.4563636676   -1.4579885221
  5         -5.4226876204   -1.3865104950    4.4529090432   -1.4575385943
  6         -5.4235070726   -1.3878131251    4.4514866831   -1.4573882877
  7         -5.4237271252   -1.3883401868    4.4509094528   -1.4573411661
  8         -5.4237693051   -1.3885521813    4.4506766230   -1.4573281030
  9         -5.4237656430   -1.3886371046    4.4505830704   -1.4573255254
 10         -5.4237547927   -1.3886709976    4.4505456041   -1.4573257244
 11         -5.4237478594   -1.3886817763    4.4505336403   -1.4573262476
 12         -5.4237429748   -1.3886873440    4.4505274417   -1.4573266921
 13         -5.4237397042   -1.3886902144    4.4505242350   -1.4573270222
 14         -5.4237375865   -1.3886916908    4.4505225792   -1.4573272507
 15         -5.4237362473   -1.3886924482    4.4505217259   -1.4573274021
 16         -5.4237354152   -1.3886928356    4.4505212873   -1.4573274996
 17         -5.4237349050   -1.3886930331    4.4505210623   -1.4573275610
 18         -5.4237345954   -1.3886931333    4.4505209473   -1.4573275991
 19         -5.4237344092   -1.3886931840    4.4505208887   -1.4573276224
 20         -5.4237342980   -1.3886932094    4.4505208590   -1.4573276366
 21         -5.4237342320   -1.3886932221    4.4505208440   -1.4573276451
Atom SCF converged after  21 iterations to a total energy of     -5.42373423

Atom SCF Calculation for S  : Z (AE atom) =  16 : Z (PS atom) =   6
Config String:
Orbitals (num,occ):  3     2.00 4.00 0.00
Orbitals   (num,l):  3        0    1    2
Real-space Grid (nr,dr,rmax): 1203    0.0066555740    8.0000000000
Spherical Bessel Basis (nsws,lmax,cutoff):   47    2  176.3951722778
Confining potential (l,width,scale):  0    3.0000000000  100.0000000000
Confining potential (l,width,scale):  1    3.0000000000  100.0000000000
Confining potential (l,width,scale):  2    3.0000000000  100.0000000000
  1        -12.4916237786   -1.0485914554   10.1554312477   -2.4822447765
  2         -9.9747083603   -2.4807597367    8.3138131863   -2.0618837268
  3        -10.1811370131   -2.3153496392    8.4906092179   -2.1137756843
  4        -10.1856385898   -2.2984912006    8.5093862195   -2.1218167101
  5        -10.1891317560   -2.2894783333    8.5195006030   -2.1261392389
  6        -10.1911142562   -2.2849160124    8.5246320974   -2.1283733378
  7        -10.1921506977   -2.2826473329    8.5271859473   -2.1295140514
  8        -10.1926851273   -2.2815219985    8.5284534218   -2.1300957983
  9        -10.1929632671   -2.2809620806    8.5290843811   -2.1303933136
 10        -10.1931100895   -2.2806822783    8.5293998452   -2.1305460626
 11        -10.1931885828   -2.2805418782    8.5295582201   -2.1306248009
 12        -10.1932309625   -2.2804711729    8.5296380158   -2.1306655459
 13        -10.1932540142   -2.2804354512    8.5296783476   -2.1306867097
 14        -10.1932666242   -2.2804173494    8.5296987927   -2.1306977435
 15        -10.1932735535   -2.2804081489    8.5297091868   -2.1307035175
 16        -10.1932773756   -2.2804034581    8.5297144867   -2.1307065505
 17        -10.1932794908   -2.2804010586    8.5297171976   -2.1307081499
 18        -10.1932806648   -2.2803998268    8.5297185890   -2.1307089965
 19        -10.1932813181   -2.2803991920    8.5297193057   -2.1307094466
 20        -10.1932816826   -2.2803988634    8.5297196763   -2.1307096867
 21        -10.1932818864   -2.2803986926    8.5297198688   -2.1307098154
 22        -10.1932820006   -2.2803986034    8.5297199692   -2.1307098847
 23        -10.1932820648   -2.2803985565    8.5297200219   -2.1307099221
Atom SCF converged after  23 iterations to a total energy of    -10.19328206

Atom SCF Calculation for O  : Z (AE atom) =   8 : Z (PS atom) =   6
Config String:
Orbitals (num,occ):  2     2.00 4.00
Orbitals   (num,l):  2        0    1
Real-space Grid (nr,dr,rmax): 1203    0.0066555740    8.0000000000
Spherical Bessel Basis (nsws,lmax,cutoff):   47    1  176.3951722778
Confining potential (l,width,scale):  0    3.0000000000  100.0000000000
Confining potential (l,width,scale):  1    3.0000000000  100.0000000000
  1         -1.9497477053   -7.5870966769   10.1554312477   -2.4822447765
  2        -15.9466298225   -3.1778351734   13.6353006614   -3.2931224232
  3        -16.0387051750   -3.0909030611   13.7305651010   -3.3194522996
  4        -15.9025031450   -3.1083023605   13.7128101414   -3.3180850501
  5        -15.8912953362   -3.1033022259   13.7185404266   -3.3206942093
  6        -15.8793912992   -3.1043100674   13.7175820250   -3.3209366960
  7        -15.8748748605   -3.1043975610   13.7175531476   -3.3211845618
  8        -15.8725354084   -3.1044655610   13.7175148333   -3.3213149154
  9        -15.8713193866   -3.1045129589   13.7174824743   -3.3213832909
 10        -15.8706863385   -3.1045436851   13.7174593895   -3.3214192053
 11        -15.8703562731   -3.1045627330   13.7174442347   -3.3214381098
 12        -15.8701839150   -3.1045741887   13.7174347673   -3.3214480859
 13        -15.8700937727   -3.1045809294   13.7174290448   -3.3214533647
 14        -15.8700465571   -3.1045848305   13.7174256662   -3.3214561658
 15        -15.8700217888   -3.1045870593   13.7174237063   -3.3214576563
 16        -15.8700087767   -3.1045883194   13.7174225849   -3.3214584516
 17        -15.8700019307   -3.1045890258   13.7174219502   -3.3214588771
 18        -15.8699983237   -3.1045894190   13.7174215942   -3.3214591053
 19        -15.8699964206   -3.1045896366   13.7174213960   -3.3214592281
 20        -15.8699954151   -3.1045897563   13.7174212864   -3.3214592942
 21        -15.8699948832   -3.1045898219   13.7174212260   -3.3214593299
 22        -15.8699946014   -3.1045898577   13.7174211930   -3.3214593493
 23        -15.8699944520   -3.1045898771   13.7174211750   -3.3214593597
 24        -15.8699943726   -3.1045898877   13.7174211652   -3.3214593654
Atom SCF converged after  24 iterations to a total energy of    -15.86999437

========================== Calculation in vacuum ==============================
= Adjusting the following parameters: 
= is_implicit_solvent: F
= is_include_apolar: F
= write_denskern: T
= write_tightbox_ngwfs: T
= restart read filename prefix: ""
= restart write filename prefix: "vacuum_"
===============================================================================

Determining parallel strategy ...
... using space-filling curve
... NGWF load balancing: max    110;  min    109;  average    109
... Projector load balancing: max     26;  min     21;  average     22
... done
Calculating direct Ion-Ion energy ...
Ion-Ion Energy        :    838367.10228718747385
Basis initialisation ...... NGWF spheres initialised
... Projector spheres initialised
... NGWF tight boxes initialised
... Tight-boxes gathered
... NGWF basis size (local,global):     984215  59024973
... Nonlocal pseudopotential projector initialisation
... done

========================== Sparse matrix information ===========================
                        Overlap matrix filling:   6.80%
                        Density kernel filling: 100.00%
              NGWF-Proj overlap matrix filling:   1.77%
                    Hamiltonian matrix filling:   7.68%
                  NGWF diagonal matrix filling:   0.05%
                             KS matrix filling: 100.00% 
                           KSKS matrix filling: 100.00% 
================================================================================

Sparse matrix initialisation ... done

Generating smeared ion density ... done
Smeared ion self correction:     -14543.939510
Smeared ion non-self correction: -838318.758394
NGWF initialisation ...... done
============ Calculation of NGWF S^-1 using Hotelling algorithm ================ 
         Iteration  |  Frobenius norm and Maximum abs value    (of I-S*S_n^-1)   
               1       0.78643335E+02     0.98198141E+00
               2       0.76737649E+02     0.96442827E+00
               3       0.73664235E+02     0.93075831E+00
               4       0.69318618E+02     0.86843455E+00
               5       0.63934673E+02     0.76230386E+00
               6       0.57920310E+02     0.70279934E+00
               7       0.51916010E+02     0.66899034E+00
               8       0.46356852E+02     0.64050282E+00
               9       0.40178810E+02     0.60010653E+00
              10       0.31737573E+02     0.53053435E+00
              11       0.21059796E+02     0.41770079E+00
              12       0.10546538E+02     0.27551607E+00
              13       0.33572333E+01     0.12313269E+00
              14       0.49319861E+00     0.25418786E-01
              15       0.19735498E-01     0.16025543E-02
              16       0.70241365E-04     0.84060836E-05
              17       0.14318197E-08     0.23772362E-09
              18       0.86185172E-13     0.93258734E-14
================================================================================
Calculating local pseudopotential in open BC on the fine real space grid ...
... done

MG BCs: +ve charge blocks (gridpoints):     20588 (   16216290).
MG BCs: -ve charge blocks (gridpoints):      8149 (    1103292).
MG BCs:     Elided blocks (gridpoints):    194644 (  193383963).
MG BCs: Computational effort saved:  99.9864%.
MG BCs: Charge after coarse-graining:           -9.0002258.
MG DL_MG: Calling solver with defect correction order = 8
MG DL_MG: Solver finished
MG Hartree energy from (\int phi*rho dr):              1461.099217
MG Hartree energy from (\int eps (grad phi)^2 dr):     1460.495243
MG Discrepancy due to finite box and discretization:     -0.603974 (  -0.04134%)
MG Correction to account for finite box:                  0.453179
MG Remaining discrepancy, due to discretization:         -0.150795 (  -0.01032%)
Up spin density kernel initialisation ... 
======= Optimisation of K by Palser-Manolopoulos canonical purification ======== 
         Iteration  |  Band structure energy |    c_n   
               1       -2593.36094097995692    0.5271095
               2       -2770.17032083848744    0.5174467
               3       -2951.48479386633426    0.5161148
               4       -3102.76414536854872    0.5303788
               5       -3195.53406177625857    0.5675232
               6       -3234.20421380255266    0.6127894
               7       -3247.41680381041442    0.6242318
               8       -3253.22662950169160    0.6235620
               9       -3256.05892332836811    0.6387077
              10       -3257.24252852411519    0.6645116
              11       -3257.70950454514787    0.6814804
              12       -3257.91666906781438    0.6809999
              13       -3258.02304013272897    0.6486565
              14       -3258.08652961480038    0.5715213
              15       -3258.12734168979750    0.4634132
              16       -3258.14243968581650    0.3841682
              17       -3258.14364998415658    0.3672507
              18       -3258.14426890861523    0.3857608
              19       -3258.14470093051978    0.4288326
              20       -3258.14509149645028    0.4700371
              21       -3258.14536934823218    0.4942961
              22       -3258.14547830009451    0.4997933
              23       -3258.14549138617531    0.4999998
              24       -3258.14549155681789    0.4999998
Termination criterion satisfied: band energy change below threshold.
Final occupancy bounds: [    0.00000000001060:    0.99999999999943]
Closest occupancy to 0.5:     0.99999999999954
================================================================================
... done

Writing density kernel to file "complex_18721.vacuum_dkn" ... done

>>> Optimising kernel for current NGWFs:
   Initial electron number for spin 1:    7234.00000000
     Final electron number for spin 1:    7234.00000000

=================== Penalty functional idempotency correction ==================
 RMS occupancy error at iteration   1:  0.000000 (step -0.5000 Ne1=   7234.0000)
            Final RMS occupancy error   :  0.000000 (Ne1=   7234.0000)
               Final occupancy bounds   : [  0.0000,  1.0000]
================================================================================

................................................................................
<<<<<<<<<<<<<< LNV (Original version) density kernel optimisation >>>>>>>>>>>>>>
~~~~~~~~~~~~~~~~~~~~~~~~~~~~~~~~~~~~~~~~~~~~~~~~~~~~~~~~~~~~~~~~~~~~~~~~~~~~~~~~
   iter  |      energy (Eh)       | rms gradient |  commutator  |   dE (Eh)
MG BCs: +ve charge blocks (gridpoints):     31220 (   17320052).
MG BCs: -ve charge blocks (gridpoints):      8404 (    1132719).
MG BCs:     Elided blocks (gridpoints):    184010 (  192250774).
MG BCs: Computational effort saved:  99.9812%.
MG BCs: Charge after coarse-graining:           -9.0010234.
MG DL_MG: Calling solver with defect correction order = 8
MG DL_MG: Solver finished
MG Hartree energy from (\int phi*rho dr):              1425.266411
MG Hartree energy from (\int eps (grad phi)^2 dr):     1424.610766
MG Discrepancy due to finite box and discretization:     -0.655645 (  -0.04600%)
MG Correction to account for finite box:                  0.462765
MG Remaining discrepancy, due to discretization:         -0.192880 (  -0.01353%)
      ideal mu1:      -0.703816215736
             Q0:  -11594.041271355236
             G0:    -150.762201482898
   RMS gradient:       0.001876589642
MG BCs: +ve charge blocks (gridpoints):     31239 (   17397672).
MG BCs: -ve charge blocks (gridpoints):      8338 (    1115520).
MG BCs:     Elided blocks (gridpoints):    183986 (  192190353).
MG BCs: Computational effort saved:  99.9812%.
MG BCs: Charge after coarse-graining:           -9.0010452.
MG DL_MG: Calling solver with defect correction order = 8
MG DL_MG: Solver finished
MG Hartree energy from (\int phi*rho dr):              1444.565933
MG Hartree energy from (\int eps (grad phi)^2 dr):     1443.927158
MG Discrepancy due to finite box and discretization:     -0.638774 (  -0.04422%)
MG Correction to account for finite box:                  0.462073
MG Remaining discrepancy, due to discretization:         -0.176702 (  -0.01223%)
     Trial step:       0.500000000000
             Q1:  -11606.045441983733
 Quadratic coef:      63.376930112952
 Linear coef   :     -75.381100741449
           Qmin:  -11616.456014144391
Quadratic minimum step length (  0.297352288156) accepted
    Initial Ne1:    7234.00000000
      Final Ne1:    7234.00000000

=================== Penalty functional idempotency correction ==================
 RMS occupancy error at iteration   1:  0.003604 (step -0.4877 Ne1=   7234.0000)
 RMS occupancy error at iteration   2:  0.000030 (step -0.5001 Ne1=   7234.0000)
            Final RMS occupancy error   :  0.000000 (Ne1=   7234.0000)
               Final occupancy bounds   : [  0.0000,  1.0000]
================================================================================

    1        -1.159404127136E+04     1.8766E-03     1.6973E-03
MG BCs: +ve charge blocks (gridpoints):     31230 (   17367495).
MG BCs: -ve charge blocks (gridpoints):      8379 (    1123024).
MG BCs:     Elided blocks (gridpoints):    183997 (  192213026).
MG BCs: Computational effort saved:  99.9812%.
MG BCs: Charge after coarse-graining:           -9.0010362.
MG DL_MG: Calling solver with defect correction order = 8
MG DL_MG: Solver finished
MG Hartree energy from (\int phi*rho dr):              1428.473056
MG Hartree energy from (\int eps (grad phi)^2 dr):     1427.828421
MG Discrepancy due to finite box and discretization:     -0.644635 (  -0.04513%)
MG Correction to account for finite box:                  0.462253
MG Remaining discrepancy, due to discretization:         -0.182382 (  -0.01277%)
      ideal mu1:      -0.749243756271
             Q0:  -11616.916514507728
             G0:     -12.578427036375
   RMS gradient:       0.000538055049
MG BCs: +ve charge blocks (gridpoints):     31226 (   17384129).
MG BCs: -ve charge blocks (gridpoints):      8357 (    1118403).
MG BCs:     Elided blocks (gridpoints):    184001 (  192201013).
MG BCs: Computational effort saved:  99.9812%.
MG BCs: Charge after coarse-graining:           -9.0010405.
MG DL_MG: Calling solver with defect correction order = 8
MG DL_MG: Solver finished
MG Hartree energy from (\int phi*rho dr):              1432.721689
MG Hartree energy from (\int eps (grad phi)^2 dr):     1432.080984
MG Discrepancy due to finite box and discretization:     -0.640705 (  -0.04472%)
MG Correction to account for finite box:                  0.461594
MG Remaining discrepancy, due to discretization:         -0.179111 (  -0.01250%)
     Trial step:       0.385585456258
             Q1:  -11619.892790020676
 Quadratic coef:       1.873783014882
 Linear coef   :      -4.850058527830
           Qmin:  -11620.054960573329
Quadratic minimum step length (  0.499020434991) accepted
    Initial Ne1:    7233.99987908
      Final Ne1:    7234.00000000

=================== Penalty functional idempotency correction ==================
 RMS occupancy error at iteration   1:  0.001945 (step -0.4924 Ne1=   7234.0000)
 RMS occupancy error at iteration   2:  0.000013 (step -0.5002 Ne1=   7234.0000)
            Final RMS occupancy error   :  0.000000 (Ne1=   7234.0000)
               Final occupancy bounds   : [  0.0000,  1.0000]
================================================================================

    2        -1.161691651451E+04     5.3806E-04     4.8666E-04    -2.2875E+01
MG BCs: +ve charge blocks (gridpoints):     31229 (   17389059).
MG BCs: -ve charge blocks (gridpoints):      8346 (    1116962).
MG BCs:     Elided blocks (gridpoints):    183997 (  192197524).
MG BCs: Computational effort saved:  99.9812%.
MG BCs: Charge after coarse-graining:           -9.0010418.
MG DL_MG: Calling solver with defect correction order = 8
MG DL_MG: Solver finished
MG Hartree energy from (\int phi*rho dr):              1434.024496
MG Hartree energy from (\int eps (grad phi)^2 dr):     1433.384864
MG Discrepancy due to finite box and discretization:     -0.639632 (  -0.04460%)
MG Correction to account for finite box:                  0.461414
MG Remaining discrepancy, due to discretization:         -0.178218 (  -0.01243%)
      ideal mu1:      -0.774443071451
             Q0:  -11620.095621707034
             G0:      -2.024979914968
   RMS gradient:       0.000216105400
MG BCs: +ve charge blocks (gridpoints):     31246 (   17388852).
MG BCs: -ve charge blocks (gridpoints):      8352 (    1117824).
MG BCs:     Elided blocks (gridpoints):    183981 (  192196869).
MG BCs: Computational effort saved:  99.9812%.
MG BCs: Charge after coarse-graining:           -9.0010415.
MG DL_MG: Calling solver with defect correction order = 8
MG DL_MG: Solver finished
MG Hartree energy from (\int phi*rho dr):              1432.313590
MG Hartree energy from (\int eps (grad phi)^2 dr):     1431.674405
MG Discrepancy due to finite box and discretization:     -0.639185 (  -0.04463%)
MG Correction to account for finite box:                  0.461122
MG Remaining discrepancy, due to discretization:         -0.178063 (  -0.01243%)
     Trial step:       0.438651367385
             Q1:  -11620.618469526991
 Quadratic coef:       0.365412388670
 Linear coef   :      -0.888260208627
           Qmin:  -11620.635427021998
Quadratic minimum step length (  0.533146339846) accepted
    Initial Ne1:    7233.99991569
      Final Ne1:    7234.00000000

=================== Penalty functional idempotency correction ==================
 RMS occupancy error at iteration   1:  0.000693 (step -0.4968 Ne1=   7234.0000)
 RMS occupancy error at iteration   2:  0.000003 (step -0.5000 Ne1=   7234.0000)
            Final RMS occupancy error   :  0.000000 (Ne1=   7234.0000)
               Final occupancy bounds   : [  0.0000,  1.0000]
================================================================================

    3        -1.162009562171E+04     2.1611E-04     1.9546E-04    -3.1791E+00
MG BCs: +ve charge blocks (gridpoints):     31247 (   17388783).
MG BCs: -ve charge blocks (gridpoints):      8353 (    1118029).
MG BCs:     Elided blocks (gridpoints):    183980 (  192196733).
MG BCs: Computational effort saved:  99.9812%.
MG BCs: Charge after coarse-graining:           -9.0010415.
MG DL_MG: Calling solver with defect correction order = 8
MG DL_MG: Solver finished
MG Hartree energy from (\int phi*rho dr):              1431.953097
MG Hartree energy from (\int eps (grad phi)^2 dr):     1431.313996
MG Discrepancy due to finite box and discretization:     -0.639101 (  -0.04463%)
MG Correction to account for finite box:                  0.461060
MG Remaining discrepancy, due to discretization:         -0.178041 (  -0.01243%)
      ideal mu1:      -0.775380084773
             Q0:  -11620.641036355053
             G0:      -0.563799803144
   RMS gradient:       0.000114088600
MG BCs: +ve charge blocks (gridpoints):     31243 (   17389721).
MG BCs: -ve charge blocks (gridpoints):      8355 (    1117774).
MG BCs:     Elided blocks (gridpoints):    183984 (  192196050).
MG BCs: Computational effort saved:  99.9812%.
MG BCs: Charge after coarse-graining:           -9.0010417.
MG DL_MG: Calling solver with defect correction order = 8
MG DL_MG: Solver finished
MG Hartree energy from (\int phi*rho dr):              1433.071880
MG Hartree energy from (\int eps (grad phi)^2 dr):     1432.432886
MG Discrepancy due to finite box and discretization:     -0.638993 (  -0.04459%)
MG Correction to account for finite box:                  0.460894
MG Remaining discrepancy, due to discretization:         -0.178100 (  -0.01243%)
     Trial step:       0.483596289263
             Q1:  -11620.782305305940
 Quadratic coef:       0.131382541800
 Linear coef   :      -0.272651492688
           Qmin:  -11620.782491291618
Quadratic minimum step length (  0.501791365578) accepted
    Initial Ne1:    7233.99997786
      Final Ne1:    7234.00000000

=================== Penalty functional idempotency correction ==================
 RMS occupancy error at iteration   1:  0.000337 (step -0.4948 Ne1=   7234.0000)
 RMS occupancy error at iteration   2:  0.000004 (step -0.5000 Ne1=   7234.0000)
            Final RMS occupancy error   :  0.000000 (Ne1=   7234.0000)
               Final occupancy bounds   : [  0.0000,  1.0000]
================================================================================

    4        -1.162064103636E+04     1.1409E-04     1.0319E-04    -5.4541E-01
MG BCs: +ve charge blocks (gridpoints):     31243 (   17389757).
MG BCs: -ve charge blocks (gridpoints):      8355 (    1117760).
MG BCs:     Elided blocks (gridpoints):    183984 (  192196028).
MG BCs: Computational effort saved:  99.9812%.
MG BCs: Charge after coarse-graining:           -9.0010417.
MG DL_MG: Calling solver with defect correction order = 8
MG DL_MG: Solver finished
MG Hartree energy from (\int phi*rho dr):              1433.114718
MG Hartree energy from (\int eps (grad phi)^2 dr):     1432.475728
MG Discrepancy due to finite box and discretization:     -0.638990 (  -0.04459%)
MG Correction to account for finite box:                  0.460888
MG Remaining discrepancy, due to discretization:         -0.178102 (  -0.01243%)
      ideal mu1:      -0.775491690673
             Q0:  -11620.783260138473
             G0:      -0.227759117733
   RMS gradient:       0.000072764939
MG BCs: +ve charge blocks (gridpoints):     31249 (   17389927).
MG BCs: -ve charge blocks (gridpoints):      8353 (    1117650).
MG BCs:     Elided blocks (gridpoints):    183978 (  192195968).
MG BCs: Computational effort saved:  99.9812%.
MG BCs: Charge after coarse-graining:           -9.0010415.
MG DL_MG: Calling solver with defect correction order = 8
MG DL_MG: Solver finished
MG Hartree energy from (\int phi*rho dr):              1433.570136
MG Hartree energy from (\int eps (grad phi)^2 dr):     1432.931078
MG Discrepancy due to finite box and discretization:     -0.639058 (  -0.04458%)
MG Correction to account for finite box:                  0.460780
MG Remaining discrepancy, due to discretization:         -0.178278 (  -0.01244%)
     Trial step:       0.492609827732
             Q1:  -11620.861981439753
 Quadratic coef:       0.033475078470
 Linear coef   :      -0.112196379751
           Qmin:  -11620.877270580006
Quadratic minimum step length (  0.825525164210) accepted
    Initial Ne1:    7233.99998477
      Final Ne1:    7234.00000000

=================== Penalty functional idempotency correction ==================
 RMS occupancy error at iteration   1:  0.000860 (step -0.4541 Ne1=   7234.0000)
 RMS occupancy error at iteration   2:  0.000029 (step -0.5000 Ne1=   7234.0000)
            Final RMS occupancy error   :  0.000000 (Ne1=   7234.0000)
               Final occupancy bounds   : [  0.0000,  1.0000]
================================================================================

    5        -1.162078326014E+04     7.2765E-05     6.5814E-05    -1.4222E-01
MG BCs: +ve charge blocks (gridpoints):     31244 (   17390171).
MG BCs: -ve charge blocks (gridpoints):      8351 (    1117509).
MG BCs:     Elided blocks (gridpoints):    183983 (  192195865).
MG BCs: Computational effort saved:  99.9812%.
MG BCs: Charge after coarse-graining:           -9.0010414.
MG DL_MG: Calling solver with defect correction order = 8
MG DL_MG: Solver finished
MG Hartree energy from (\int phi*rho dr):              1433.873909
MG Hartree energy from (\int eps (grad phi)^2 dr):     1433.234809
MG Discrepancy due to finite box and discretization:     -0.639100 (  -0.04457%)
MG Correction to account for finite box:                  0.460703
MG Remaining discrepancy, due to discretization:         -0.178397 (  -0.01244%)
      ideal mu1:      -0.775440270678
             Q0:  -11620.873955067946
             G0:      -0.285414923869
   RMS gradient:       0.000083521443
MG BCs: +ve charge blocks (gridpoints):     31247 (   17389230).
MG BCs: -ve charge blocks (gridpoints):      8349 (    1118042).
MG BCs:     Elided blocks (gridpoints):    183980 (  192196273).
MG BCs: Computational effort saved:  99.9812%.
MG BCs: Charge after coarse-graining:           -9.0010411.
MG DL_MG: Calling solver with defect correction order = 8
MG DL_MG: Solver finished
MG Hartree energy from (\int phi*rho dr):              1432.180749
MG Hartree energy from (\int eps (grad phi)^2 dr):     1431.541921
MG Discrepancy due to finite box and discretization:     -0.638829 (  -0.04461%)
MG Correction to account for finite box:                  0.460426
MG Remaining discrepancy, due to discretization:         -0.178403 (  -0.01246%)
     Trial step:       0.637700406876
             Q1:  -11620.992533248151
 Quadratic coef:       0.063431032875
 Linear coef   :      -0.182009213080
           Qmin:  -11621.004519525690
Quadratic minimum step length (  0.914909816026) accepted
    Initial Ne1:    7233.99984587
      Final Ne1:    7234.00000000

=================== Penalty functional idempotency correction ==================
 RMS occupancy error at iteration   1:  0.005414 (step -0.2919 Ne1=   7234.0000)
 RMS occupancy error at iteration   2:  0.000508 (step -0.4793 Ne1=   7234.0000)
 RMS occupancy error at iteration   3:  0.000019 (step -0.5008 Ne1=   7234.0000)
            Final RMS occupancy error   :  0.000000 (Ne1=   7234.0000)
               Final occupancy bounds   : [  0.0000,  1.0000]
================================================================================

    6        -1.162087395507E+04     8.3521E-05     7.5543E-05    -9.0695E-02
MG BCs: +ve charge blocks (gridpoints):     31250 (   17388860).
MG BCs: -ve charge blocks (gridpoints):      8354 (    1118259).
MG BCs:     Elided blocks (gridpoints):    183977 (  192196426).
MG BCs: Computational effort saved:  99.9812%.
MG BCs: Charge after coarse-graining:           -9.0010409.
MG DL_MG: Calling solver with defect correction order = 8
MG DL_MG: Solver finished
MG Hartree energy from (\int phi*rho dr):              1431.490054
MG Hartree energy from (\int eps (grad phi)^2 dr):     1430.851286
MG Discrepancy due to finite box and discretization:     -0.638769 (  -0.04462%)
MG Correction to account for finite box:                  0.460357
MG Remaining discrepancy, due to discretization:         -0.178412 (  -0.01246%)
      ideal mu1:      -0.774946186055
             Q0:  -11620.986655014334
             G0:      -0.426630939170
   RMS gradient:       0.000099827284
MG BCs: +ve charge blocks (gridpoints):     31250 (   17390371).
MG BCs: -ve charge blocks (gridpoints):      8353 (    1117461).
MG BCs:     Elided blocks (gridpoints):    183977 (  192195713).
MG BCs: Computational effort saved:  99.9812%.
MG BCs: Charge after coarse-graining:           -9.0010418.
MG DL_MG: Calling solver with defect correction order = 8
MG DL_MG: Solver finished
MG Hartree energy from (\int phi*rho dr):              1433.254626
MG Hartree energy from (\int eps (grad phi)^2 dr):     1432.616250
MG Discrepancy due to finite box and discretization:     -0.638375 (  -0.04454%)
MG Correction to account for finite box:                  0.460322
MG Remaining discrepancy, due to discretization:         -0.178053 (  -0.01242%)
     Trial step:       0.763831370091
             Q1:  -11621.132727349526
 Quadratic coef:       0.179801759597
 Linear coef   :      -0.325874094789
           Qmin:  -11621.134309194544
Quadratic minimum step length (  0.692186930921) accepted
    Initial Ne1:    7233.99967375
      Final Ne1:    7234.00000000

=================== Penalty functional idempotency correction ==================
 RMS occupancy error at iteration   1:  0.000372 (step -0.4714 Ne1=   7234.0000)
 RMS occupancy error at iteration   2:  0.000004 (step -0.5000 Ne1=   7234.0000)
            Final RMS occupancy error   :  0.000000 (Ne1=   7234.0000)
               Final occupancy bounds   : [  0.0000,  1.0000]
================================================================================

    7        -1.162098665501E+04     9.9827E-05     9.0292E-05    -1.1270E-01
MG BCs: +ve charge blocks (gridpoints):     31250 (   17390265).
MG BCs: -ve charge blocks (gridpoints):      8354 (    1117548).
MG BCs:     Elided blocks (gridpoints):    183977 (  192195732).
MG BCs: Computational effort saved:  99.9812%.
MG BCs: Charge after coarse-graining:           -9.0010416.
MG DL_MG: Calling solver with defect correction order = 8
MG DL_MG: Solver finished
MG Hartree energy from (\int phi*rho dr):              1433.088624
MG Hartree energy from (\int eps (grad phi)^2 dr):     1432.450213
MG Discrepancy due to finite box and discretization:     -0.638411 (  -0.04455%)
MG Correction to account for finite box:                  0.460325
MG Remaining discrepancy, due to discretization:         -0.178086 (  -0.01243%)
      ideal mu1:      -0.775856529475
             Q0:  -11621.134565369226
             G0:      -0.303502421746
   RMS gradient:       0.000084281262
MG BCs: +ve charge blocks (gridpoints):     31247 (   17390535).
MG BCs: -ve charge blocks (gridpoints):      8349 (    1117291).
MG BCs:     Elided blocks (gridpoints):    183980 (  192195719).
MG BCs: Computational effort saved:  99.9812%.
MG BCs: Charge after coarse-graining:           -9.0010417.
MG DL_MG: Calling solver with defect correction order = 8
MG DL_MG: Solver finished
MG Hartree energy from (\int phi*rho dr):              1433.279813
MG Hartree energy from (\int eps (grad phi)^2 dr):     1432.641506
MG Discrepancy due to finite box and discretization:     -0.638306 (  -0.04453%)
MG Correction to account for finite box:                  0.460363
MG Remaining discrepancy, due to discretization:         -0.177943 (  -0.01242%)
     Trial step:       0.727127287209
             Q1:  -11621.230335427914
 Quadratic coef:       0.124914833897
 Linear coef   :      -0.220684892586
           Qmin:  -11621.232035422014
Quadratic minimum step length (  0.642301647719) accepted
    Initial Ne1:    7233.99978282
      Final Ne1:    7234.00000000

=================== Penalty functional idempotency correction ==================
 RMS occupancy error at iteration   1:  0.001316 (step -0.4116 Ne1=   7234.0000)
 RMS occupancy error at iteration   2:  0.000031 (step -0.4989 Ne1=   7234.0000)
            Final RMS occupancy error   :  0.000000 (Ne1=   7234.0000)
               Final occupancy bounds   : [ -0.0000,  1.0000]
================================================================================

    8        -1.162113456537E+04     8.4281E-05     7.6231E-05    -1.4791E-01
MG BCs: +ve charge blocks (gridpoints):     31247 (   17390465).
MG BCs: -ve charge blocks (gridpoints):      8349 (    1117313).
MG BCs:     Elided blocks (gridpoints):    183980 (  192195767).
MG BCs: Computational effort saved:  99.9812%.
MG BCs: Charge after coarse-graining:           -9.0010418.
MG DL_MG: Calling solver with defect correction order = 8
MG DL_MG: Solver finished
MG Hartree energy from (\int phi*rho dr):              1433.255623
MG Hartree energy from (\int eps (grad phi)^2 dr):     1432.617311
MG Discrepancy due to finite box and discretization:     -0.638312 (  -0.04454%)
MG Correction to account for finite box:                  0.460354
MG Remaining discrepancy, due to discretization:         -0.177958 (  -0.01242%)
      ideal mu1:      -0.775305840776
             Q0:  -11621.233790953062
             G0:      -0.165915267085
   RMS gradient:       0.000061184907
MG BCs: +ve charge blocks (gridpoints):     31243 (   17389777).
MG BCs: -ve charge blocks (gridpoints):      8349 (    1117728).
MG BCs:     Elided blocks (gridpoints):    183984 (  192196040).
MG BCs: Computational effort saved:  99.9812%.
MG BCs: Charge after coarse-graining:           -9.0010414.
MG DL_MG: Calling solver with defect correction order = 8
MG DL_MG: Solver finished
MG Hartree energy from (\int phi*rho dr):              1432.421272
MG Hartree energy from (\int eps (grad phi)^2 dr):     1431.782933
MG Discrepancy due to finite box and discretization:     -0.638339 (  -0.04456%)
MG Correction to account for finite box:                  0.460383
MG Remaining discrepancy, due to discretization:         -0.177956 (  -0.01242%)
     Trial step:       0.683399630287
             Q1:  -11621.287599879317
 Quadratic coef:       0.059577505930
 Linear coef   :      -0.113386432185
           Qmin:  -11621.287739514699
Quadratic minimum step length (  0.650314616438) accepted
    Initial Ne1:    7234.00056056
      Final Ne1:    7234.00000000

=================== Penalty functional idempotency correction ==================
 RMS occupancy error at iteration   1:  0.001622 (step -0.3963 Ne1=   7234.0000)
 RMS occupancy error at iteration   2:  0.000049 (step -0.4978 Ne1=   7234.0000)
            Final RMS occupancy error   :  0.000000 (Ne1=   7234.0000)
               Final occupancy bounds   : [ -0.0000,  1.0000]
================================================================================

    9        -1.162123379095E+04     6.1185E-05     5.5340E-05    -9.9226E-02
MG BCs: +ve charge blocks (gridpoints):     31244 (   17389818).
MG BCs: -ve charge blocks (gridpoints):      8349 (    1117706).
MG BCs:     Elided blocks (gridpoints):    183983 (  192196021).
MG BCs: Computational effort saved:  99.9812%.
MG BCs: Charge after coarse-graining:           -9.0010414.
MG DL_MG: Calling solver with defect correction order = 8
MG DL_MG: Solver finished
MG Hartree energy from (\int phi*rho dr):              1432.461610
MG Hartree energy from (\int eps (grad phi)^2 dr):     1431.823273
MG Discrepancy due to finite box and discretization:     -0.638338 (  -0.04456%)
MG Correction to account for finite box:                  0.460383
MG Remaining discrepancy, due to discretization:         -0.177954 (  -0.01242%)
      ideal mu1:      -0.774268971450
   10        -1.162129041393E+04     4.2972E-05     3.8867E-05    -5.6623E-02
Finished density kernel iterations (  10)

Writing density kernel to file "complex_18721.vacuum_dkn" ... done


>>> Density kernel optimised for the current NGWF basis:
     ~~~~~~~~~~~~~~~~~~~~~~~~~~~~~~~~~~~~~~~~~~~~~~~~~~~~~~~~~~~
     Total energy                =  -1.16212904139252E+04  Eh
     Estimated bandgap           =  -3.1763E-01  Eh
     RMS occupancy error         =   1.2109E-07
     [H,K] commutator            =   3.8867E-05
     Occupancy bounds            = [ -0.000:  1.000]
     ~~~~~~~~~~~~~~~~~~~~~~~~~~~~~~~~~~~~~~~~~~~~~~~~~~~~~~~~~~~




################################################################################
########################### NGWF CG iteration  001 #############################
################################################################################
****** Reciprocal space K.E. preconditioning with k_zero =  3.5000 a0^-1 *******

>>> Checking for convergence of NGWFs:   NOT CONVERGED
  ========================================================================
         NGWF RMS gradient =  1.5763E-03 >  2.0000E-06  | above tolerance
  ========================================================================

>>> Improving NGWFs using line search:
============ Calculation of NGWF S^-1 using Hotelling algorithm ================ 
         Iteration  |  Frobenius norm and Maximum abs value    (of I-S*S_n^-1)   
               1       0.19552303E+00     0.49218866E-02
               2       0.87683179E-03     0.38079667E-04
               3       0.29665158E-07     0.23756103E-08
               4       0.12704114E-12     0.71054274E-14
================================================================================
MG BCs: +ve charge blocks (gridpoints):     30633 (   17329077).
MG BCs: -ve charge blocks (gridpoints):      8371 (    1117510).
MG BCs:     Elided blocks (gridpoints):    184594 (  192256958).
MG BCs: Computational effort saved:  99.9815%.
MG BCs: Charge after coarse-graining:           -9.0010360.
MG DL_MG: Calling solver with defect correction order = 8
MG DL_MG: Solver finished
MG Hartree energy from (\int phi*rho dr):              1400.529865
MG Hartree energy from (\int eps (grad phi)^2 dr):     1399.892301
MG Discrepancy due to finite box and discretization:     -0.637564 (  -0.04552%)
MG Correction to account for finite box:                  0.460319
MG Remaining discrepancy, due to discretization:         -0.177245 (  -0.01266%)
============ Calculation of NGWF S^-1 using Hotelling algorithm ================ 
         Iteration  |  Frobenius norm and Maximum abs value    (of I-S*S_n^-1)   
               1       0.18823332E+01     0.40179726E-01
               2       0.73358314E-01     0.23232578E-02
               3       0.14827441E-03     0.90389782E-05
               4       0.10993655E-08     0.14307133E-09
               5       0.11013325E-12     0.51070259E-14
================================================================================
------------------------------- NGWF line search -------------------------------
RMS gradient                =       0.00157633474167
Trial step length           =               0.122474
Gradient along search dir.  =       -276.12689889529
Functional at step 0        =  -11621.29041392519139
Functional at step 1        =  -11652.56674371787813
Functional predicted        =  -11733.76231035470846
Selected quadratic step     =               0.814639
--------------------------- NGWF line search finished --------------------------
                                               
Writing NGWFs to file "complex_18721.vacuum_tightbox_ngwfs"....  done

>>> Optimising kernel for current NGWFs:
   Initial electron number for spin 1:    7269.65842625
     Final electron number for spin 1:    7234.00000000

=================== Penalty functional idempotency correction ==================
 RMS occupancy error at iteration   1:  0.004273 (step -0.4863 Ne1=   7234.0000)
 RMS occupancy error at iteration   2:  0.000068 (step -0.5003 Ne1=   7234.0000)
            Final RMS occupancy error   :  0.000000 (Ne1=   7234.0000)
               Final occupancy bounds   : [  0.0000,  1.0000]
================================================================================

................................................................................
<<<<<<<<<<<<<< LNV (Original version) density kernel optimisation >>>>>>>>>>>>>>
~~~~~~~~~~~~~~~~~~~~~~~~~~~~~~~~~~~~~~~~~~~~~~~~~~~~~~~~~~~~~~~~~~~~~~~~~~~~~~~~
   iter  |      energy (Eh)       | rms gradient |  commutator  |   dE (Eh)
MG BCs: +ve charge blocks (gridpoints):     24800 (   17086369).
MG BCs: -ve charge blocks (gridpoints):      8532 (    1098518).
MG BCs:     Elided blocks (gridpoints):    190432 (  192518658).
MG BCs: Computational effort saved:  99.9842%.
MG BCs: Charge after coarse-graining:           -9.0006733.
MG DL_MG: Calling solver with defect correction order = 8
MG DL_MG: Solver finished
MG Hartree energy from (\int phi*rho dr):              1243.259013
MG Hartree energy from (\int eps (grad phi)^2 dr):     1242.621478
MG Discrepancy due to finite box and discretization:     -0.637534 (  -0.05128%)
MG Correction to account for finite box:                  0.460011
MG Remaining discrepancy, due to discretization:         -0.177523 (  -0.01428%)
      ideal mu1:      -0.714760792543
             Q0:  -11732.779802264762
             G0:     -10.152259907114
   RMS gradient:       0.000486972508
MG BCs: +ve charge blocks (gridpoints):     24865 (   17107818).
MG BCs: -ve charge blocks (gridpoints):      8511 (    1092653).
MG BCs:     Elided blocks (gridpoints):    190367 (  192503074).
MG BCs: Computational effort saved:  99.9842%.
MG BCs: Charge after coarse-graining:           -9.0006681.
MG DL_MG: Calling solver with defect correction order = 8
MG DL_MG: Solver finished
MG Hartree energy from (\int phi*rho dr):              1261.689055
MG Hartree energy from (\int eps (grad phi)^2 dr):     1261.046911
MG Discrepancy due to finite box and discretization:     -0.642144 (  -0.05090%)
MG Correction to account for finite box:                  0.459306
MG Remaining discrepancy, due to discretization:         -0.182838 (  -0.01449%)
     Trial step:       0.666651909503
             Q1:  -11732.714430402615
 Quadratic coef:       6.833395314996
 Linear coef   :      -6.768023452849
           Qmin:  -11734.455621507861
Quadratic minimum step length (  0.330137182939) accepted
    Initial Ne1:    7233.99961257
      Final Ne1:    7234.00000000

=================== Penalty functional idempotency correction ==================
 RMS occupancy error at iteration   1:  0.000362 (step -0.4986 Ne1=   7234.0000)
 RMS occupancy error at iteration   2:  0.000000 (step -0.5000 Ne1=   7234.0000)
            Final RMS occupancy error   :  0.000000 (Ne1=   7234.0000)
               Final occupancy bounds   : [  0.0000,  1.0000]
================================================================================

    1        -1.173277980226E+04     4.8697E-04     4.4046E-04
MG BCs: +ve charge blocks (gridpoints):     24838 (   17097173).
MG BCs: -ve charge blocks (gridpoints):      8521 (    1095527).
MG BCs:     Elided blocks (gridpoints):    190394 (  192510845).
MG BCs: Computational effort saved:  99.9842%.
MG BCs: Charge after coarse-graining:           -9.0006707.
MG DL_MG: Calling solver with defect correction order = 8
MG DL_MG: Solver finished
MG Hartree energy from (\int phi*rho dr):              1251.531472
MG Hartree energy from (\int eps (grad phi)^2 dr):     1250.891744
MG Discrepancy due to finite box and discretization:     -0.639729 (  -0.05112%)
MG Correction to account for finite box:                  0.459641
MG Remaining discrepancy, due to discretization:         -0.180088 (  -0.01439%)
      ideal mu1:      -0.721833301429
             Q0:  -11734.433246939909
             G0:      -1.006636259453
   RMS gradient:       0.000153814769
MG BCs: +ve charge blocks (gridpoints):     24841 (   17097953).
MG BCs: -ve charge blocks (gridpoints):      8523 (    1095849).
MG BCs:     Elided blocks (gridpoints):    190391 (  192509743).
MG BCs: Computational effort saved:  99.9842%.
MG BCs: Charge after coarse-graining:           -9.0006704.
MG DL_MG: Calling solver with defect correction order = 8
MG DL_MG: Solver finished
MG Hartree energy from (\int phi*rho dr):              1253.189969
MG Hartree energy from (\int eps (grad phi)^2 dr):     1252.550037
MG Discrepancy due to finite box and discretization:     -0.639933 (  -0.05106%)
MG Correction to account for finite box:                  0.459555
MG Remaining discrepancy, due to discretization:         -0.180378 (  -0.01439%)
     Trial step:       0.469133865122
             Q1:  -11734.647736901534
 Quadratic coef:       0.257757197543
 Linear coef   :      -0.472247159169
           Qmin:  -11734.649552615821
Quadratic minimum step length (  0.429759357227) accepted
    Initial Ne1:    7233.99994967
      Final Ne1:    7234.00000000

=================== Penalty functional idempotency correction ==================
 RMS occupancy error at iteration   1:  0.000149 (step -0.4993 Ne1=   7234.0000)
 RMS occupancy error at iteration   2:  0.000000 (step -0.5000 Ne1=   7234.0000)
            Final RMS occupancy error   :  0.000000 (Ne1=   7234.0000)
               Final occupancy bounds   : [  0.0000,  1.0000]
================================================================================

    2        -1.173443324694E+04     1.5381E-04     1.3912E-04    -1.6534E+00
MG BCs: +ve charge blocks (gridpoints):     24840 (   17097840).
MG BCs: -ve charge blocks (gridpoints):      8522 (    1095856).
MG BCs:     Elided blocks (gridpoints):    190392 (  192509849).
MG BCs: Computational effort saved:  99.9842%.
MG BCs: Charge after coarse-graining:           -9.0006704.
MG DL_MG: Calling solver with defect correction order = 8
MG DL_MG: Solver finished
MG Hartree energy from (\int phi*rho dr):              1253.050704
MG Hartree energy from (\int eps (grad phi)^2 dr):     1252.410790
MG Discrepancy due to finite box and discretization:     -0.639915 (  -0.05107%)
MG Correction to account for finite box:                  0.459562
MG Remaining discrepancy, due to discretization:         -0.180353 (  -0.01439%)
      ideal mu1:      -0.723200565422
             Q0:  -11734.649996310123
             G0:      -0.175505320071
   RMS gradient:       0.000063964234
MG BCs: +ve charge blocks (gridpoints):     24836 (   17097102).
MG BCs: -ve charge blocks (gridpoints):      8523 (    1096248).
MG BCs:     Elided blocks (gridpoints):    190396 (  192510195).
MG BCs: Computational effort saved:  99.9842%.
MG BCs: Charge after coarse-graining:           -9.0006705.
MG DL_MG: Calling solver with defect correction order = 8
MG DL_MG: Solver finished
MG Hartree energy from (\int phi*rho dr):              1252.527686
MG Hartree energy from (\int eps (grad phi)^2 dr):     1251.887884
MG Discrepancy due to finite box and discretization:     -0.639802 (  -0.05108%)
MG Correction to account for finite box:                  0.459472
MG Remaining discrepancy, due to discretization:         -0.180330 (  -0.01440%)
     Trial step:       0.449015220598
             Q1:  -11734.705412326497
 Quadratic coef:       0.023388543634
 Linear coef   :      -0.078804560008
           Qmin:  -11734.716376658289
Quadratic minimum step length (  0.756448273352) accepted
    Initial Ne1:    7233.99998468
      Final Ne1:    7234.00000000

=================== Penalty functional idempotency correction ==================
 RMS occupancy error at iteration   1:  0.000164 (step -0.4914 Ne1=   7234.0000)
 RMS occupancy error at iteration   2:  0.000002 (step -0.5000 Ne1=   7234.0000)
            Final RMS occupancy error   :  0.000000 (Ne1=   7234.0000)
               Final occupancy bounds   : [  0.0000,  1.0000]
================================================================================

    3        -1.173464999631E+04     6.3964E-05     5.7854E-05    -2.1675E-01
MG BCs: +ve charge blocks (gridpoints):     24836 (   17096609).
MG BCs: -ve charge blocks (gridpoints):      8521 (    1096506).
MG BCs:     Elided blocks (gridpoints):    190396 (  192510430).
MG BCs: Computational effort saved:  99.9842%.
MG BCs: Charge after coarse-graining:           -9.0006705.
MG DL_MG: Calling solver with defect correction order = 8
MG DL_MG: Solver finished
MG Hartree energy from (\int phi*rho dr):              1252.168978
MG Hartree energy from (\int eps (grad phi)^2 dr):     1251.529255
MG Discrepancy due to finite box and discretization:     -0.639723 (  -0.05109%)
MG Correction to account for finite box:                  0.459407
MG Remaining discrepancy, due to discretization:         -0.180316 (  -0.01440%)
      ideal mu1:      -0.722345585206
             Q0:  -11734.716411070665
             G0:      -0.073143408708
   RMS gradient:       0.000041306336
MG BCs: +ve charge blocks (gridpoints):     24836 (   17096593).
MG BCs: -ve charge blocks (gridpoints):      8520 (    1096568).
MG BCs:     Elided blocks (gridpoints):    190396 (  192510384).
MG BCs: Computational effort saved:  99.9842%.
MG BCs: Charge after coarse-graining:           -9.0006705.
MG DL_MG: Calling solver with defect correction order = 8
MG DL_MG: Solver finished
MG Hartree energy from (\int phi*rho dr):              1252.209921
MG Hartree energy from (\int eps (grad phi)^2 dr):     1251.570468
MG Discrepancy due to finite box and discretization:     -0.639453 (  -0.05107%)
MG Correction to account for finite box:                  0.459267
MG Remaining discrepancy, due to discretization:         -0.180186 (  -0.01439%)
     Trial step:       0.582800813598
             Q1:  -11734.745499307290
 Quadratic coef:       0.013539801481
 Linear coef   :      -0.042628038104
           Qmin:  -11734.749963069844
Quadratic minimum step length (  0.917430559244) accepted
    Initial Ne1:    7233.99999183
      Final Ne1:    7234.00000000

=================== Penalty functional idempotency correction ==================
 RMS occupancy error at iteration   1:  0.000467 (step -0.4647 Ne1=   7234.0000)
 RMS occupancy error at iteration   2:  0.000006 (step -0.4999 Ne1=   7234.0000)
            Final RMS occupancy error   :  0.000000 (Ne1=   7234.0000)
               Final occupancy bounds   : [ -0.0000,  1.0000]
================================================================================

    4        -1.173471641107E+04     4.1306E-05     3.7361E-05    -6.6415E-02
MG BCs: +ve charge blocks (gridpoints):     24834 (   17096602).
MG BCs: -ve charge blocks (gridpoints):      8523 (    1096570).
MG BCs:     Elided blocks (gridpoints):    190398 (  192510373).
MG BCs: Computational effort saved:  99.9842%.
MG BCs: Charge after coarse-graining:           -9.0006705.
MG DL_MG: Calling solver with defect correction order = 8
MG DL_MG: Solver finished
MG Hartree energy from (\int phi*rho dr):              1252.235198
MG Hartree energy from (\int eps (grad phi)^2 dr):     1251.595907
MG Discrepancy due to finite box and discretization:     -0.639291 (  -0.05105%)
MG Correction to account for finite box:                  0.459179
MG Remaining discrepancy, due to discretization:         -0.180112 (  -0.01438%)
      ideal mu1:      -0.723189957424
             Q0:  -11734.749175163917
             G0:      -0.118148955186
   RMS gradient:       0.000053182305
MG BCs: +ve charge blocks (gridpoints):     24831 (   17098116).
MG BCs: -ve charge blocks (gridpoints):      8521 (    1096051).
MG BCs:     Elided blocks (gridpoints):    190401 (  192509378).
MG BCs: Computational effort saved:  99.9842%.
MG BCs: Charge after coarse-graining:           -9.0006702.
MG DL_MG: Calling solver with defect correction order = 8
MG DL_MG: Solver finished
MG Hartree energy from (\int phi*rho dr):              1253.271176
MG Hartree energy from (\int eps (grad phi)^2 dr):     1252.632639
MG Discrepancy due to finite box and discretization:     -0.638536 (  -0.05095%)
MG Correction to account for finite box:                  0.458562
MG Remaining discrepancy, due to discretization:         -0.179975 (  -0.01436%)
     Trial step:       0.731217666873
             Q1:  -11734.807925484492
 Quadratic coef:       0.027642282779
 Linear coef   :      -0.086392603354
           Qmin:  -11734.816677565708
Quadratic minimum step length (  1.142666080881) accepted
    Initial Ne1:    7234.00000023
      Final Ne1:    7234.00000000

=================== Penalty functional idempotency correction ==================
 RMS occupancy error at iteration   1:  0.004869 (step -0.2812 Ne1=   7234.0000)
 RMS occupancy error at iteration   2:  0.000156 (step -0.4949 Ne1=   7234.0000)
 RMS occupancy error at iteration   3:  0.000001 (step -0.5000 Ne1=   7234.0000)
            Final RMS occupancy error   :  0.000000 (Ne1=   7234.0000)
               Final occupancy bounds   : [  0.0000,  1.0000]
================================================================================

    5        -1.173474917516E+04     5.3182E-05     4.8102E-05    -3.2764E-02
MG BCs: +ve charge blocks (gridpoints):     24831 (   17099028).
MG BCs: -ve charge blocks (gridpoints):      8519 (    1095729).
MG BCs:     Elided blocks (gridpoints):    190401 (  192508788).
MG BCs: Computational effort saved:  99.9842%.
MG BCs: Charge after coarse-graining:           -9.0006700.
MG DL_MG: Calling solver with defect correction order = 8
MG DL_MG: Solver finished
MG Hartree energy from (\int phi*rho dr):              1253.864270
MG Hartree energy from (\int eps (grad phi)^2 dr):     1253.226007
MG Discrepancy due to finite box and discretization:     -0.638263 (  -0.05090%)
MG Correction to account for finite box:                  0.458370
MG Remaining discrepancy, due to discretization:         -0.179893 (  -0.01435%)
      ideal mu1:      -0.727048423513
             Q0:  -11734.799453849904
             G0:      -0.217247439168
   RMS gradient:       0.000077742198
========================= Kernel Line Step Protection ==========================
|  Iter |  Trial Step |   RMS Occupancy Error |   Occupancy Bounds | Accepted? |
    0        0.000000                0.000000    [ 1.0000:  0.0000]
    1        0.914077                0.022400    [ 1.7313: -0.7418]        No
    2        0.457039                0.008005    [ 1.3386: -0.3429]       Yes
================================================================================
MG BCs: +ve charge blocks (gridpoints):     24831 (   17099468).
MG BCs: -ve charge blocks (gridpoints):      8514 (    1095714).
MG BCs:     Elided blocks (gridpoints):    190401 (  192508363).
MG BCs: Computational effort saved:  99.9842%.
MG BCs: Charge after coarse-graining:           -9.0006699.
MG DL_MG: Calling solver with defect correction order = 8
MG DL_MG: Solver finished
MG Hartree energy from (\int phi*rho dr):              1254.129421
MG Hartree energy from (\int eps (grad phi)^2 dr):     1253.491626
MG Discrepancy due to finite box and discretization:     -0.637794 (  -0.05086%)
MG Correction to account for finite box:                  0.457895
MG Remaining discrepancy, due to discretization:         -0.179899 (  -0.01434%)
     Trial step:       0.457038736235
             Q1:  -11734.786572249257
 Quadratic coef:       0.112172095694
 Linear coef   :      -0.099290495047
           Qmin:  -11734.821425897288
Quadratic minimum step length (  0.202276698566) accepted
    Initial Ne1:    7234.00000003
      Final Ne1:    7234.00000000

=================== Penalty functional idempotency correction ==================
 RMS occupancy error at iteration   1:  0.002757 (step -0.3448 Ne1=   7234.0000)
 RMS occupancy error at iteration   2:  0.000064 (step -0.4974 Ne1=   7234.0000)
 RMS occupancy error at iteration   3:  0.000000 (step -0.5000 Ne1=   7234.0000)
            Final RMS occupancy error   :  0.000000 (Ne1=   7234.0000)
               Final occupancy bounds   : [  0.0000,  1.0000]
================================================================================

    6        -1.173479945385E+04     7.7742E-05     7.0316E-05    -5.0279E-02
MG BCs: +ve charge blocks (gridpoints):     24830 (   17099224).
MG BCs: -ve charge blocks (gridpoints):      8516 (    1095714).
MG BCs:     Elided blocks (gridpoints):    190402 (  192508607).
MG BCs: Computational effort saved:  99.9842%.
MG BCs: Charge after coarse-graining:           -9.0006700.
MG DL_MG: Calling solver with defect correction order = 8
MG DL_MG: Solver finished
MG Hartree energy from (\int phi*rho dr):              1253.961136
MG Hartree energy from (\int eps (grad phi)^2 dr):     1253.323208
MG Discrepancy due to finite box and discretization:     -0.637928 (  -0.05087%)
MG Correction to account for finite box:                  0.458041
MG Remaining discrepancy, due to discretization:         -0.179887 (  -0.01435%)
      ideal mu1:      -0.728067129627
             Q0:  -11734.828684163745
             G0:      -0.268410402323
   RMS gradient:       0.000079181323
MG BCs: +ve charge blocks (gridpoints):     24833 (   17097950).
MG BCs: -ve charge blocks (gridpoints):      8522 (    1096195).
MG BCs:     Elided blocks (gridpoints):    190399 (  192509400).
MG BCs: Computational effort saved:  99.9842%.
MG BCs: Charge after coarse-graining:           -9.0006702.
MG DL_MG: Calling solver with defect correction order = 8
MG DL_MG: Solver finished
MG Hartree energy from (\int phi*rho dr):              1253.074115
MG Hartree energy from (\int eps (grad phi)^2 dr):     1252.436206
MG Discrepancy due to finite box and discretization:     -0.637910 (  -0.05091%)
MG Correction to account for finite box:                  0.457913
MG Remaining discrepancy, due to discretization:         -0.179997 (  -0.01436%)
     Trial step:       0.304053098459
             Q1:  -11734.896437240881
 Quadratic coef:       0.013857937349
 Linear coef   :      -0.081611014485
           Qmin:  -11734.948838367030
Quadratic minimum step length (  0.895302136165) accepted
    Initial Ne1:    7233.99999999
      Final Ne1:    7234.00000000

=================== Penalty functional idempotency correction ==================
 RMS occupancy error at iteration   1:  0.000565 (step -0.4566 Ne1=   7234.0000)
 RMS occupancy error at iteration   2:  0.000004 (step -0.5000 Ne1=   7234.0000)
            Final RMS occupancy error   :  0.000000 (Ne1=   7234.0000)
               Final occupancy bounds   : [  0.0000,  1.0000]
================================================================================

    7        -1.173482868416E+04     7.9181E-05     7.1618E-05    -2.9230E-02
MG BCs: +ve charge blocks (gridpoints):     24833 (   17095590).
MG BCs: -ve charge blocks (gridpoints):      8525 (    1097090).
MG BCs:     Elided blocks (gridpoints):    190399 (  192510865).
MG BCs: Computational effort saved:  99.9842%.
MG BCs: Charge after coarse-graining:           -9.0006707.
MG DL_MG: Calling solver with defect correction order = 8
MG DL_MG: Solver finished
MG Hartree energy from (\int phi*rho dr):              1251.367850
MG Hartree energy from (\int eps (grad phi)^2 dr):     1250.729965
MG Discrepancy due to finite box and discretization:     -0.637886 (  -0.05098%)
MG Correction to account for finite box:                  0.457675
MG Remaining discrepancy, due to discretization:         -0.180211 (  -0.01440%)
      ideal mu1:      -0.726811484000
             Q0:  -11734.945778087014
             G0:      -0.269993973059
   RMS gradient:       0.000080485602
MG BCs: +ve charge blocks (gridpoints):     24837 (   17095714).
[...]
MG Hartree energy from (\int phi*rho dr):              1209.391441
MG Hartree energy from (\int eps (grad phi)^2 dr):     1209.205576
MG Discrepancy due to finite box and discretization:     -0.185865 (  -0.01537%)
MG Correction to account for finite box:                  0.006250
MG Remaining discrepancy, due to discretization:         -0.179615 (  -0.01485%)
             Q2:  -11768.809726708336
  Cubic LS coeff:       0.957432373723
Predicted energy:  -11768.809726708323
Cubic minimum step length accepted
    Initial Ne1:    7234.00000000
      Final Ne1:    7234.00000000

=================== Penalty functional idempotency correction ==================
 RMS occupancy error at iteration   1:  0.000000 (step -0.5000 Ne1=   7234.0000)
            Final RMS occupancy error   :  0.000000 (Ne1=   7234.0000)
               Final occupancy bounds   : [  0.0000,  1.0000]
================================================================================

    7        -1.176880972670E+04     8.8843E-09     8.0357E-09    -2.2119E-09

Reusing previously generated solute cavity.
MG BCs: +ve charge blocks (gridpoints):     28663 (   19236175).
MG BCs: -ve charge blocks (gridpoints):      8519 (    1064993).
MG BCs:     Elided blocks (gridpoints):    186569 (  190402377).
MG BCs: Computational effort saved:  99.9824%.
MG BCs: Charge after coarse-graining:           -9.0009774.
MG DL_MG: Calling solver with defect correction order = 8
MG DL_MG: Solver finished
MG Hartree energy from (\int phi*rho dr):              1209.391441
MG Hartree energy from (\int eps (grad phi)^2 dr):     1209.205576
MG Discrepancy due to finite box and discretization:     -0.185865 (  -0.01537%)
MG Correction to account for finite box:                  0.006250
MG Remaining discrepancy, due to discretization:         -0.179615 (  -0.01485%)
      ideal mu1:      -0.484355086887
             Q0:  -11768.809726708336
             G0:      -0.000000004184
   RMS gradient:       0.000000009397

Reusing previously generated solute cavity.
MG BCs: +ve charge blocks (gridpoints):     28663 (   19236174).
MG BCs: -ve charge blocks (gridpoints):      8519 (    1064993).
MG BCs:     Elided blocks (gridpoints):    186569 (  190402378).
MG BCs: Computational effort saved:  99.9824%.
MG BCs: Charge after coarse-graining:           -9.0009774.
MG DL_MG: Calling solver with defect correction order = 8
MG DL_MG: Solver finished
MG Hartree energy from (\int phi*rho dr):              1209.391412
MG Hartree energy from (\int eps (grad phi)^2 dr):     1209.205547
MG Discrepancy due to finite box and discretization:     -0.185865 (  -0.01537%)
MG Correction to account for finite box:                  0.006250
MG Remaining discrepancy, due to discretization:         -0.179615 (  -0.01485%)
     Trial step:       0.669039183878
             Q1:  -11768.809726709733
 Quadratic coef:       0.000000001402
 Linear coef   :      -0.000000002799
           Qmin:  -11768.809726709733
Quadratic minimum step length (  0.667632934873) accepted
    Initial Ne1:    7234.00000000
      Final Ne1:    7234.00000000

=================== Penalty functional idempotency correction ==================
 RMS occupancy error at iteration   1:  0.000000 (step -0.5000 Ne1=   7234.0000)
            Final RMS occupancy error   :  0.000000 (Ne1=   7234.0000)
               Final occupancy bounds   : [  0.0000,  1.0000]
================================================================================

    8        -1.176880972671E+04     9.3972E-09     8.4996E-09    -3.4925E-09

Reusing previously generated solute cavity.
MG BCs: +ve charge blocks (gridpoints):     28663 (   19236174).
MG BCs: -ve charge blocks (gridpoints):      8519 (    1064993).
MG BCs:     Elided blocks (gridpoints):    186569 (  190402378).
MG BCs: Computational effort saved:  99.9824%.
MG BCs: Charge after coarse-graining:           -9.0009774.
MG DL_MG: Calling solver with defect correction order = 8
MG DL_MG: Solver finished
MG Hartree energy from (\int phi*rho dr):              1209.391412
MG Hartree energy from (\int eps (grad phi)^2 dr):     1209.205547
MG Discrepancy due to finite box and discretization:     -0.185865 (  -0.01537%)
MG Correction to account for finite box:                  0.006250
MG Remaining discrepancy, due to discretization:         -0.179615 (  -0.01485%)
      ideal mu1:      -0.484355053260
             Q0:  -11768.809726709616
             G0:      -0.000000001837
   RMS gradient:       0.000000005453

Reusing previously generated solute cavity.
MG BCs: +ve charge blocks (gridpoints):     28663 (   19236175).
MG BCs: -ve charge blocks (gridpoints):      8519 (    1064993).
MG BCs:     Elided blocks (gridpoints):    186569 (  190402377).
MG BCs: Computational effort saved:  99.9824%.
MG BCs: Charge after coarse-graining:           -9.0009774.
MG DL_MG: Calling solver with defect correction order = 8
MG DL_MG: Solver finished
MG Hartree energy from (\int phi*rho dr):              1209.391415
MG Hartree energy from (\int eps (grad phi)^2 dr):     1209.205551
MG Discrepancy due to finite box and discretization:     -0.185865 (  -0.01537%)
MG Correction to account for finite box:                  0.006250
MG Remaining discrepancy, due to discretization:         -0.179615 (  -0.01485%)
     Trial step:       0.668335689514
             Q1:  -11768.809726710082
 Quadratic coef:       0.000000000762
 Linear coef   :      -0.000000001228
           Qmin:  -11768.809726710111
Quadratic minimum step length (  0.538224952265) accepted
    Initial Ne1:    7234.00000000
      Final Ne1:    7234.00000000

=================== Penalty functional idempotency correction ==================
 RMS occupancy error at iteration   1:  0.000000 (step -0.5000 Ne1=   7234.0000)
            Final RMS occupancy error   :  0.000000 (Ne1=   7234.0000)
               Final occupancy bounds   : [  0.0000,  1.0000]
================================================================================

    9        -1.176880972671E+04     5.4533E-09     4.9324E-09    -1.2806E-09

Reusing previously generated solute cavity.
MG BCs: +ve charge blocks (gridpoints):     28663 (   19236175).
MG BCs: -ve charge blocks (gridpoints):      8519 (    1064993).
MG BCs:     Elided blocks (gridpoints):    186569 (  190402377).
MG BCs: Computational effort saved:  99.9824%.
MG BCs: Charge after coarse-graining:           -9.0009774.
MG DL_MG: Calling solver with defect correction order = 8
MG DL_MG: Solver finished
MG Hartree energy from (\int phi*rho dr):              1209.391415
MG Hartree energy from (\int eps (grad phi)^2 dr):     1209.205550
MG Discrepancy due to finite box and discretization:     -0.185865 (  -0.01537%)
MG Correction to account for finite box:                  0.006250
MG Remaining discrepancy, due to discretization:         -0.179615 (  -0.01485%)
      ideal mu1:      -0.484355058784
   10        -1.176880972671E+04     3.7314E-09     3.3750E-09    -3.4925E-10
Finished density kernel iterations (  10)

Writing density kernel to file "complex_18721.dkn" ... done


>>> Density kernel optimised for the current NGWF basis:
     ~~~~~~~~~~~~~~~~~~~~~~~~~~~~~~~~~~~~~~~~~~~~~~~~~~~~~~~~~~~
     Total energy                =  -1.17688097267100E+04  Eh
     Estimated bandgap           =   8.6695E-02  Eh
     RMS occupancy error         =   3.0523E-16
     [H,K] commutator            =   3.3750E-09
     Occupancy bounds            = [  0.000:  1.000]
     ~~~~~~~~~~~~~~~~~~~~~~~~~~~~~~~~~~~~~~~~~~~~~~~~~~~~~~~~~~~




################################################################################
########################### NGWF CG iteration  004 #############################
################################################################################
****** Reciprocal space K.E. preconditioning with k_zero =  3.5000 a0^-1 *******

>>> Checking for convergence of NGWFs: 
           ........................................................
           |         *** NGWF optimisation converged ***          |
           | RMS NGWF gradient =    0.00000184807182              |
           | Criteria satisfied:                                  |
           | -> RMS NGWF gradient lower than set threshold.       |
           ========================================================

Reusing previously generated solute cavity.
MG BCs: +ve charge blocks (gridpoints):     28663 (   19236175).
MG BCs: -ve charge blocks (gridpoints):      8519 (    1064993).
MG BCs:     Elided blocks (gridpoints):    186569 (  190402377).
MG BCs: Computational effort saved:  99.9824%.
MG BCs: Charge after coarse-graining:           -9.0009774.
MG DL_MG: Calling solver with defect correction order = 8
MG DL_MG: Solver finished
MG Hartree energy from (\int phi*rho dr):              1209.391415
MG Hartree energy from (\int eps (grad phi)^2 dr):     1209.205550
MG Discrepancy due to finite box and discretization:     -0.185865 (  -0.01537%)
MG Correction to account for finite box:                  0.006250
MG Remaining discrepancy, due to discretization:         -0.179615 (  -0.01485%)

================================================================================
           ---------------- ENERGY COMPONENTS (Eh) ----------------
           | Kinetic                    :     8612.97668134954074 |
           | Pseudo. (local,OBC,corr'd) :    -5106.13514593971922 |
           | Pseudopotential (non-local):     1412.19571606508725 |
           | Hartree (molecular)        :     1209.39141454861783 |
           | Exchange-correlation       :    -3402.28083580637394 |
           | Ion-ion (open BC)          :   838367.10228718747385 |
           | Smeared ion non-self corr. :  -838318.75839383213315 |
           | Smeared ion self corr.     :   -14543.93950988473262 |
           | Solvent cavitation energy  :        2.27006885057730 |
           | Solute-solvent dis-rep en. :       -1.63200924840129 |
           | Total                      :   -11768.80972671002564 |
           --------------------------------------------------------
           ------ LOCAL ENERGY COMPONENTS FROM MATRIX TRACES ------
           | Pseudopotential (local)    :    -5106.13514593973105 |
           | Hartree                    :    -2010.17119156051081 |
           --------------------------------------------------------
           Integrated density           :     7233.99999999883494
           Integrated density tr(KS)    :     7234.00000000000000
================================================================================


                        <<<<< CALCULATION SUMMARY >>>>>                         
|ITER|    RMS GRADIENT   |     TOTAL ENERGY    |   step   |     Epredicted              
   0     0.00004019904038 -11768.74417839373928   0.632447 -11768.80096387358026        
   1     0.00000919337984 -11768.80929240514524   0.076962 -11768.80965382431896        
   2     0.00000410412664 -11768.80971127736848   0.014494 -11768.80972484171252        
   3     0.00000184807182 -11768.80972670996562  <-- CG                                 

=================== Finished the calculation in solvent ========================
= Adjusting the following parameters: 
= read_denskern: F
= read_tightbox_ngwfs: F
= maxit_pen: 0 (restored to user-specified value)
= restart read filename prefix: ""
= restart write filename prefix: ""
================================================================================

================================================================================
IS: Calculation in solvent completed (NGWFs converged).      

Individual components of total energy in solvent:     hartree           kcal/mol
- Usual non-electrostatic DFT terms:    -12978.83920086075887    -8144344.384189
- Electrostatic fixed charge energy:      1209.39141454861783      758904.554015
- Apolar cavitation energy:                  2.27006885057730        1424.489680
- Apolar dispersion-repulsion energy:       -1.63200924840129       -1024.101243
 -------------------------------------------------------------------------------
- Total energy in solvent:              -11768.80972670996562    -7385039.441737

Components of total energy in solvent:                hartree           kcal/mol
- Usual non-electrostatic DFT terms:    -12978.83920086075887    -8144344.384189
- Electrostatic energy:                   1209.39141454861783      758904.554015
- Apolar energy terms:                       0.63805960217601         400.388437
 -------------------------------------------------------------------------------
- Total energy in solvent:              -11768.80972670996562    -7385039.441737

Calculation of free energy of solvation:              hartree           kcal/mol
- Total energy in solvent:         (+)  -11768.80972670996562    -7385039.441737
- Total energy in vacuum:          (-)  -11764.92011523281690    -7382598.673738
 -------------------------------------------------------------------------------
- Total free energy of solvation:           -3.88961147714872       -2440.767999

Components of polar term in f.e. of solvation:        hartree           kcal/mol
- Electrostatic:                            -4.53660091689198       -2846.759994
- Change in nonelectrostatic DFT terms:      0.00892983756785           5.603558
 -------------------------------------------------------------------------------
- Polar term in f.e. of solvation:          -4.52767107932414       -2841.156436

Components of free energy of solvation:               hartree           kcal/mol
- Polar term in f.e. of solvation: (+)      -4.52767107932414       -2841.156436
- Apolar (cavitation, dis., rep.): (+)       0.63805960217601         400.388437
 -------------------------------------------------------------------------------
- Total free energy of solvation:           -3.88961147714812       -2440.767999
================================================================================


------------------------------ TIMING INFORMATION ------------------------------
AVERAGE TIME:   41216.882s on     60 node(s)                                    
TOTAL TIME:     41216.883s on     60 node(s)                                    
================= AVERAGE TIMINGS FROM ALL NODES (CUMULATIVE) ==================
|| TAG                                    #calls    cpu time   %total  Gflops ||
|| work_imbalance                       :     1        0.00s   0.000%  ------ ||
|| sparse_set_to_garbage                :   206        0.03s   0.000%  ------ ||
|| parallel_prepare_fd_halos_request    :  2193        0.04s   0.000%  ------ ||
|| ngwfs_initialise_from_radial         :     1        0.11s   0.000%  ------ ||
|| parallel_prepare_fd_halos_alloc      :  2193        0.12s   0.000%  ------ ||
|| basis_extract_function_from_box      :  4034        0.17s   0.000%  ------ ||
|| parallel_prepare_fd_halos_satisfy    :  2193        0.70s   0.002%  ------ ||
|| pseudopotentials_nonlocal_mat        :    35        1.18s   0.003%  ------ ||
|| openbc_locps_radial                  :     1        3.14s   0.008%  ------ ||
|| density_init_guess_real              :     1        3.83s   0.009%  ------ ||
|| restart_kernel_read                  :     1        4.51s   0.011%  ------ ||
|| restart_ngwfs_tightbox_input         :     1        6.20s   0.015%  ------ ||
|| parallel_prepare_fd_halos_comms_imbal:  2193       12.73s   0.031%  ------ ||
|| sparse_init                          :     2       22.29s   0.054%  ------ ||
|| parallel_prepare_fd_halos_clear      :  2193       22.74s   0.055%  ------ ||
|| parallel_prepare_fd_halos_comms_wait :  2193       26.65s   0.065%  ------ ||
|| projectors_func_ovlp_box             :    35       32.99s   0.080%  ------ ||
|| palser_mano_kernel_optimise          :     1       33.12s   0.080%  ------ ||
|| projectors_init_fftbox_recip         :   161       33.35s   0.081%  ------ ||
|| function_ops_brappd_ketppd           :    35       36.48s   0.089%  ------ ||
|| basis_copy_function_to_box           : 65866       49.69s   0.121%  ------ ||
|| pseudo_make_structure_factor         :     2       54.43s   0.132%  ------ ||
|| ngwf_gradient_coeffs                 :    18       56.78s   0.138%  ------ ||
|| parallel_prepare_fd_halos            :  2193       63.00s   0.153%  ------ ||
|| fourier_apply_box_pair               :  5850       64.01s   0.155% 600.353 ||
|| sparse_embed_hotelling_invert_embed  :    35       85.37s   0.207%  ------ ||
|| restart_kernel_write                 :    19      109.34s   0.265%  ------ ||
|| finite_difference_derivative         :  2193      151.28s   0.367%  ------ ||
|| integrals_kinetic                    :    35      177.40s   0.430%  ------ ||
|| basis_dot_function_with_box          : 10.11M     191.68s   0.465%  ------ ||
|| sparse_trace                         :  6028      196.79s   0.477%  ------ ||
|| projectors_gradient_batch            :   126      200.60s   0.487%  ------ ||
|| openbc_locps_on_grid                 :     2      284.99s   0.691%  ------ ||
|| kernel_purify                        :   558      338.10s   0.820%  ------ ||
|| basis_add_function_to_box            : 21.15M     455.61s   1.105%  ------ ||
|| lnv_gradient_norm                    :   180      498.65s   1.210%  ------ ||
|| hamiltonian_energy_components        :     4      569.73s   1.382%  ------ ||
|| kernel_fix                           :   180      604.32s   1.466%  ------ ||
|| integrals_locpot_mat_els_batch       :  1323      812.63s   1.972%  ------ ||
|| ngwf_gradient_build_batch            :   126      942.74s   2.287%  ------ ||
|| restart_ngwfs_tightbox_output        :    16     1106.04s   2.683%  ------ ||
|| ngwf_gradient_batch                  :   126     1291.91s   3.134%  ------ ||
|| density_batch_row_sums               :  2548     1424.17s   3.455%  ------ ||
|| ngwf_gradient_lnv                    :    18     1463.43s   3.551%  ------ ||
|| cell_grid_deposit_box_real           : 42276     1566.46s   3.801%  ------ ||
|| fourier_apply_cell_forward           : 10221     1703.69s   4.133%  89.578 ||
|| fourier_apply_cell_backward          : 10953     1894.91s   4.597%  86.306 ||
|| sparse_product                       :  7502     2105.56s   5.108%  ------ ||
|| cell_grid_extract_box_real           : 46130     2379.23s   5.772%  ------ ||
|| density_fftbox_deposit_to_cell       : 40040     2507.70s   6.084%  ------ ||
|| density_fftbox_interpolate_multiply  : 40040     4553.97s  11.049%  ------ ||
|| potential_apply_to_ngwf_batch        :  1323     4570.77s  11.090%  ------ ||
|| xc_energy_potential                  :   365     4730.74s  11.478%  ------ ||
|| integrals_locpot_dbl_grid            :   189     5403.23s  13.109%  ------ ||
|| fourier_apply_box                    : 137.4k    5476.95s  13.288% 797.886 ||
|| multigrid_prepare_bound_cond         :   365     5783.65s  14.032%  ------ ||
|| nlxc_vdw_energy                      :   730     7739.52s  18.778%  ------ ||
|| density_batch_interp_deposit         :  2548     8190.08s  19.871%  ------ ||
|| dl_mg_solver_calls                   :   365     8523.06s  20.679%  ------ ||
|| density_on_dbl_grid                  :   364     9974.11s  24.199%  ------ ||
|| multigrid_calculate_hartree          :   365    14517.18s  35.221%  ------ ||
|| hamiltonian_lhxc_calculate           :   360    29142.64s  70.706%  ------ ||
|| lnv_denskernel_optimise_cg           :    18    35252.13s  85.528%  ------ ||
|| ngwf_cg_optimise                     :     2    40231.27s  97.609%  ------ ||
|| total_time                           :     1    41216.88s 100.000%  ------ ||
================================================================================
Overhead of generating timer report: 
- 0 ms averaging over threads,
- 15 ms ensuring consistency across MPI ranks,
- 0 ms printing in order.

Job completed: 09-02-2020 03:41 (-0000)

Application 38880777 resources: utime ~8125620s, stime ~403406s, Rss ~4440900, inblocks ~397233737, outblocks ~78408333
