 +---------------------------------------------------------------+
 |                                                               |
 |        ####### #     # ####### ####### ####### ######         |
 |        #     # ##    # #          #    #       #     #        |
 |        #     # # #   # #          #    #       #     #        |
 |        #     # #  #  # #####      #    #####   ######         |
 |        #     # #   # # #          #    #       #              |
 |        #     # #    ## #          #    #       #              |
 |        ####### #     # #######    #    ####### #              |
 |                                                               |
 |        Linear-Scaling Ab Initio Total Energy Program          |
 |                                                               |
 |          Release for academic collaborators of ODG            |
 |                                             Version 5.3.2.6.  |
 |                                                               |
 +---------------------------------------------------------------+
 |                                                               |
 |  Authors:                                                     |
 |  Jacek Dziedzic, Peter D. Haynes, Nicholas D. M. Hine,        |
 |  Arash. A. Mostofi, Mike C. Payne and Chris-Kriton Skylaris   |
 |                                                               |
 |  Contributors:                                                |
 |  J. Aarons, L. Andrinopoulos, P. W. Avraam, R. A. Bell,       |
 |  A. Bhandari, G. A. Bramley, R. J. Charlton, S. J. Clark,     |
 |  R. J. Clements, G. C. Constantinescu, F. Corsetti,           |
 |  N. Corsini, O. Dieguez, S. M. M. Dubois, K. K. B. Duff,      |
 |  J. M. Escartin, A. Greco, H. Helal, Q. O. Hill, L. P. Lee,   |
 |  J.-H. Li, E. B. Linscott, G. Moynihan, D. D. O`Regan,        |
 |  O. K. Okan, M. J. S. Phipps, C. J. Pickard,                  |
 |  J. C. A. Prentice, M. I. J. Probert, L. E. Ratcliff,         |
 |  M. Robinson, A. Ruiz Serrano, J. S. Spencer, E. W. Tait,     |
 |  G. Teobaldi, D. Turban, V. Vitale, K. A. Wilkinson,          |
 |  C. Weber, J. C. Womack, N. Yeung and T. J. Zuehlsdorff       |
 |                                                               |
 |                                   Copyright (c) 2004-2019     |
 |                                                               |
 |  Please cite:                                                 |
 |  "Introducing ONETEP: Linear-scaling density functional       |
 |   simulations on parallel computers".                         |
 |   C.-K. Skylaris, P. D. Haynes, A. A. Mostofi, M. C. Payne.   |
 |   J. Chem. Phys. 122 084119 (2005).                           |
 |                                                               |
 |          in all publications arising from your use of ONETEP. |
 |                                                               |
 +---------------------------------------------------------------+
 |                                                               |
 |   ONETEP is based on developments described in the following  |
 |   publications:                                               |
 |                                                               |
 |  "Nonorthogonal generalized Wannier function pseudopotential  |
 |   plane-wave method".                                         |
 |   C.-K. Skylaris, A. A. Mostofi, P. D. Haynes, O. Dieguez,    |
 |   M. C. Payne.                                                |
 |   Phys. Rev. B 66 035119 (2002).                              |
 |                                                               |
 |  "Preconditioned iterative minimization for linear-scaling    |
 |   electronic structure calculations".                         |
 |   A. A. Mostofi, P. D. Haynes, C.-K. Skylaris, M. C. Payne.   |
 |   J. Chem. Phys. 119(17), pp.8842-8848 (2003).                |
 |                                                               |
 |  "Total-energy calculations on a real space grid with         |
 |   localized functions and a plane-wave basis".                |
 |   A. A. Mostofi, C.-K. Skylaris, P. D. Haynes, M. C. Payne.   |
 |   Comput. Phys. Commun. 147, pp.788-802 (2002).               |
 |                                                               |
 |  "Accurate kinetic energy evaluation in electronic structure  |
 |   calculations with localized functions on real space grids"  |
 |   C.-K. Skylaris, A. A. Mostofi, P. D. Haynes, C. J. Pickard, |
 |   M. C. Payne.                                                |
 |   Comput. Phys. Commun. 140, pp.315-322 (2001).               |
 |                                                               |
 |  "Accurate ionic forces and geometry optimization in linear-  |
 |   scaling density-functional theory with local orbitals"      |
 |   N. D. M. Hine, M. Robinson, P. D. Haynes, C.-K. Skylaris,   |
 |   M. C. Payne, and A. A. Mostofi.                             |
 |   Phys. Rev. B 83 195102 (2011).                              |
 |                                                               |
 +---------------------------------------------------------------+

Job started: 30-03-2020 21:09 (+0100)
 
Reading parameters from file "host_31641.dat" ...... done

If your calculation crashes here, before "Checking processes and threads..."
is displayed, then your stack size is insufficient.
If so, use "ulimit -s unlimited" at runtime.
You can disable this check with "check_stack_size F".

Checking processes and threads...
   Determining the default number of threads...
      No default threads set at compilation time: defaulting to 1.
      OpenMP library call suggests 4 threads.
      Hybrid MPI-OpenMP compilation detected.
      Number of MPI processes > 1.
      OMP_NUM_THREADS environment variable present and
      its value matches the one obtained from the OpenMP library call.
      Using this value as default.
      Default threads: 4
      Default applies to threads_max and threads_num_fftboxes.
      Settings in the input file override this default.
   ... done

   Running with 60 MPI processes.
   There are 6 MPI processes running on the same node as the root process.
   Each MPI process is using: 
               1 threads for simulation cell FFTs.
               1 threads for parallel FFT box operations.
               4 threads for loops over batched FFT box operations.
               4 threads in other parallel regions.
... done

Basic input checks...... done

Reading geometry and species blocks from file "host_31641.dat" ...
  <species_atomic_set> block not found: NGWF initialisation set to SOLVE
IS: Dielectric excluded regions:
    - NONE.
    
  Number of PPD points along a3 set to 1.  This is 
  the default value, it may have been provided also in the input file.
... done
 Writing xyz coordinates to file "host_31641.xyz" ... done


--------------------------------------------------------------------------------
---------------------------------- INPUT FILE ----------------------------------
--------------------------------------------------------------------------------

cutoff_energy       : 800 eV                                                    
xc_functional VV10                                                              
task SINGLEPOINT                                                                
write_xyz true                                                                  
output_detail VERBOSE                                                           
ngwf_threshold_orig : 0.000002                                                  
kernel_cutoff       : 1000                                                      
k_zero              : 3.5                                                       
elec_cg_max 0                                                                   
occ_mix 1.0                                                                     
dispersion 0                                                                    
maxit_ngwf_cg 40                                                                
minit_lnv 10                                                                    
maxit_lnv 10                                                                    
write_denskern T                                                                
write_tightbox_ngwfs T                                                          
charge 9                                                                        
is_implicit_solvent T                                                           
is_auto_solvation T                                                             
is_include_apolar T                                                             
is_smeared_ion_rep T                                                            
is_solvent_surf_tension 4.7624E-5 Ha/bohr**2                                    
is_apolar_scaling_factor 0.281075                                               
is_solvation_beta 1.3                                                           
is_density_threshold 0.00035                                                    
is_bulk_permittivity 78.54                                                      
is_dielectric_model fix_initial                                                 
is_smeared_ion_width 0.8                                                        
mg_defco_fd_order 8                                                             
is_bc_coarseness 10                                                             
is_bc_surface_coarseness 1                                                      
fine_grid_scale 2.0                                                             
%block species                                                                  
N   N   7 4 8.0                                                                 
H   H   1 1 8.0                                                                 
C   C   6 4 8.0                                                                 
S   S  16 9 8.0                                                                 
O   O   8 4 8.0                                                                 
%endblock species                                                               
%block species_pot                                                              
N   N_00.recpot                                                                 
H   H_04.recpot                                                                 
C   C_01.recpot                                                                 
S   S_00.recpot                                                                 
O   O_02.recpot                                                                 
%endblock species_pot                                                           
%block lattice_cart                                                             
142.669   0.000   0.000                                                         
0.000 146.65   0.000                                                            
0.000   0.000   162.396                                                         
%endblock lattice_cart                                                          
%block positions_abs                                                            
     Hash =  -000004740050602172905659
%endblock positions_abs                                                         

--------------------------------------------------------------------------------
-------------------------------- END INPUT FILE --------------------------------
--------------------------------------------------------------------------------


 
 ESDF WARNING(1): "kernelcutoff" (esdf_physical) has no units. Assume "bohr".
 ESDF WARNING(2): "kzero" (esdf_physical) has no units. Assume "1/bohr".
 ESDF WARNING(3
 ): "issmearedionwidth" (esdf_physical) has no units. Assume "bohr".
<<<<<<<<<<<<<<<<<<<<<<<<<<<<<<<<< Full system >>>>>>>>>>>>>>>>>>>>>>>>>>>>>>>>>>
<<<<<<<<<<<<<<<<<<<<<<<<< Pseudopotential information >>>>>>>>>>>>>>>>>>>>>>>>>>
File: N_00.recpot [ 2001 points up to Gmax=  52.9 (1/bohr)]
  Atomic number:  7;  ionic charge:  5.000000
    Shell 1: l = 0; rc = 1.48 bohr
File: H_04.recpot [ 2001 points up to Gmax=  52.9 (1/bohr)]
  Atomic number:  1;  ionic charge:  1.000000
    Local potential
File: C_01.recpot [ 2001 points up to Gmax=  52.9 (1/bohr)]
  Atomic number:  6;  ionic charge:  4.000000
    Shell 1: l = 0; rc = 1.48 bohr
File: S_00.recpot [ 2001 points up to Gmax=  52.9 (1/bohr)]
  Atomic number: 16;  ionic charge:  6.000000
    Shell 1: l = 0; rc = 1.90 bohr
    Shell 2: l = 2; rc = 1.84 bohr
File: O_02.recpot [ 2001 points up to Gmax=  52.9 (1/bohr)]
  Atomic number:  8;  ionic charge:  6.000000
    Shell 1: l = 0; rc = 1.31 bohr
<<<<<<<<<<<<<<<<<<<<<<<<<<<<<<<<<<<<<<<<>>>>>>>>>>>>>>>>>>>>>>>>>>>>>>>>>>>>>>>>

-------------------------- Atom counting information ---------------------------
Symbol    Natoms    Nngwfs    Nprojs
  N        236       944       236
  H       1311      1311         0
  C        810      3240       810
  S          6        54        36
  O        239       956       239
.......   ......    ......    ......
Totals:   2602      6505      1321
--------------------------------------------------------------------------------

=============================== PSINC grid sizes ===============================
                      Simulation cell:  286 x 294 x 320
                              FFT-box:  105 x 105 x  99
                                  PPD:   11 x   6 x   1
Grid space d1=  0.498842657343a0 (KE cutoff=  30.52649Eh = 830.66799eV)
Grid space d2=  0.498809523810a0 (KE cutoff=  30.53054Eh = 830.77835eV)
Grid space d3=  0.507487500000a0 (KE cutoff=  29.49533Eh = 802.60885eV)
================================================================================

********************* Fourier parallelisation information **********************
       Coarse grid (whole simulation cell) dimensions:    286   294   320
          Real-space ('12') slabs/node (min max mean):      5     6     5
         Recip-space ('23') slabs/node (min max mean):      2     3     2
********************************************************************************

********************* Fourier parallelisation information **********************
       Double grid (whole simulation cell) dimensions:    572   588   640
          Real-space ('12') slabs/node (min max mean):     10    11    10
         Recip-space ('23') slabs/node (min max mean):      4     5     4
********************************************************************************
ONETEP fine grid is 572 x 588 x 640 gridpoints, 142.6690 x 146.6500 x 162.3960 bohr.
FD multigrid is     569 x 585 x 633 gridpoints, 141.9207 x 145.9018 x 160.6198 bohr.


Calculating local pseudopotential in open BC on a radial grid ...
Discrepancy between calculated realspace psloc and -Z/x on [5a0,261.215a0]:
max |rel. diff| # avg |rel. diff| #  avg rel. diff #  f # pseudopotential file
 0.000261901569    0.000004963664   0.000000071970   55  'N_00.recpot'
 0.000422260137    0.000017549664  -0.000000063361   55  'H_04.recpot'
 0.000361991046    0.000016543264   0.000000134927   55  'C_01.recpot'
 0.000447743184    0.000019132268   0.000000438157   55  'S_00.recpot'
 0.000711628927    0.000028437426   0.000000135877   55  'O_02.recpot'
... done

Atom SCF Calculation for N  : Z (AE atom) =   7 : Z (PS atom) =   5
Config String:
Orbitals (num,occ):  2     2.00 3.00
Orbitals   (num,l):  2        0    1
Real-space Grid (nr,dr,rmax): 1203    0.0066555740    8.0000000000
Spherical Bessel Basis (nsws,lmax,cutoff):   47    1  176.3951722778
Confining potential (l,width,scale):  0    3.0000000000  100.0000000000
Confining potential (l,width,scale):  1    3.0000000000  100.0000000000
  1         -4.7366890484   -3.4501654188    7.0523828109   -1.9619316308
  2         -9.7225420322   -2.0763080851    8.3068355706   -2.2908832437
  3         -9.7134243553   -2.1270543915    8.2534567806   -2.2819809971
  4         -9.7235185949   -2.1427582218    8.2369947390   -2.2802814234
  5         -9.7258373845   -2.1477905863    8.2317116314   -2.2798536235
  6         -9.7268932325   -2.1503512400    8.2290229806   -2.2796830099
  7         -9.7273189469   -2.1516634231    8.2276451699   -2.2796169657
  8         -9.7274675212   -2.1523365544    8.2269384796   -2.2795940092
  9         -9.7275041773   -2.1526817003    8.2265762312   -2.2795881371
 10         -9.7275008637   -2.1528585007    8.2263907413   -2.2795884060
 11         -9.7274868305   -2.1529489544    8.2262958841   -2.2795903922
 12         -9.7274755655   -2.1529859230    8.2262571347   -2.2795920452
 13         -9.7274662327   -2.1530083995    8.2262335832   -2.2795934369
 14         -9.7274589439   -2.1530220534    8.2262192809   -2.2795945372
 15         -9.7274534633   -2.1530303399    8.2262106039   -2.2795953734
 16         -9.7274494492   -2.1530353634    8.2262053452   -2.2795959920
 17         -9.7274465654   -2.1530384053    8.2262021621   -2.2795964406
 18         -9.7274445237   -2.1530402447    8.2262002378   -2.2795967611
 19         -9.7274430947   -2.1530413553    8.2261990762   -2.2795969874
 20         -9.7274421038   -2.1530420249    8.2261983762   -2.2795971458
 21         -9.7274414219   -2.1530424277    8.2261979551   -2.2795972557
 22         -9.7274409555   -2.1530426696    8.2261977024   -2.2795973315
 23         -9.7274406382   -2.1530428144    8.2261975510   -2.2795973835
 24         -9.7274404232   -2.1530429010    8.2261974606   -2.2795974190
 25         -9.7274402783   -2.1530429525    8.2261974067   -2.2795974432
 26         -9.7274401808   -2.1530429831    8.2261973748   -2.2795974596
Atom SCF converged after  26 iterations to a total energy of     -9.72744018

Atom SCF Calculation for H  : Z (AE atom) =   1 : Z (PS atom) =   1
Config String:
Orbitals (num,occ):  1     1.00
Orbitals   (num,l):  1        0
Real-space Grid (nr,dr,rmax): 1203    0.0066555740    8.0000000000
Spherical Bessel Basis (nsws,lmax,cutoff):   47    0  176.3951722778
Confining potential (l,width,scale):  0    3.0000000000  100.0000000000
  1         -0.3178661827   -0.2469879004    0.2820953124   -0.2487802071
  2         -0.3961824611   -0.2455070831    0.2902209900   -0.2567664324
  3         -0.4406462424   -0.2424227551    0.2948173255   -0.2622129794
  4         -0.4569739054   -0.2416771342    0.2960118236   -0.2639986016
  5         -0.4627745219   -0.2416114401    0.2961916694   -0.2644992007
  6         -0.4648634749   -0.2416666130    0.2961598921   -0.2646237065
  7         -0.4656347011   -0.2417155160    0.2961132802   -0.2646490719
  8         -0.4659271144   -0.2417438448    0.2960836537   -0.2646515522
  9         -0.4660407254   -0.2417580788    0.2960682004   -0.2646501482
 10         -0.4660857867   -0.2417647566    0.2960608087   -0.2646488305
 11         -0.4661039568   -0.2417677717    0.2960574330   -0.2646480606
 12         -0.4661113773   -0.2417691018    0.2960559329   -0.2646476727
 13         -0.4661144368   -0.2417696800    0.2960552775   -0.2646474903
 14         -0.4661157072   -0.2417699291    0.2960549942   -0.2646474079
 15         -0.4661162374   -0.2417700356    0.2960548727   -0.2646473715
 16         -0.4661164596   -0.2417700810    0.2960548208   -0.2646473556
 17         -0.4661165529   -0.2417701003    0.2960547987   -0.2646473488
Atom SCF converged after  17 iterations to a total energy of     -0.46611655

Atom SCF Calculation for C  : Z (AE atom) =   6 : Z (PS atom) =   4
Config String:
Orbitals (num,occ):  2     2.00 2.00
Orbitals   (num,l):  2        0    1
Real-space Grid (nr,dr,rmax): 1203    0.0066555740    8.0000000000
Spherical Bessel Basis (nsws,lmax,cutoff):   47    1  176.3951722778
Confining potential (l,width,scale):  0    3.0000000000  100.0000000000
Confining potential (l,width,scale):  1    3.0000000000  100.0000000000
  1         -5.2812238291   -1.3293161250    4.5135249990   -1.4716766231
  2         -5.3996591362   -1.3542148509    4.4876064308   -1.4645117417
  3         -5.4111847148   -1.3757224423    4.4645718036   -1.4593107263
  4         -5.4199203659   -1.3833334895    4.4563636676   -1.4579885221
  5         -5.4226876204   -1.3865104950    4.4529090432   -1.4575385943
  6         -5.4235070726   -1.3878131251    4.4514866831   -1.4573882877
  7         -5.4237271252   -1.3883401868    4.4509094528   -1.4573411661
  8         -5.4237693051   -1.3885521813    4.4506766230   -1.4573281030
  9         -5.4237656430   -1.3886371046    4.4505830704   -1.4573255254
 10         -5.4237547927   -1.3886709976    4.4505456041   -1.4573257244
 11         -5.4237478594   -1.3886817763    4.4505336403   -1.4573262476
 12         -5.4237429748   -1.3886873440    4.4505274417   -1.4573266921
 13         -5.4237397042   -1.3886902144    4.4505242350   -1.4573270222
 14         -5.4237375865   -1.3886916908    4.4505225792   -1.4573272507
 15         -5.4237362473   -1.3886924482    4.4505217259   -1.4573274021
 16         -5.4237354152   -1.3886928356    4.4505212873   -1.4573274996
 17         -5.4237349050   -1.3886930331    4.4505210623   -1.4573275610
 18         -5.4237345954   -1.3886931333    4.4505209473   -1.4573275991
 19         -5.4237344092   -1.3886931840    4.4505208887   -1.4573276224
 20         -5.4237342980   -1.3886932094    4.4505208590   -1.4573276366
 21         -5.4237342320   -1.3886932221    4.4505208440   -1.4573276451
Atom SCF converged after  21 iterations to a total energy of     -5.42373423

Atom SCF Calculation for S  : Z (AE atom) =  16 : Z (PS atom) =   6
Config String:
Orbitals (num,occ):  3     2.00 4.00 0.00
Orbitals   (num,l):  3        0    1    2
Real-space Grid (nr,dr,rmax): 1203    0.0066555740    8.0000000000
Spherical Bessel Basis (nsws,lmax,cutoff):   47    2  176.3951722778
Confining potential (l,width,scale):  0    3.0000000000  100.0000000000
Confining potential (l,width,scale):  1    3.0000000000  100.0000000000
Confining potential (l,width,scale):  2    3.0000000000  100.0000000000
  1        -12.4916237786   -1.0485914554   10.1554312477   -2.4822447765
  2         -9.9747083603   -2.4807597367    8.3138131863   -2.0618837268
  3        -10.1811370131   -2.3153496392    8.4906092179   -2.1137756843
  4        -10.1856385898   -2.2984912006    8.5093862195   -2.1218167101
  5        -10.1891317560   -2.2894783333    8.5195006030   -2.1261392389
  6        -10.1911142562   -2.2849160124    8.5246320974   -2.1283733378
  7        -10.1921506977   -2.2826473329    8.5271859473   -2.1295140514
  8        -10.1926851273   -2.2815219985    8.5284534218   -2.1300957983
  9        -10.1929632671   -2.2809620806    8.5290843811   -2.1303933136
 10        -10.1931100895   -2.2806822783    8.5293998452   -2.1305460626
 11        -10.1931885828   -2.2805418782    8.5295582201   -2.1306248009
 12        -10.1932309625   -2.2804711729    8.5296380158   -2.1306655459
 13        -10.1932540142   -2.2804354512    8.5296783476   -2.1306867097
 14        -10.1932666242   -2.2804173494    8.5296987927   -2.1306977435
 15        -10.1932735535   -2.2804081489    8.5297091868   -2.1307035175
 16        -10.1932773756   -2.2804034581    8.5297144867   -2.1307065505
 17        -10.1932794908   -2.2804010586    8.5297171976   -2.1307081499
 18        -10.1932806648   -2.2803998268    8.5297185890   -2.1307089965
 19        -10.1932813181   -2.2803991920    8.5297193057   -2.1307094466
 20        -10.1932816826   -2.2803988634    8.5297196763   -2.1307096867
 21        -10.1932818864   -2.2803986926    8.5297198688   -2.1307098154
 22        -10.1932820006   -2.2803986034    8.5297199692   -2.1307098847
 23        -10.1932820648   -2.2803985565    8.5297200219   -2.1307099221
Atom SCF converged after  23 iterations to a total energy of    -10.19328206

Atom SCF Calculation for O  : Z (AE atom) =   8 : Z (PS atom) =   6
Config String:
Orbitals (num,occ):  2     2.00 4.00
Orbitals   (num,l):  2        0    1
Real-space Grid (nr,dr,rmax): 1203    0.0066555740    8.0000000000
Spherical Bessel Basis (nsws,lmax,cutoff):   47    1  176.3951722778
Confining potential (l,width,scale):  0    3.0000000000  100.0000000000
Confining potential (l,width,scale):  1    3.0000000000  100.0000000000
  1         -1.9497477053   -7.5870966769   10.1554312477   -2.4822447765
  2        -15.9466298225   -3.1778351734   13.6353006614   -3.2931224232
  3        -16.0387051750   -3.0909030611   13.7305651010   -3.3194522996
  4        -15.9025031450   -3.1083023605   13.7128101414   -3.3180850501
  5        -15.8912953362   -3.1033022259   13.7185404266   -3.3206942093
  6        -15.8793912992   -3.1043100674   13.7175820250   -3.3209366960
  7        -15.8748748605   -3.1043975610   13.7175531476   -3.3211845618
  8        -15.8725354084   -3.1044655610   13.7175148333   -3.3213149154
  9        -15.8713193866   -3.1045129589   13.7174824743   -3.3213832909
 10        -15.8706863385   -3.1045436851   13.7174593895   -3.3214192053
 11        -15.8703562731   -3.1045627330   13.7174442347   -3.3214381098
 12        -15.8701839150   -3.1045741887   13.7174347673   -3.3214480859
 13        -15.8700937727   -3.1045809294   13.7174290448   -3.3214533647
 14        -15.8700465571   -3.1045848305   13.7174256662   -3.3214561658
 15        -15.8700217888   -3.1045870593   13.7174237063   -3.3214576563
 16        -15.8700087767   -3.1045883194   13.7174225849   -3.3214584516
 17        -15.8700019307   -3.1045890258   13.7174219502   -3.3214588771
 18        -15.8699983237   -3.1045894190   13.7174215942   -3.3214591053
 19        -15.8699964206   -3.1045896366   13.7174213960   -3.3214592281
 20        -15.8699954151   -3.1045897563   13.7174212864   -3.3214592942
 21        -15.8699948832   -3.1045898219   13.7174212260   -3.3214593299
 22        -15.8699946014   -3.1045898577   13.7174211930   -3.3214593493
 23        -15.8699944520   -3.1045898771   13.7174211750   -3.3214593597
 24        -15.8699943726   -3.1045898877   13.7174211652   -3.3214593654
Atom SCF converged after  24 iterations to a total energy of    -15.86999437

========================== Calculation in vacuum ==============================
= Adjusting the following parameters: 
= is_implicit_solvent: F
= is_include_apolar: F
= write_denskern: T
= write_tightbox_ngwfs: T
= restart read filename prefix: ""
= restart write filename prefix: "vacuum_"
===============================================================================

Determining parallel strategy ...
... using space-filling curve
... NGWF load balancing: max    109;  min    108;  average    108
... Projector load balancing: max     25;  min     21;  average     22
... done
Calculating direct Ion-Ion energy ...
Ion-Ion Energy        :    825406.80744514765684
Basis initialisation ...... NGWF spheres initialised
... Projector spheres initialised
... NGWF tight boxes initialised
... Tight-boxes gathered
... NGWF basis size (local,global):     974684  58664803
... Nonlocal pseudopotential projector initialisation
... done

========================== Sparse matrix information ===========================
                        Overlap matrix filling:   6.66%
                        Density kernel filling: 100.00%
              NGWF-Proj overlap matrix filling:   1.76%
                    Hamiltonian matrix filling:   7.50%
                  NGWF diagonal matrix filling:   0.05%
                             KS matrix filling: 100.00% 
                           KSKS matrix filling: 100.00% 
================================================================================

Sparse matrix initialisation ... done

Generating smeared ion density ... done
Smeared ion self correction:     -14457.169564
Smeared ion non-self correction: -825358.741494
NGWF initialisation ...... done
============ Calculation of NGWF S^-1 using Hotelling algorithm ================ 
         Iteration  |  Frobenius norm and Maximum abs value    (of I-S*S_n^-1)   
               1       0.78351788E+02     0.98154717E+00
               2       0.76408141E+02     0.96356570E+00
               3       0.73290811E+02     0.92894603E+00
               4       0.68911280E+02     0.86491330E+00
               5       0.63510956E+02     0.75685914E+00
               6       0.57500045E+02     0.70187434E+00
               7       0.51529339E+02     0.66844488E+00
               8       0.45995676E+02     0.64234057E+00
               9       0.39768815E+02     0.60148498E+00
              10       0.31241953E+02     0.53143154E+00
              11       0.20544307E+02     0.41908924E+00
              12       0.10159743E+02     0.26791754E+00
              13       0.31931538E+01     0.11774825E+00
              14       0.47913493E+00     0.31706199E-01
              15       0.23683266E-01     0.29961046E-02
              16       0.14550591E-03     0.28629342E-04
              17       0.10034971E-07     0.26467484E-08
              18       0.86431408E-13     0.46629367E-14
================================================================================
Calculating local pseudopotential in open BC on the fine real space grid ...
... done

MG BCs: +ve charge blocks (gridpoints):     20808 (   16396738).
MG BCs: -ve charge blocks (gridpoints):      8091 (    1097374).
MG BCs:     Elided blocks (gridpoints):    194424 (  193209433).
MG BCs: Computational effort saved:  99.9863%.
MG BCs: Charge after coarse-graining:           -9.0002327.
MG DL_MG: Calling solver with defect correction order = 8
MG DL_MG: Solver finished
MG Hartree energy from (\int phi*rho dr):              1452.377365
MG Hartree energy from (\int eps (grad phi)^2 dr):     1451.774256
MG Discrepancy due to finite box and discretization:     -0.603109 (  -0.04153%)
MG Correction to account for finite box:                  0.453347
MG Remaining discrepancy, due to discretization:         -0.149763 (  -0.01031%)
Up spin density kernel initialisation ... 
======= Optimisation of K by Palser-Manolopoulos canonical purification ======== 
         Iteration  |  Band structure energy |    c_n   
               1       -2575.69893644289186    0.5269508
               2       -2751.51691716726418    0.5173513
               3       -2931.59971574805604    0.5161155
               4       -3081.63167706593504    0.5304122
               5       -3173.48113597291103    0.5674683
               6       -3211.67362571983949    0.6119113
               7       -3224.70724866247019    0.6202924
               8       -3230.48405441733394    0.6137832
               9       -3233.32739725832289    0.6210837
              10       -3234.50029209284094    0.6397192
              11       -3234.93901118204849    0.6597569
              12       -3235.11084378201213    0.6748023
              13       -3235.18522262075930    0.6649390
              14       -3235.22383996097687    0.6210087
              15       -3235.24741352210094    0.5744455
              16       -3235.25959075450010    0.5499533
              17       -3235.26386916813590    0.5342815
              18       -3235.26505529595534    0.5116693
              19       -3235.26545681566267    0.5008257
              20       -3235.26572768357073    0.5000035
              21       -3235.26591195247511    0.5000000
              22       -3235.26596929344169    0.5000000
              23       -3235.26597328446223    0.5000001
              24       -3235.26597330181357    0.5000001
Termination criterion satisfied: band energy change below threshold.
Final occupancy bounds: [   -0.00000000000000:    1.00000000000000]
Closest occupancy to 0.5:     1.00000000000000
================================================================================
... done

Writing density kernel to file "host_31641.vacuum_dkn" ... done

>>> Optimising kernel for current NGWFs:
   Initial electron number for spin 1:    7192.00000000
     Final electron number for spin 1:    7192.00000000

=================== Penalty functional idempotency correction ==================
 RMS occupancy error at iteration   1:  0.000000 (step -0.5000 Ne1=   7192.0000)
            Final RMS occupancy error   :  0.000000 (Ne1=   7192.0000)
               Final occupancy bounds   : [ -0.0000,  1.0000]
================================================================================

................................................................................
<<<<<<<<<<<<<< LNV (Original version) density kernel optimisation >>>>>>>>>>>>>>
~~~~~~~~~~~~~~~~~~~~~~~~~~~~~~~~~~~~~~~~~~~~~~~~~~~~~~~~~~~~~~~~~~~~~~~~~~~~~~~~
   iter  |      energy (Eh)       | rms gradient |  commutator  |   dE (Eh)
MG BCs: +ve charge blocks (gridpoints):     32011 (   17542246).
MG BCs: -ve charge blocks (gridpoints):      8411 (    1126379).
MG BCs:     Elided blocks (gridpoints):    183218 (  192034920).
MG BCs: Computational effort saved:  99.9808%.
MG BCs: Charge after coarse-graining:           -9.0010234.
MG DL_MG: Calling solver with defect correction order = 8
MG DL_MG: Solver finished
MG Hartree energy from (\int phi*rho dr):              1416.836565
MG Hartree energy from (\int eps (grad phi)^2 dr):     1416.184502
MG Discrepancy due to finite box and discretization:     -0.652063 (  -0.04602%)
MG Correction to account for finite box:                  0.460883
MG Remaining discrepancy, due to discretization:         -0.191181 (  -0.01349%)
      ideal mu1:      -0.694780953102
             Q0:  -11524.521788391983
             G0:    -150.096781837493
   RMS gradient:       0.001883381888
MG BCs: +ve charge blocks (gridpoints):     31965 (   17622382).
MG BCs: -ve charge blocks (gridpoints):      8316 (    1108626).
MG BCs:     Elided blocks (gridpoints):    183263 (  191972537).
MG BCs: Computational effort saved:  99.9809%.
MG BCs: Charge after coarse-graining:           -9.0010453.
MG DL_MG: Calling solver with defect correction order = 8
MG DL_MG: Solver finished
MG Hartree energy from (\int phi*rho dr):              1435.839170
MG Hartree energy from (\int eps (grad phi)^2 dr):     1435.204263
MG Discrepancy due to finite box and discretization:     -0.634907 (  -0.04422%)
MG Correction to account for finite box:                  0.459775
MG Remaining discrepancy, due to discretization:         -0.175132 (  -0.01220%)
     Trial step:       0.500000000000
             Q1:  -11536.567522447789
 Quadratic coef:      63.002656862940
 Linear coef   :     -75.048390918746
           Qmin:  -11546.871087849884
Quadratic minimum step length (  0.297798516188) accepted
    Initial Ne1:    7192.00000000
      Final Ne1:    7192.00000000

=================== Penalty functional idempotency correction ==================
 RMS occupancy error at iteration   1:  0.003620 (step -0.4875 Ne1=   7192.0000)
 RMS occupancy error at iteration   2:  0.000031 (step -0.5002 Ne1=   7192.0000)
            Final RMS occupancy error   :  0.000000 (Ne1=   7192.0000)
               Final occupancy bounds   : [  0.0000,  1.0000]
================================================================================

    1        -1.152452178839E+04     1.8834E-03     1.7035E-03
MG BCs: +ve charge blocks (gridpoints):     31975 (   17591832).
MG BCs: -ve charge blocks (gridpoints):      8358 (    1116309).
MG BCs:     Elided blocks (gridpoints):    183253 (  191995404).
MG BCs: Computational effort saved:  99.9809%.
MG BCs: Charge after coarse-graining:           -9.0010360.
MG DL_MG: Calling solver with defect correction order = 8
MG DL_MG: Solver finished
MG Hartree energy from (\int phi*rho dr):              1419.937619
MG Hartree energy from (\int eps (grad phi)^2 dr):     1419.296777
MG Discrepancy due to finite box and discretization:     -0.640842 (  -0.04513%)
MG Correction to account for finite box:                  0.460098
MG Remaining discrepancy, due to discretization:         -0.180744 (  -0.01273%)
      ideal mu1:      -0.739603839100
             Q0:  -11547.330817270908
             G0:     -12.605004056611
   RMS gradient:       0.000541764277
MG BCs: +ve charge blocks (gridpoints):     31982 (   17608428).
MG BCs: -ve charge blocks (gridpoints):      8332 (    1111545).
MG BCs:     Elided blocks (gridpoints):    183246 (  191983572).
MG BCs: Computational effort saved:  99.9809%.
MG BCs: Charge after coarse-graining:           -9.0010399.
MG DL_MG: Calling solver with defect correction order = 8
MG DL_MG: Solver finished
MG Hartree energy from (\int phi*rho dr):              1424.163060
MG Hartree energy from (\int eps (grad phi)^2 dr):     1423.525945
MG Discrepancy due to finite box and discretization:     -0.637115 (  -0.04474%)
MG Correction to account for finite box:                  0.459578
MG Remaining discrepancy, due to discretization:         -0.177537 (  -0.01247%)
     Trial step:       0.385874666302
             Q1:  -11550.308548029978
 Quadratic coef:       1.886220975015
 Linear coef   :      -4.863951734086
           Qmin:  -11550.466455510659
Quadratic minimum step length (  0.497522765668) accepted
    Initial Ne1:    7191.99981778
      Final Ne1:    7192.00000000

=================== Penalty functional idempotency correction ==================
 RMS occupancy error at iteration   1:  0.001963 (step -0.4920 Ne1=   7192.0000)
 RMS occupancy error at iteration   2:  0.000017 (step -0.5004 Ne1=   7192.0000)
            Final RMS occupancy error   :  0.000000 (Ne1=   7192.0000)
               Final occupancy bounds   : [  0.0000,  1.0000]
================================================================================

    2        -1.154733081727E+04     5.4176E-04     4.9001E-04    -2.2809E+01
MG BCs: +ve charge blocks (gridpoints):     31986 (   17613369).
MG BCs: -ve charge blocks (gridpoints):      8330 (    1110061).
MG BCs:     Elided blocks (gridpoints):    183242 (  191980115).
MG BCs: Computational effort saved:  99.9809%.
MG BCs: Charge after coarse-graining:           -9.0010411.
MG DL_MG: Calling solver with defect correction order = 8
MG DL_MG: Solver finished
MG Hartree energy from (\int phi*rho dr):              1425.441689
MG Hartree energy from (\int eps (grad phi)^2 dr):     1424.805571
MG Discrepancy due to finite box and discretization:     -0.636118 (  -0.04463%)
MG Correction to account for finite box:                  0.459441
MG Remaining discrepancy, due to discretization:         -0.176677 (  -0.01239%)
      ideal mu1:      -0.764820515105
             Q0:  -11550.507751470082
             G0:      -2.021225443114
   RMS gradient:       0.000217124710
MG BCs: +ve charge blocks (gridpoints):     31992 (   17612926).
MG BCs: -ve charge blocks (gridpoints):      8328 (    1110994).
MG BCs:     Elided blocks (gridpoints):    183236 (  191979625).
MG BCs: Computational effort saved:  99.9809%.
MG BCs: Charge after coarse-graining:           -9.0010409.
MG DL_MG: Calling solver with defect correction order = 8
MG DL_MG: Solver finished
MG Hartree energy from (\int phi*rho dr):              1423.720325
MG Hartree energy from (\int eps (grad phi)^2 dr):     1423.084510
MG Discrepancy due to finite box and discretization:     -0.635815 (  -0.04466%)
MG Correction to account for finite box:                  0.459297
MG Remaining discrepancy, due to discretization:         -0.176518 (  -0.01240%)
     Trial step:       0.438156856822
             Q1:  -11551.025575433276
 Quadratic coef:       0.367789823891
 Linear coef   :      -0.885613787083
           Qmin:  -11551.040876456776
Quadratic minimum step length (  0.527526494889) accepted
    Initial Ne1:    7191.99979613
      Final Ne1:    7192.00000000

=================== Penalty functional idempotency correction ==================
 RMS occupancy error at iteration   1:  0.000686 (step -0.4968 Ne1=   7192.0000)
 RMS occupancy error at iteration   2:  0.000003 (step -0.5000 Ne1=   7192.0000)
            Final RMS occupancy error   :  0.000000 (Ne1=   7192.0000)
               Final occupancy bounds   : [  0.0000,  1.0000]
================================================================================

    3        -1.155050775147E+04     2.1712E-04     1.9638E-04    -3.1769E+00
MG BCs: +ve charge blocks (gridpoints):     31994 (   17612897).
MG BCs: -ve charge blocks (gridpoints):      8332 (    1111180).
MG BCs:     Elided blocks (gridpoints):    183234 (  191979468).
MG BCs: Computational effort saved:  99.9809%.
MG BCs: Charge after coarse-graining:           -9.0010408.
MG DL_MG: Calling solver with defect correction order = 8
MG DL_MG: Solver finished
MG Hartree energy from (\int phi*rho dr):              1423.377367
MG Hartree energy from (\int eps (grad phi)^2 dr):     1422.741604
MG Discrepancy due to finite box and discretization:     -0.635763 (  -0.04467%)
MG Correction to account for finite box:                  0.459268
MG Remaining discrepancy, due to discretization:         -0.176496 (  -0.01240%)
      ideal mu1:      -0.766122490031
             Q0:  -11551.046468167333
             G0:      -0.539398659436
   RMS gradient:       0.000112237340
MG BCs: +ve charge blocks (gridpoints):     31994 (   17614060).
MG BCs: -ve charge blocks (gridpoints):      8331 (    1110904).
MG BCs:     Elided blocks (gridpoints):    183234 (  191978581).
MG BCs: Computational effort saved:  99.9809%.
MG BCs: Charge after coarse-graining:           -9.0010409.
MG DL_MG: Calling solver with defect correction order = 8
MG DL_MG: Solver finished
MG Hartree energy from (\int phi*rho dr):              1424.464262
MG Hartree energy from (\int eps (grad phi)^2 dr):     1423.828477
MG Discrepancy due to finite box and discretization:     -0.635785 (  -0.04463%)
MG Correction to account for finite box:                  0.459224
MG Remaining discrepancy, due to discretization:         -0.176561 (  -0.01239%)
     Trial step:       0.480769540311
             Q1:  -11551.173287870130
 Quadratic coef:       0.132506742744
 Linear coef   :      -0.259326445541
           Qmin:  -11551.173348890465
Quadratic minimum step length (  0.470452497101) accepted
    Initial Ne1:    7191.99995146
      Final Ne1:    7192.00000000

=================== Penalty functional idempotency correction ==================
 RMS occupancy error at iteration   1:  0.000268 (step -0.4979 Ne1=   7192.0000)
 RMS occupancy error at iteration   2:  0.000001 (step -0.5000 Ne1=   7192.0000)
            Final RMS occupancy error   :  0.000000 (Ne1=   7192.0000)
               Final occupancy bounds   : [  0.0000,  1.0000]
================================================================================

    4        -1.155104646817E+04     1.1224E-04     1.0152E-04    -5.3872E-01
MG BCs: +ve charge blocks (gridpoints):     31994 (   17614038).
MG BCs: -ve charge blocks (gridpoints):      8331 (    1110910).
MG BCs:     Elided blocks (gridpoints):    183234 (  191978597).
MG BCs: Computational effort saved:  99.9809%.
MG BCs: Charge after coarse-graining:           -9.0010409.
MG DL_MG: Calling solver with defect correction order = 8
MG DL_MG: Solver finished
MG Hartree energy from (\int phi*rho dr):              1424.441142
MG Hartree energy from (\int eps (grad phi)^2 dr):     1423.805358
MG Discrepancy due to finite box and discretization:     -0.635784 (  -0.04463%)
MG Correction to account for finite box:                  0.459225
MG Remaining discrepancy, due to discretization:         -0.176560 (  -0.01240%)
      ideal mu1:      -0.766319055421
             Q0:  -11551.174086936517
             G0:      -0.161540910600
   RMS gradient:       0.000061612979
MG BCs: +ve charge blocks (gridpoints):     31994 (   17614382).
MG BCs: -ve charge blocks (gridpoints):      8328 (    1110743).
MG BCs:     Elided blocks (gridpoints):    183234 (  191978420).
MG BCs: Computational effort saved:  99.9809%.
MG BCs: Charge after coarse-graining:           -9.0010408.
MG DL_MG: Calling solver with defect correction order = 8
MG DL_MG: Solver finished
MG Hartree energy from (\int phi*rho dr):              1424.870623
MG Hartree energy from (\int eps (grad phi)^2 dr):     1424.234732
MG Discrepancy due to finite box and discretization:     -0.635890 (  -0.04463%)
MG Correction to account for finite box:                  0.459171
MG Remaining discrepancy, due to discretization:         -0.176719 (  -0.01240%)
     Trial step:       0.475583042979
             Q1:  -11551.221111585619
 Quadratic coef:       0.029801468727
 Linear coef   :      -0.076826117829
           Qmin:  -11551.223600036314
Quadratic minimum step length (  0.613010037059) accepted
    Initial Ne1:    7191.99998095
      Final Ne1:    7192.00000000

=================== Penalty functional idempotency correction ==================
 RMS occupancy error at iteration   1:  0.000215 (step -0.4933 Ne1=   7192.0000)
 RMS occupancy error at iteration   2:  0.000002 (step -0.5000 Ne1=   7192.0000)
            Final RMS occupancy error   :  0.000000 (Ne1=   7192.0000)
               Final occupancy bounds   : [  0.0000,  1.0000]
================================================================================

    5        -1.155117408694E+04     6.1613E-05     5.5728E-05    -1.2762E-01
MG BCs: +ve charge blocks (gridpoints):     31992 (   17614448).
MG BCs: -ve charge blocks (gridpoints):      8328 (    1110717).
MG BCs:     Elided blocks (gridpoints):    183236 (  191978380).
MG BCs: Computational effort saved:  99.9809%.
MG BCs: Charge after coarse-graining:           -9.0010407.
MG DL_MG: Calling solver with defect correction order = 8
MG DL_MG: Solver finished
MG Hartree energy from (\int phi*rho dr):              1424.994055
MG Hartree energy from (\int eps (grad phi)^2 dr):     1424.358134
MG Discrepancy due to finite box and discretization:     -0.635921 (  -0.04463%)
MG Correction to account for finite box:                  0.459155
MG Remaining discrepancy, due to discretization:         -0.176765 (  -0.01240%)
      ideal mu1:      -0.766372388321
             Q0:  -11551.223697478999
             G0:      -0.099870663951
   RMS gradient:       0.000048539659
MG BCs: +ve charge blocks (gridpoints):     31994 (   17613910).
MG BCs: -ve charge blocks (gridpoints):      8327 (    1111013).
MG BCs:     Elided blocks (gridpoints):    183234 (  191978622).
MG BCs: Computational effort saved:  99.9809%.
MG BCs: Charge after coarse-graining:           -9.0010405.
MG DL_MG: Calling solver with defect correction order = 8
MG DL_MG: Solver finished
MG Hartree energy from (\int phi*rho dr):              1424.008486
MG Hartree energy from (\int eps (grad phi)^2 dr):     1423.372597
MG Discrepancy due to finite box and discretization:     -0.635889 (  -0.04465%)
MG Correction to account for finite box:                  0.459119
MG Remaining discrepancy, due to discretization:         -0.176771 (  -0.01241%)
     Trial step:       0.539941829090
             Q1:  -11551.266452350072
 Quadratic coef:       0.011169477893
 Linear coef   :      -0.053924348966
           Qmin:  -11551.288781886686
Quadratic minimum step length (  1.303373886008) accepted
    Initial Ne1:    7191.99997426
      Final Ne1:    7192.00000000

=================== Penalty functional idempotency correction ==================
 RMS occupancy error at iteration   1:  0.001344 (step -0.4344 Ne1=   7192.0000)
 RMS occupancy error at iteration   2:  0.000036 (step -0.4998 Ne1=   7192.0000)
            Final RMS occupancy error   :  0.000000 (Ne1=   7192.0000)
               Final occupancy bounds   : [ -0.0000,  1.0000]
================================================================================

    6        -1.155122369748E+04     4.8540E-05     4.3903E-05    -4.9611E-02
MG BCs: +ve charge blocks (gridpoints):     31996 (   17613114).
MG BCs: -ve charge blocks (gridpoints):      8331 (    1111556).
MG BCs:     Elided blocks (gridpoints):    183232 (  191978875).
MG BCs: Computational effort saved:  99.9809%.
MG BCs: Charge after coarse-graining:           -9.0010402.
MG DL_MG: Calling solver with defect correction order = 8
MG DL_MG: Solver finished
MG Hartree energy from (\int phi*rho dr):              1422.599383
MG Hartree energy from (\int eps (grad phi)^2 dr):     1421.963538
MG Discrepancy due to finite box and discretization:     -0.635844 (  -0.04470%)
MG Correction to account for finite box:                  0.459068
MG Remaining discrepancy, due to discretization:         -0.176776 (  -0.01243%)
      ideal mu1:      -0.766670039585
             Q0:  -11551.282020556973
             G0:      -0.251110438290
   RMS gradient:       0.000077034467
MG BCs: +ve charge blocks (gridpoints):     31987 (   17615721).
MG BCs: -ve charge blocks (gridpoints):      8329 (    1110073).
MG BCs:     Elided blocks (gridpoints):    183241 (  191977751).
MG BCs: Computational effort saved:  99.9809%.
MG BCs: Charge after coarse-graining:           -9.0010410.
MG DL_MG: Calling solver with defect correction order = 8
MG DL_MG: Solver finished
MG Hartree energy from (\int phi*rho dr):              1425.991624
MG Hartree energy from (\int eps (grad phi)^2 dr):     1425.355898
MG Discrepancy due to finite box and discretization:     -0.635726 (  -0.04458%)
MG Correction to account for finite box:                  0.459055
MG Remaining discrepancy, due to discretization:         -0.176671 (  -0.01239%)
     Trial step:       0.838895750376
             Q1:  -11551.349835851463
 Quadratic coef:       0.142840185066
 Linear coef   :      -0.210655479556
           Qmin:  -11551.359687305736
Quadratic minimum step length (  0.618586382086) accepted
    Initial Ne1:    7192.00011305
      Final Ne1:    7192.00000000

=================== Penalty functional idempotency correction ==================
 RMS occupancy error at iteration   1:  0.000190 (step -0.4864 Ne1=   7192.0000)
 RMS occupancy error at iteration   2:  0.000001 (step -0.5000 Ne1=   7192.0000)
            Final RMS occupancy error   :  0.000000 (Ne1=   7192.0000)
               Final occupancy bounds   : [  0.0000,  1.0000]
================================================================================

    7        -1.155128202056E+04     7.7034E-05     6.9676E-05    -5.8323E-02
MG BCs: +ve charge blocks (gridpoints):     31991 (   17615053).
MG BCs: -ve charge blocks (gridpoints):      8326 (    1110382).
MG BCs:     Elided blocks (gridpoints):    183237 (  191978110).
MG BCs: Computational effort saved:  99.9809%.
MG BCs: Charge after coarse-graining:           -9.0010409.
MG DL_MG: Calling solver with defect correction order = 8
MG DL_MG: Solver finished
MG Hartree energy from (\int phi*rho dr):              1425.095800
MG Hartree energy from (\int eps (grad phi)^2 dr):     1424.460044
MG Discrepancy due to finite box and discretization:     -0.635755 (  -0.04461%)
MG Correction to account for finite box:                  0.459058
MG Remaining discrepancy, due to discretization:         -0.176697 (  -0.01240%)
      ideal mu1:      -0.767864274173
             Q0:  -11551.359911615844
             G0:      -0.257963196838
   RMS gradient:       0.000078078026
MG BCs: +ve charge blocks (gridpoints):     31994 (   17615628).
MG BCs: -ve charge blocks (gridpoints):      8326 (    1110168).
MG BCs:     Elided blocks (gridpoints):    183234 (  191977749).
MG BCs: Computational effort saved:  99.9809%.
MG BCs: Charge after coarse-graining:           -9.0010412.
MG DL_MG: Calling solver with defect correction order = 8
MG DL_MG: Solver finished
MG Hartree energy from (\int phi*rho dr):              1425.693059
MG Hartree energy from (\int eps (grad phi)^2 dr):     1425.057417
MG Discrepancy due to finite box and discretization:     -0.635642 (  -0.04458%)
MG Correction to account for finite box:                  0.459111
MG Remaining discrepancy, due to discretization:         -0.176531 (  -0.01238%)
     Trial step:       0.720367605583
             Q1:  -11551.505213518511
 Quadratic coef:       0.040526427767
 Linear coef   :      -0.185828330435
           Qmin:  -11551.572934143949
Quadratic minimum step length (  1.651573020626) accepted
    Initial Ne1:    7192.00030943
      Final Ne1:    7192.00000000

=================== Penalty functional idempotency correction ==================
 RMS occupancy error at iteration   1:  0.008048 (step -0.2345 Ne1=   7192.0000)
 RMS occupancy error at iteration   2:  0.000809 (step -0.4487 Ne1=   7192.0000)
 RMS occupancy error at iteration   3:  0.000033 (step -0.5015 Ne1=   7192.0000)
            Final RMS occupancy error   :  0.000000 (Ne1=   7192.0000)
               Final occupancy bounds   : [  0.0000,  1.0000]
================================================================================

    8        -1.155135991162E+04     7.8078E-05     7.0620E-05    -7.7891E-02
MG BCs: +ve charge blocks (gridpoints):     31994 (   17616501).
MG BCs: -ve charge blocks (gridpoints):      8328 (    1109881).
MG BCs:     Elided blocks (gridpoints):    183235 (  191977163).
MG BCs: Computational effort saved:  99.9809%.
MG BCs: Charge after coarse-graining:           -9.0010415.
MG DL_MG: Calling solver with defect correction order = 8
MG DL_MG: Solver finished
MG Hartree energy from (\int phi*rho dr):              1426.524679
MG Hartree energy from (\int eps (grad phi)^2 dr):     1425.889174
MG Discrepancy due to finite box and discretization:     -0.635505 (  -0.04455%)
MG Correction to account for finite box:                  0.459182
MG Remaining discrepancy, due to discretization:         -0.176323 (  -0.01236%)
      ideal mu1:      -0.770176043491
             Q0:  -11551.467848742614
             G0:      -0.496315142171
   RMS gradient:       0.000148572210
========================= Kernel Line Step Protection ==========================
|  Iter |  Trial Step |   RMS Occupancy Error |   Occupancy Bounds | Accepted? |
    0        0.000000                0.000000    [ 1.0000:  0.0000]
    1        1.090752                0.070682    [ 2.5098: -1.5199]        No
    2        0.545376                0.023271    [ 1.7219: -0.7259]        No
    3        0.272688                0.008623    [ 1.3419: -0.3433]       Yes
================================================================================
MG BCs: +ve charge blocks (gridpoints):     31994 (   17616181).
MG BCs: -ve charge blocks (gridpoints):      8328 (    1110259).
MG BCs:     Elided blocks (gridpoints):    183235 (  191977105).
MG BCs: Computational effort saved:  99.9809%.
MG BCs: Charge after coarse-graining:           -9.0010414.
MG DL_MG: Calling solver with defect correction order = 8
MG DL_MG: Solver finished
MG Hartree energy from (\int phi*rho dr):              1425.715007
MG Hartree energy from (\int eps (grad phi)^2 dr):     1425.079535
MG Discrepancy due to finite box and discretization:     -0.635472 (  -0.04457%)
MG Correction to account for finite box:                  0.459291
MG Remaining discrepancy, due to discretization:         -0.176181 (  -0.01236%)
     Trial step:       0.272687974422
             Q1:  -11551.470647744020
 Quadratic coef:       0.132540169388
 Linear coef   :      -0.135339170794
           Qmin:  -11551.502398063087
Quadratic minimum step length (  0.139223318161) accepted
    Initial Ne1:    7191.99991118
      Final Ne1:    7192.00000000

=================== Penalty functional idempotency correction ==================
 RMS occupancy error at iteration   1:  0.003651 (step -0.3312 Ne1=   7192.0000)
 RMS occupancy error at iteration   2:  0.000261 (step -0.4841 Ne1=   7192.0000)
 RMS occupancy error at iteration   3:  0.000005 (step -0.5000 Ne1=   7192.0000)
            Final RMS occupancy error   :  0.000000 (Ne1=   7192.0000)
               Final occupancy bounds   : [  0.0000,  1.0000]
================================================================================

    9        -1.155146784874E+04     1.4857E-04     1.3438E-04    -1.0794E-01
MG BCs: +ve charge blocks (gridpoints):     31994 (   17616383).
MG BCs: -ve charge blocks (gridpoints):      8328 (    1110040).
MG BCs:     Elided blocks (gridpoints):    183235 (  191977122).
MG BCs: Computational effort saved:  99.9809%.
MG BCs: Charge after coarse-graining:           -9.0010414.
MG DL_MG: Calling solver with defect correction order = 8
MG DL_MG: Solver finished
MG Hartree energy from (\int phi*rho dr):              1426.091669
MG Hartree energy from (\int eps (grad phi)^2 dr):     1425.456161
MG Discrepancy due to finite box and discretization:     -0.635508 (  -0.04456%)
MG Correction to account for finite box:                  0.459262
MG Remaining discrepancy, due to discretization:         -0.176247 (  -0.01236%)
      ideal mu1:      -0.770281253949
   10        -1.155150863447E+04     1.4656E-04     1.3256E-04    -4.0786E-02
Finished density kernel iterations (  10)

Writing density kernel to file "host_31641.vacuum_dkn" ... done


>>> Density kernel optimised for the current NGWF basis:
     ~~~~~~~~~~~~~~~~~~~~~~~~~~~~~~~~~~~~~~~~~~~~~~~~~~~~~~~~~~~
     Total energy                =  -1.15515086344674E+04  Eh
     Estimated bandgap           =  -3.4515E-01  Eh
     RMS occupancy error         =   2.6878E-09
     [H,K] commutator            =   1.3256E-04
     Occupancy bounds            = [  0.000:  1.000]
     ~~~~~~~~~~~~~~~~~~~~~~~~~~~~~~~~~~~~~~~~~~~~~~~~~~~~~~~~~~~




################################################################################
########################### NGWF CG iteration  001 #############################
################################################################################
****** Reciprocal space K.E. preconditioning with k_zero =  3.5000 a0^-1 *******

>>> Checking for convergence of NGWFs:   NOT CONVERGED
  ========================================================================
         NGWF RMS gradient =  1.5780E-03 >  2.0000E-06  | above tolerance
  ========================================================================

>>> Improving NGWFs using line search:
============ Calculation of NGWF S^-1 using Hotelling algorithm ================ 
         Iteration  |  Frobenius norm and Maximum abs value    (of I-S*S_n^-1)   
               1       0.19463900E+00     0.54930239E-02
               2       0.87588233E-03     0.48410841E-04
               3       0.30673996E-07     0.36702872E-08
               4       0.12368345E-12     0.57731597E-14
================================================================================
MG BCs: +ve charge blocks (gridpoints):     31446 (   17552915).
MG BCs: -ve charge blocks (gridpoints):      8333 (    1109673).
MG BCs:     Elided blocks (gridpoints):    183783 (  192040957).
MG BCs: Computational effort saved:  99.9811%.
MG BCs: Charge after coarse-graining:           -9.0010424.
MG DL_MG: Calling solver with defect correction order = 8
MG DL_MG: Solver finished
MG Hartree energy from (\int phi*rho dr):              1394.170602
MG Hartree energy from (\int eps (grad phi)^2 dr):     1393.535739
MG Discrepancy due to finite box and discretization:     -0.634863 (  -0.04554%)
MG Correction to account for finite box:                  0.459211
MG Remaining discrepancy, due to discretization:         -0.175652 (  -0.01260%)
============ Calculation of NGWF S^-1 using Hotelling algorithm ================ 
         Iteration  |  Frobenius norm and Maximum abs value    (of I-S*S_n^-1)   
               1       0.18789454E+01     0.46871779E-01
               2       0.73452803E-01     0.31287169E-02
               3       0.15260866E-03     0.15470102E-04
               4       0.14634853E-08     0.38752046E-09
               5       0.10784268E-12     0.44859949E-14
================================================================================
------------------------------- NGWF line search -------------------------------
RMS gradient                =       0.00157801011141
Trial step length           =               0.122474
Gradient along search dir.  =       -275.10707711118
Functional at step 0        =  -11551.50863446737640
Functional at step 1        =  -11582.67103522561956
Functional predicted        =  -11663.63526567092777
Selected quadratic step     =               0.815149
--------------------------- NGWF line search finished --------------------------
                                               
Writing NGWFs to file "host_31641.vacuum_tightbox_ngwfs"....  done

>>> Optimising kernel for current NGWFs:
   Initial electron number for spin 1:    7227.39944708
     Final electron number for spin 1:    7192.00000000

=================== Penalty functional idempotency correction ==================
 RMS occupancy error at iteration   1:  0.004245 (step -0.4865 Ne1=   7192.0000)
 RMS occupancy error at iteration   2:  0.000067 (step -0.5002 Ne1=   7192.0000)
            Final RMS occupancy error   :  0.000000 (Ne1=   7192.0000)
               Final occupancy bounds   : [  0.0000,  1.0000]
================================================================================

................................................................................
<<<<<<<<<<<<<< LNV (Original version) density kernel optimisation >>>>>>>>>>>>>>
~~~~~~~~~~~~~~~~~~~~~~~~~~~~~~~~~~~~~~~~~~~~~~~~~~~~~~~~~~~~~~~~~~~~~~~~~~~~~~~~
   iter  |      energy (Eh)       | rms gradient |  commutator  |   dE (Eh)
MG BCs: +ve charge blocks (gridpoints):     25180 (   17283981).
MG BCs: -ve charge blocks (gridpoints):      8498 (    1091297).
MG BCs:     Elided blocks (gridpoints):    190052 (  192328267).
MG BCs: Computational effort saved:  99.9840%.
MG BCs: Charge after coarse-graining:           -9.0006875.
MG DL_MG: Calling solver with defect correction order = 8
MG DL_MG: Solver finished
MG Hartree energy from (\int phi*rho dr):              1236.844744
MG Hartree energy from (\int eps (grad phi)^2 dr):     1236.209289
MG Discrepancy due to finite box and discretization:     -0.635456 (  -0.05138%)
MG Correction to account for finite box:                  0.458961
MG Remaining discrepancy, due to discretization:         -0.176495 (  -0.01427%)
      ideal mu1:      -0.710076951580
             Q0:  -11662.653691578773
             G0:      -9.901784618284
   RMS gradient:       0.000483737145
MG BCs: +ve charge blocks (gridpoints):     25197 (   17289472).
MG BCs: -ve charge blocks (gridpoints):      8497 (    1089866).
MG BCs:     Elided blocks (gridpoints):    190035 (  192324207).
MG BCs: Computational effort saved:  99.9840%.
MG BCs: Charge after coarse-graining:           -9.0006861.
MG DL_MG: Calling solver with defect correction order = 8
MG DL_MG: Solver finished
MG Hartree energy from (\int phi*rho dr):              1240.700453
MG Hartree energy from (\int eps (grad phi)^2 dr):     1240.063590
MG Discrepancy due to finite box and discretization:     -0.636863 (  -0.05133%)
MG Correction to account for finite box:                  0.458863
MG Remaining discrepancy, due to discretization:         -0.178000 (  -0.01435%)
     Trial step:       0.194844873224
             Q1:  -11664.004598157015
 Quadratic coef:       0.578405390399
 Linear coef   :      -1.929311968641
           Qmin:  -11664.262530610242
Quadratic minimum step length (  0.324959407519) accepted
    Initial Ne1:    7191.99963687
      Final Ne1:    7192.00000000

=================== Penalty functional idempotency correction ==================
 RMS occupancy error at iteration   1:  0.000344 (step -0.4984 Ne1=   7192.0000)
 RMS occupancy error at iteration   2:  0.000001 (step -0.5000 Ne1=   7192.0000)
            Final RMS occupancy error   :  0.000000 (Ne1=   7192.0000)
               Final occupancy bounds   : [  0.0000,  1.0000]
================================================================================

    1        -1.166265369158E+04     4.8374E-04     4.3753E-04
MG BCs: +ve charge blocks (gridpoints):     25206 (   17293063).
MG BCs: -ve charge blocks (gridpoints):      8490 (    1088962).
MG BCs:     Elided blocks (gridpoints):    190026 (  192321520).
MG BCs: Computational effort saved:  99.9840%.
MG BCs: Charge after coarse-graining:           -9.0006852.
MG DL_MG: Calling solver with defect correction order = 8
MG DL_MG: Solver finished
MG Hartree energy from (\int phi*rho dr):              1243.618638
MG Hartree energy from (\int eps (grad phi)^2 dr):     1242.980804
MG Discrepancy due to finite box and discretization:     -0.637834 (  -0.05129%)
MG Correction to account for finite box:                  0.458804
MG Remaining discrepancy, due to discretization:         -0.179030 (  -0.01440%)
      ideal mu1:      -0.716757238735
             Q0:  -11664.271021587891
             G0:      -1.241096060383
   RMS gradient:       0.000170240435
MG BCs: +ve charge blocks (gridpoints):     25211 (   17292955).
MG BCs: -ve charge blocks (gridpoints):      8489 (    1089316).
MG BCs:     Elided blocks (gridpoints):    190021 (  192321274).
MG BCs: Computational effort saved:  99.9840%.
MG BCs: Charge after coarse-graining:           -9.0006852.
MG DL_MG: Calling solver with defect correction order = 8
MG DL_MG: Solver finished
MG Hartree energy from (\int phi*rho dr):              1244.245356
MG Hartree energy from (\int eps (grad phi)^2 dr):     1243.607234
MG Discrepancy due to finite box and discretization:     -0.638123 (  -0.05129%)
MG Correction to account for finite box:                  0.458834
MG Remaining discrepancy, due to discretization:         -0.179289 (  -0.01441%)
     Trial step:       0.251628048041
             Q1:  -11664.503079320653
 Quadratic coef:       0.080236846343
 Linear coef   :      -0.312294579106
           Qmin:  -11664.574896642132
Quadratic minimum step length (  0.489688210192) accepted
    Initial Ne1:    7191.99993219
      Final Ne1:    7192.00000000

=================== Penalty functional idempotency correction ==================
 RMS occupancy error at iteration   1:  0.000302 (step -0.4895 Ne1=   7192.0000)
 RMS occupancy error at iteration   2:  0.000005 (step -0.5001 Ne1=   7192.0000)
            Final RMS occupancy error   :  0.000000 (Ne1=   7192.0000)
               Final occupancy bounds   : [  0.0000,  1.0000]
================================================================================

    2        -1.166427102159E+04     1.7024E-04     1.5398E-04    -1.6173E+00
MG BCs: +ve charge blocks (gridpoints):     25217 (   17292806).
MG BCs: -ve charge blocks (gridpoints):      8490 (    1089666).
MG BCs:     Elided blocks (gridpoints):    190015 (  192321073).
MG BCs: Computational effort saved:  99.9840%.
MG BCs: Charge after coarse-graining:           -9.0006852.
MG DL_MG: Calling solver with defect correction order = 8
MG DL_MG: Solver finished
MG Hartree energy from (\int phi*rho dr):              1244.836793
MG Hartree energy from (\int eps (grad phi)^2 dr):     1244.198389
MG Discrepancy due to finite box and discretization:     -0.638405 (  -0.05128%)
MG Correction to account for finite box:                  0.458864
MG Remaining discrepancy, due to discretization:         -0.179540 (  -0.01442%)
      ideal mu1:      -0.717894528465
             Q0:  -11664.574906954775
             G0:      -0.245954868064
   RMS gradient:       0.000076227872
MG BCs: +ve charge blocks (gridpoints):     25215 (   17291742).
MG BCs: -ve charge blocks (gridpoints):      8493 (    1090060).
MG BCs:     Elided blocks (gridpoints):    190017 (  192321743).
MG BCs: Computational effort saved:  99.9840%.
MG BCs: Charge after coarse-graining:           -9.0006853.
MG DL_MG: Calling solver with defect correction order = 8
MG DL_MG: Solver finished
MG Hartree energy from (\int phi*rho dr):              1244.120854
MG Hartree energy from (\int eps (grad phi)^2 dr):     1243.482447
MG Discrepancy due to finite box and discretization:     -0.638407 (  -0.05131%)
MG Correction to account for finite box:                  0.458912
MG Remaining discrepancy, due to discretization:         -0.179495 (  -0.01443%)
     Trial step:       0.351026050998
             Q1:  -11664.641176734352
 Quadratic coef:       0.020066786483
 Linear coef   :      -0.086336566060
           Qmin:  -11664.667771881670
Quadratic minimum step length (  0.755137945648) accepted
    Initial Ne1:    7191.99995119
      Final Ne1:    7192.00000000

=================== Penalty functional idempotency correction ==================
 RMS occupancy error at iteration   1:  0.000556 (step -0.4610 Ne1=   7192.0000)
 RMS occupancy error at iteration   2:  0.000011 (step -0.4998 Ne1=   7192.0000)
            Final RMS occupancy error   :  0.000000 (Ne1=   7192.0000)
               Final occupancy bounds   : [ -0.0000,  1.0000]
================================================================================

    3        -1.166457490695E+04     7.6228E-05     6.8946E-05    -3.0389E-01
MG BCs: +ve charge blocks (gridpoints):     25211 (   17290280).
MG BCs: -ve charge blocks (gridpoints):      8497 (    1090640).
MG BCs:     Elided blocks (gridpoints):    190021 (  192322625).
MG BCs: Computational effort saved:  99.9840%.
MG BCs: Charge after coarse-graining:           -9.0006855.
MG DL_MG: Calling solver with defect correction order = 8
MG DL_MG: Solver finished
MG Hartree energy from (\int phi*rho dr):              1243.300631
MG Hartree energy from (\int eps (grad phi)^2 dr):     1242.662220
MG Discrepancy due to finite box and discretization:     -0.638411 (  -0.05135%)
MG Correction to account for finite box:                  0.458967
MG Remaining discrepancy, due to discretization:         -0.179444 (  -0.01443%)
      ideal mu1:      -0.715520359144
             Q0:  -11664.667202448472
             G0:      -0.115162838642
   RMS gradient:       0.000052216309
MG BCs: +ve charge blocks (gridpoints):     25210 (   17290777).
MG BCs: -ve charge blocks (gridpoints):      8494 (    1090449).
MG BCs:     Elided blocks (gridpoints):    190022 (  192322319).
MG BCs: Computational effort saved:  99.9840%.
MG BCs: Charge after coarse-graining:           -9.0006855.
MG DL_MG: Calling solver with defect correction order = 8
MG DL_MG: Solver finished
MG Hartree energy from (\int phi*rho dr):              1243.423993
MG Hartree energy from (\int eps (grad phi)^2 dr):     1242.785667
MG Discrepancy due to finite box and discretization:     -0.638327 (  -0.05134%)
MG Correction to account for finite box:                  0.459030
MG Remaining discrepancy, due to discretization:         -0.179296 (  -0.01442%)
     Trial step:       0.514852494429
             Q1:  -11664.706458789646
 Quadratic coef:       0.020035533567
 Linear coef   :      -0.059291874740
           Qmin:  -11664.711068592571
Quadratic minimum step length (  0.761810747561) accepted
    Initial Ne1:    7192.00003726
      Final Ne1:    7192.00000000

=================== Penalty functional idempotency correction ==================
 RMS occupancy error at iteration   1:  0.000844 (step -0.4421 Ne1=   7192.0000)
 RMS occupancy error at iteration   2:  0.000020 (step -0.4990 Ne1=   7192.0000)
            Final RMS occupancy error   :  0.000000 (Ne1=   7192.0000)
               Final occupancy bounds   : [ -0.0000,  1.0000]
================================================================================

    4        -1.166466720245E+04     5.2216E-05     4.7228E-05    -9.2295E-02
MG BCs: +ve charge blocks (gridpoints):     25208 (   17291055).
MG BCs: -ve charge blocks (gridpoints):      8494 (    1090349).
MG BCs:     Elided blocks (gridpoints):    190024 (  192322141).
MG BCs: Computational effort saved:  99.9840%.
MG BCs: Charge after coarse-graining:           -9.0006854.
MG DL_MG: Calling solver with defect correction order = 8
MG DL_MG: Solver finished
MG Hartree energy from (\int phi*rho dr):              1243.487463
MG Hartree energy from (\int eps (grad phi)^2 dr):     1242.849181
MG Discrepancy due to finite box and discretization:     -0.638282 (  -0.05133%)
MG Correction to account for finite box:                  0.459056
MG Remaining discrepancy, due to discretization:         -0.179226 (  -0.01441%)
      ideal mu1:      -0.715905233845
             Q0:  -11664.711626359611
             G0:      -0.091672099219
   RMS gradient:       0.000045763219
MG BCs: +ve charge blocks (gridpoints):     25208 (   17293225).
MG BCs: -ve charge blocks (gridpoints):      8490 (    1089685).
MG BCs:     Elided blocks (gridpoints):    190024 (  192320635).
MG BCs: Computational effort saved:  99.9840%.
MG BCs: Charge after coarse-graining:           -9.0006849.
MG DL_MG: Calling solver with defect correction order = 8
MG DL_MG: Solver finished
MG Hartree energy from (\int phi*rho dr):              1244.644681
MG Hartree energy from (\int eps (grad phi)^2 dr):     1244.006476
MG Discrepancy due to finite box and discretization:     -0.638205 (  -0.05128%)
MG Correction to account for finite box:                  0.459046
MG Remaining discrepancy, due to discretization:         -0.179159 (  -0.01439%)
     Trial step:       0.626274830777
             Q1:  -11664.744611871312
 Quadratic coef:       0.024426416723
 Linear coef   :      -0.057411928426
           Qmin:  -11664.745361654916
Quadratic minimum step length (  0.735999188231) accepted
    Initial Ne1:    7192.00046362
      Final Ne1:    7192.00000000

=================== Penalty functional idempotency correction ==================
 RMS occupancy error at iteration   1:  0.001318 (step -0.4176 Ne1=   7192.0000)
 RMS occupancy error at iteration   2:  0.000047 (step -0.4973 Ne1=   7192.0000)
 RMS occupancy error at iteration   3:  0.000000 (step -0.5000 Ne1=   7192.0000)
            Final RMS occupancy error   :  0.000000 (Ne1=   7192.0000)
               Final occupancy bounds   : [  0.0000,  1.0000]
================================================================================

    5        -1.166471162636E+04     4.5763E-05     4.1392E-05    -4.4424E-02
MG BCs: +ve charge blocks (gridpoints):     25206 (   17293554).
MG BCs: -ve charge blocks (gridpoints):      8488 (    1089571).
MG BCs:     Elided blocks (gridpoints):    190026 (  192320420).
MG BCs: Computational effort saved:  99.9840%.
MG BCs: Charge after coarse-graining:           -9.0006849.
MG DL_MG: Calling solver with defect correction order = 8
MG DL_MG: Solver finished
MG Hartree energy from (\int phi*rho dr):              1244.848566
MG Hartree energy from (\int eps (grad phi)^2 dr):     1244.210370
MG Discrepancy due to finite box and discretization:     -0.638196 (  -0.05127%)
MG Correction to account for finite box:                  0.459049
MG Remaining discrepancy, due to discretization:         -0.179147 (  -0.01439%)
      ideal mu1:      -0.717608229546
             Q0:  -11664.746529092081
             G0:      -0.073343564079
   RMS gradient:       0.000040285340
MG BCs: +ve charge blocks (gridpoints):     25207 (   17293472).
MG BCs: -ve charge blocks (gridpoints):      8489 (    1089677).
MG BCs:     Elided blocks (gridpoints):    190025 (  192320396).
MG BCs: Computational effort saved:  99.9840%.
MG BCs: Charge after coarse-graining:           -9.0006849.
MG DL_MG: Calling solver with defect correction order = 8
MG DL_MG: Solver finished
MG Hartree energy from (\int phi*rho dr):              1244.557507
MG Hartree energy from (\int eps (grad phi)^2 dr):     1243.919484
MG Discrepancy due to finite box and discretization:     -0.638022 (  -0.05127%)
MG Correction to account for finite box:                  0.458848
MG Remaining discrepancy, due to discretization:         -0.179175 (  -0.01440%)
     Trial step:       0.678923977380
             Q1:  -11664.781302172574
 Quadratic coef:       0.015021623747
 Linear coef   :      -0.049794704240
           Qmin:  -11664.787794813617
Quadratic minimum step length (  1.125271782336) accepted
    Initial Ne1:    7192.00054929
      Final Ne1:    7192.00000000

=================== Penalty functional idempotency correction ==================
 RMS occupancy error at iteration   1:  0.003080 (step -0.3498 Ne1=   7192.0000)
 RMS occupancy error at iteration   2:  0.000215 (step -0.4899 Ne1=   7192.0000)
 RMS occupancy error at iteration   3:  0.000004 (step -0.5000 Ne1=   7192.0000)
            Final RMS occupancy error   :  0.000000 (Ne1=   7192.0000)
               Final occupancy bounds   : [  0.0000,  1.0000]
================================================================================

    6        -1.166474652909E+04     4.0285E-05     3.6437E-05    -3.4903E-02
MG BCs: +ve charge blocks (gridpoints):     25207 (   17293411).
MG BCs: -ve charge blocks (gridpoints):      8490 (    1089764).
MG BCs:     Elided blocks (gridpoints):    190025 (  192320370).
MG BCs: Computational effort saved:  99.9840%.
MG BCs: Charge after coarse-graining:           -9.0006849.
MG DL_MG: Calling solver with defect correction order = 8
MG DL_MG: Solver finished
MG Hartree energy from (\int phi*rho dr):              1244.369296
MG Hartree energy from (\int eps (grad phi)^2 dr):     1243.731361
MG Discrepancy due to finite box and discretization:     -0.637936 (  -0.05127%)
MG Correction to account for finite box:                  0.458743
MG Remaining discrepancy, due to discretization:         -0.179193 (  -0.01440%)
      ideal mu1:      -0.717631340741
             Q0:  -11664.791318658506
             G0:      -0.096301336315
   RMS gradient:       0.000047705544
MG BCs: +ve charge blocks (gridpoints):     25207 (   17291601).
MG BCs: -ve charge blocks (gridpoints):      8494 (    1090173).
MG BCs:     Elided blocks (gridpoints):    190025 (  192321771).
MG BCs: Computational effort saved:  99.9840%.
MG BCs: Charge after coarse-graining:           -9.0006853.
MG DL_MG: Calling solver with defect correction order = 8
MG DL_MG: Solver finished
MG Hartree energy from (\int phi*rho dr):              1243.567360
MG Hartree energy from (\int eps (grad phi)^2 dr):     1242.929581
MG Discrepancy due to finite box and discretization:     -0.637779 (  -0.05129%)
MG Correction to account for finite box:                  0.458579
MG Remaining discrepancy, due to discretization:         -0.179200 (  -0.01441%)
     Trial step:       0.874056058898
             Q1:  -11664.819173116004
 Quadratic coef:       0.056318308989
 Linear coef   :      -0.084172766486
           Qmin:  -11664.822769596687
Quadratic minimum step length (  0.653177606556) accepted
    Initial Ne1:    7191.99999953
      Final Ne1:    7192.00000000

=================== Penalty functional idempotency correction ==================
 RMS occupancy error at iteration   1:  0.000085 (step -0.4940 Ne1=   7192.0000)
 RMS occupancy error at iteration   2:  0.000000 (step -0.5000 Ne1=   7192.0000)
            Final RMS occupancy error   :  0.000000 (Ne1=   7192.0000)
               Final occupancy bounds   : [  0.0000,  1.0000]
================================================================================

    7        -1.166479131866E+04     4.7706E-05     4.3149E-05    -4.4790E-02
MG BCs: +ve charge blocks (gridpoints):     25206 (   17292092).
MG BCs: -ve charge blocks (gridpoints):      8494 (    1090037).
MG BCs:     Elided blocks (gridpoints):    190026 (  192321416).
MG BCs: Computational effort saved:  99.9840%.
MG BCs: Charge after coarse-graining:           -9.0006852.
MG DL_MG: Calling solver with defect correction order = 8
MG DL_MG: Solver finished
MG Hartree energy from (\int phi*rho dr):              1243.767486
MG Hartree energy from (\int eps (grad phi)^2 dr):     1243.129664
MG Discrepancy due to finite box and discretization:     -0.637821 (  -0.05128%)
MG Correction to account for finite box:                  0.458624
MG Remaining discrepancy, due to discretization:         -0.179198 (  -0.01441%)
      ideal mu1:      -0.716443441286
             Q0:  -11664.822840904002
             G0:      -0.084197971364
[...]
MG Hartree energy from (\int phi*rho dr):              1201.846899
MG Hartree energy from (\int eps (grad phi)^2 dr):     1201.662170
MG Discrepancy due to finite box and discretization:     -0.184729 (  -0.01537%)
MG Correction to account for finite box:                  0.006236
MG Remaining discrepancy, due to discretization:         -0.178493 (  -0.01485%)
             Q2:  -11698.568224829389
  Cubic LS coeff:       0.948973136860
Predicted energy:  -11698.568224829425
Cubic minimum step length accepted
    Initial Ne1:    7192.00000000
      Final Ne1:    7192.00000000

=================== Penalty functional idempotency correction ==================
 RMS occupancy error at iteration   1:  0.000000 (step -0.5000 Ne1=   7192.0000)
            Final RMS occupancy error   :  0.000000 (Ne1=   7192.0000)
               Final occupancy bounds   : [  0.0000,  1.0000]
================================================================================

    7        -1.169856822483E+04     8.1377E-09     7.3604E-09    -1.8626E-09

Reusing previously generated solute cavity.
MG BCs: +ve charge blocks (gridpoints):     29358 (   19493495).
MG BCs: -ve charge blocks (gridpoints):      8505 (    1058888).
MG BCs:     Elided blocks (gridpoints):    185874 (  190151162).
MG BCs: Computational effort saved:  99.9820%.
MG BCs: Charge after coarse-graining:           -9.0009998.
MG DL_MG: Calling solver with defect correction order = 8
MG DL_MG: Solver finished
MG Hartree energy from (\int phi*rho dr):              1201.846899
MG Hartree energy from (\int eps (grad phi)^2 dr):     1201.662170
MG Discrepancy due to finite box and discretization:     -0.184729 (  -0.01537%)
MG Correction to account for finite box:                  0.006236
MG Remaining discrepancy, due to discretization:         -0.178493 (  -0.01485%)
      ideal mu1:      -0.484401150601
             Q0:  -11698.568224829389
             G0:      -0.000000003377
   RMS gradient:       0.000000008649

Reusing previously generated solute cavity.
MG BCs: +ve charge blocks (gridpoints):     29358 (   19493495).
MG BCs: -ve charge blocks (gridpoints):      8505 (    1058888).
MG BCs:     Elided blocks (gridpoints):    185874 (  190151162).
MG BCs: Computational effort saved:  99.9820%.
MG BCs: Charge after coarse-graining:           -9.0009998.
MG DL_MG: Calling solver with defect correction order = 8
MG DL_MG: Solver finished
MG Hartree energy from (\int phi*rho dr):              1201.846866
MG Hartree energy from (\int eps (grad phi)^2 dr):     1201.662137
MG Discrepancy due to finite box and discretization:     -0.184729 (  -0.01537%)
MG Correction to account for finite box:                  0.006236
MG Remaining discrepancy, due to discretization:         -0.178493 (  -0.01485%)
     Trial step:       0.661571771971
             Q1:  -11698.568224830437
 Quadratic coef:       0.000000001186
 Linear coef   :      -0.000000002234
           Qmin:  -11698.568224830440
Quadratic minimum step length (  0.623139306063) accepted
    Initial Ne1:    7192.00000000
      Final Ne1:    7192.00000000

=================== Penalty functional idempotency correction ==================
 RMS occupancy error at iteration   1:  0.000000 (step -0.5000 Ne1=   7192.0000)
            Final RMS occupancy error   :  0.000000 (Ne1=   7192.0000)
               Final occupancy bounds   : [ -0.0000,  1.0000]
================================================================================

    8        -1.169856822483E+04     8.6489E-09     7.8227E-09    -2.9104E-09

Reusing previously generated solute cavity.
MG BCs: +ve charge blocks (gridpoints):     29358 (   19493495).
MG BCs: -ve charge blocks (gridpoints):      8505 (    1058888).
MG BCs:     Elided blocks (gridpoints):    185874 (  190151162).
MG BCs: Computational effort saved:  99.9820%.
MG BCs: Charge after coarse-graining:           -9.0009998.
MG DL_MG: Calling solver with defect correction order = 8
MG DL_MG: Solver finished
MG Hartree energy from (\int phi*rho dr):              1201.846868
MG Hartree energy from (\int eps (grad phi)^2 dr):     1201.662139
MG Discrepancy due to finite box and discretization:     -0.184729 (  -0.01537%)
MG Correction to account for finite box:                  0.006236
MG Remaining discrepancy, due to discretization:         -0.178493 (  -0.01485%)
      ideal mu1:      -0.484401117246
             Q0:  -11698.568224830437
             G0:      -0.000000001392
   RMS gradient:       0.000000004810

Reusing previously generated solute cavity.
MG BCs: +ve charge blocks (gridpoints):     29358 (   19493495).
MG BCs: -ve charge blocks (gridpoints):      8505 (    1058888).
MG BCs:     Elided blocks (gridpoints):    185874 (  190151162).
MG BCs: Computational effort saved:  99.9820%.
MG BCs: Charge after coarse-graining:           -9.0009998.
MG DL_MG: Calling solver with defect correction order = 8
MG DL_MG: Solver finished
MG Hartree energy from (\int phi*rho dr):              1201.846867
MG Hartree energy from (\int eps (grad phi)^2 dr):     1201.662138
MG Discrepancy due to finite box and discretization:     -0.184729 (  -0.01537%)
MG Correction to account for finite box:                  0.006236
MG Remaining discrepancy, due to discretization:         -0.178493 (  -0.01485%)
     Trial step:       0.642068045379
             Q1:  -11698.568224830204
 Quadratic coef:       0.000000001128
 Linear coef   :      -0.000000000894
           Qmin:  -11698.568224830613
Quadratic minimum step length (  0.254508667796) accepted
    Initial Ne1:    7192.00000000
      Final Ne1:    7192.00000000

=================== Penalty functional idempotency correction ==================
 RMS occupancy error at iteration   1:  0.000000 (step -0.5000 Ne1=   7192.0000)
            Final RMS occupancy error   :  0.000000 (Ne1=   7192.0000)
               Final occupancy bounds   : [  0.0000,  1.0000]
================================================================================

    9        -1.169856822483E+04     4.8104E-09     4.3509E-09    -1.0477E-09

Reusing previously generated solute cavity.
MG BCs: +ve charge blocks (gridpoints):     29358 (   19493495).
MG BCs: -ve charge blocks (gridpoints):      8505 (    1058888).
MG BCs:     Elided blocks (gridpoints):    185874 (  190151162).
MG BCs: Computational effort saved:  99.9820%.
MG BCs: Charge after coarse-graining:           -9.0009998.
MG DL_MG: Calling solver with defect correction order = 8
MG DL_MG: Solver finished
MG Hartree energy from (\int phi*rho dr):              1201.846868
MG Hartree energy from (\int eps (grad phi)^2 dr):     1201.662139
MG Discrepancy due to finite box and discretization:     -0.184729 (  -0.01537%)
MG Correction to account for finite box:                  0.006236
MG Remaining discrepancy, due to discretization:         -0.178493 (  -0.01485%)
      ideal mu1:      -0.484401117295
   10        -1.169856822483E+04     3.5895E-09     3.2467E-09     0.0000E+00
Finished density kernel iterations (  10)

Writing density kernel to file "host_31641.dkn" ... done


>>> Density kernel optimised for the current NGWF basis:
     ~~~~~~~~~~~~~~~~~~~~~~~~~~~~~~~~~~~~~~~~~~~~~~~~~~~~~~~~~~~
     Total energy                =  -1.16985682248304E+04  Eh
     Estimated bandgap           =   8.6246E-02  Eh
     RMS occupancy error         =   4.4983E-16
     [H,K] commutator            =   3.2467E-09
     Occupancy bounds            = [  0.000:  1.000]
     ~~~~~~~~~~~~~~~~~~~~~~~~~~~~~~~~~~~~~~~~~~~~~~~~~~~~~~~~~~~




################################################################################
########################### NGWF CG iteration  004 #############################
################################################################################
****** Reciprocal space K.E. preconditioning with k_zero =  3.5000 a0^-1 *******

>>> Checking for convergence of NGWFs: 
           ........................................................
           |         *** NGWF optimisation converged ***          |
           | RMS NGWF gradient =    0.00000185543454              |
           | Criteria satisfied:                                  |
           | -> RMS NGWF gradient lower than set threshold.       |
           ========================================================

Reusing previously generated solute cavity.
MG BCs: +ve charge blocks (gridpoints):     29358 (   19493495).
MG BCs: -ve charge blocks (gridpoints):      8505 (    1058888).
MG BCs:     Elided blocks (gridpoints):    185874 (  190151162).
MG BCs: Computational effort saved:  99.9820%.
MG BCs: Charge after coarse-graining:           -9.0009998.
MG DL_MG: Calling solver with defect correction order = 8
MG DL_MG: Solver finished
MG Hartree energy from (\int phi*rho dr):              1201.846868
MG Hartree energy from (\int eps (grad phi)^2 dr):     1201.662139
MG Discrepancy due to finite box and discretization:     -0.184729 (  -0.01537%)
MG Correction to account for finite box:                  0.006236
MG Remaining discrepancy, due to discretization:         -0.178493 (  -0.01485%)

================================================================================
           ---------------- ENERGY COMPONENTS (Eh) ----------------
           | Kinetic                    :     8562.09219481788750 |
           | Pseudo. (local,OBC,corr'd) :    -5075.53533126721049 |
           | Pseudopotential (non-local):     1403.92167179936359 |
           | Hartree (molecular)        :     1201.84686782480526 |
           | Exchange-correlation       :    -3382.44801314319193 |
           | Ion-ion (open BC)          :   825406.80744514765684 |
           | Smeared ion non-self corr. :  -825358.74149352707900 |
           | Smeared ion self corr.     :   -14457.16956389741972 |
           | Solvent cavitation energy  :        2.34100298755593 |
           | Solute-solvent dis-rep en. :       -1.68300557282865 |
           | Total                      :   -11698.56822483041105 |
           --------------------------------------------------------
           ------ LOCAL ENERGY COMPONENTS FROM MATRIX TRACES ------
           | Pseudopotential (local)    :    -5075.53533126720868 |
           | Hartree                    :    -1998.71467081377205 |
           --------------------------------------------------------
           Integrated density           :     7191.99999999881311
           Integrated density tr(KS)    :     7192.00000000000000
================================================================================


                        <<<<< CALCULATION SUMMARY >>>>>                         
|ITER|    RMS GRADIENT   |     TOTAL ENERGY    |   step   |     Epredicted              
   0     0.00003950133416 -11698.50520964176394   0.631694 -11698.55965767195812        
   1     0.00000949619620 -11698.56773136754055   0.082551 -11698.56814258643135        
   2     0.00000417690331 -11698.56820830563083   0.015068 -11698.56822282763824        
   3     0.00000185543454 -11698.56822483043652  <-- CG                                 

=================== Finished the calculation in solvent ========================
= Adjusting the following parameters: 
= read_denskern: F
= read_tightbox_ngwfs: F
= maxit_pen: 0 (restored to user-specified value)
= restart read filename prefix: ""
= restart write filename prefix: ""
================================================================================

================================================================================
IS: Calculation in solvent completed (NGWFs converged).      

Individual components of total energy in solvent:     hartree           kcal/mol
- Usual non-electrostatic DFT terms:    -12901.07309006996911    -8095545.413966
- Electrostatic fixed charge energy:      1201.84686782480526      754170.279571
- Apolar cavitation energy:                  2.34100298755593        1469.001522
- Apolar dispersion-repulsion energy:       -1.68300557282865       -1056.101919
 -------------------------------------------------------------------------------
- Total energy in solvent:              -11698.56822483043652    -7340962.234792

Components of total energy in solvent:                hartree           kcal/mol
- Usual non-electrostatic DFT terms:    -12901.07309006996911    -8095545.413966
- Electrostatic energy:                   1201.84686782480526      754170.279571
- Apolar energy terms:                       0.65799741472728         412.899603
 -------------------------------------------------------------------------------
- Total energy in solvent:              -11698.56822483043652    -7340962.234792

Calculation of free energy of solvation:              hartree           kcal/mol
- Total energy in solvent:         (+)  -11698.56822483043652    -7340962.234792
- Total energy in vacuum:          (-)  -11694.74896231875755    -7338565.611434
 -------------------------------------------------------------------------------
- Total free energy of solvation:           -3.81926251167897       -2396.623358

Components of polar term in f.e. of solvation:        hartree           kcal/mol
- Electrostatic:                            -4.55784457527693       -2860.090590
- Change in nonelectrostatic DFT terms:      0.08058464887108          50.567630
 -------------------------------------------------------------------------------
- Polar term in f.e. of solvation:          -4.47725992640585       -2809.522961

Components of free energy of solvation:               hartree           kcal/mol
- Polar term in f.e. of solvation: (+)      -4.47725992640585       -2809.522961
- Apolar (cavitation, dis., rep.): (+)       0.65799741472728         412.899603
 -------------------------------------------------------------------------------
- Total free energy of solvation:           -3.81926251167857       -2396.623358
================================================================================


------------------------------ TIMING INFORMATION ------------------------------
AVERAGE TIME:   34978.948s on     60 node(s)                                    
TOTAL TIME:     34978.948s on     60 node(s)                                    
================= AVERAGE TIMINGS FROM ALL NODES (CUMULATIVE) ==================
|| TAG                                    #calls    cpu time   %total  Gflops ||
|| work_imbalance                       :     1        0.00s   0.000%  ------ ||
|| sparse_set_to_garbage                :   164        0.03s   0.000%  ------ ||
|| parallel_prepare_fd_halos_request    :  1827        0.03s   0.000%  ------ ||
|| parallel_prepare_fd_halos_alloc      :  1827        0.10s   0.000%  ------ ||
|| ngwfs_initialise_from_radial         :     1        0.11s   0.000%  ------ ||
|| basis_extract_function_from_box      :  3360        0.14s   0.000%  ------ ||
|| parallel_prepare_fd_halos_satisfy    :  1827        0.60s   0.002%  ------ ||
|| pseudopotentials_nonlocal_mat        :    28        0.99s   0.003%  ------ ||
|| openbc_locps_radial                  :     1        4.72s   0.014%  ------ ||
|| restart_ngwfs_tightbox_input         :     1       10.04s   0.029%  ------ ||
|| parallel_prepare_fd_halos_comms_imbal:  1827       10.28s   0.029%  ------ ||
|| density_init_guess_real              :     1       10.97s   0.031%  ------ ||
|| restart_kernel_read                  :     1       10.98s   0.031%  ------ ||
|| parallel_prepare_fd_halos_clear      :  1827       19.55s   0.056%  ------ ||
|| parallel_prepare_fd_halos_comms_wait :  1827       23.68s   0.068%  ------ ||
|| sparse_init                          :     2       23.75s   0.068%  ------ ||
|| projectors_func_ovlp_box             :    28       26.90s   0.077%  ------ ||
|| projectors_init_fftbox_recip         :   133       27.69s   0.079%  ------ ||
|| function_ops_brappd_ketppd           :    28       29.03s   0.083%  ------ ||
|| palser_mano_kernel_optimise          :     1       33.18s   0.095%  ------ ||
|| basis_copy_function_to_box           : 54533       42.79s   0.122%  ------ ||
|| ngwf_gradient_coeffs                 :    15       48.99s   0.140%  ------ ||
|| fourier_apply_box_pair               :  4776       52.38s   0.150% 598.825 ||
|| parallel_prepare_fd_halos            :  1827       54.24s   0.155%  ------ ||
|| pseudo_make_structure_factor         :     2       61.18s   0.175%  ------ ||
|| sparse_embed_hotelling_invert_embed  :    28       75.85s   0.217%  ------ ||
|| restart_kernel_write                 :    16      105.69s   0.302%  ------ ||
|| finite_difference_derivative         :  1827      136.04s   0.389%  ------ ||
|| integrals_kinetic                    :    28      144.28s   0.412%  ------ ||
|| projectors_gradient_batch            :   105      149.15s   0.426%  ------ ||
|| basis_dot_function_with_box          : 8.200M     155.65s   0.445%  ------ ||
|| sparse_trace                         :  5205      172.39s   0.493%  ------ ||
|| kernel_purify                        :   464      291.64s   0.834%  ------ ||
|| openbc_locps_on_grid                 :     2      292.33s   0.836%  ------ ||
|| basis_add_function_to_box            : 17.05M     374.01s   1.069%  ------ ||
|| lnv_gradient_norm                    :   150      442.48s   1.265%  ------ ||
|| kernel_fix                           :   150      560.16s   1.601%  ------ ||
|| hamiltonian_energy_components        :     4      565.08s   1.615%  ------ ||
|| integrals_locpot_mat_els_batch       :  1113      737.76s   2.109%  ------ ||
|| ngwf_gradient_build_batch            :   105      795.44s   2.274%  ------ ||
|| ngwf_gradient_batch                  :   105     1086.70s   3.107%  ------ ||
|| cell_grid_deposit_box_real           : 34897     1142.64s   3.267%  ------ ||
|| restart_ngwfs_tightbox_output        :    13     1158.15s   3.311%  ------ ||
|| density_batch_row_sums               :  2121     1166.58s   3.335%  ------ ||
|| ngwf_gradient_lnv                    :    15     1241.00s   3.548%  ------ ||
|| fourier_apply_cell_forward           :  8513     1392.16s   3.980%  91.304 ||
|| fourier_apply_cell_backward          :  9123     1574.08s   4.500%  86.538 ||
|| density_fftbox_deposit_to_cell       : 33027     1781.31s   5.093%  ------ ||
|| cell_grid_extract_box_real           : 38581     1803.45s   5.156%  ------ ||
|| sparse_product                       :  6386     1852.64s   5.296%  ------ ||
|| potential_apply_to_ngwf_batch        :  1113     3641.00s  10.409%  ------ ||
|| density_fftbox_interpolate_multiply  : 33027     3899.56s  11.148%  ------ ||
|| xc_energy_potential                  :   304     3909.75s  11.177%  ------ ||
|| integrals_locpot_dbl_grid            :   159     4393.29s  12.560%  ------ ||
|| fourier_apply_box                    : 113.8k    4632.83s  13.245% 781.975 ||
|| multigrid_prepare_bound_cond         :   304     4721.49s  13.498%  ------ ||
|| nlxc_vdw_energy                      :   608     6460.07s  18.468%  ------ ||
|| density_batch_interp_deposit         :  2121     6648.42s  19.007%  ------ ||
|| dl_mg_solver_calls                   :   304     7415.26s  21.199%  ------ ||
|| density_on_dbl_grid                  :   303     8254.77s  23.599%  ------ ||
|| multigrid_calculate_hartree          :   304    12326.95s  35.241%  ------ ||
|| hamiltonian_lhxc_calculate           :   299    24368.15s  69.665%  ------ ||
|| lnv_denskernel_optimise_cg           :    15    29510.43s  84.366%  ------ ||
|| ngwf_cg_optimise                     :     2    33927.52s  96.994%  ------ ||
|| total_time                           :     1    34978.95s 100.000%  ------ ||
================================================================================
Overhead of generating timer report: 
- 0 ms averaging over threads,
- 15 ms ensuring consistency across MPI ranks,
- 0 ms printing in order.

Job completed: 31-03-2020 06:52 (+0100)

Application 40022089 resources: utime ~6843784s, stime ~332599s, Rss ~4419288, inblocks ~328350880, outblocks ~63919938
