 +---------------------------------------------------------------+
 |                                                               |
 |        ####### #     # ####### ####### ####### ######         |
 |        #     # ##    # #          #    #       #     #        |
 |        #     # # #   # #          #    #       #     #        |
 |        #     # #  #  # #####      #    #####   ######         |
 |        #     # #   # # #          #    #       #              |
 |        #     # #    ## #          #    #       #              |
 |        ####### #     # #######    #    ####### #              |
 |                                                               |
 |        Linear-Scaling Ab Initio Total Energy Program          |
 |                                                               |
 |          Release for academic collaborators of ODG            |
 |                                             Version 5.3.2.6.  |
 |                                                               |
 +---------------------------------------------------------------+
 |                                                               |
 |  Authors:                                                     |
 |  Jacek Dziedzic, Peter D. Haynes, Nicholas D. M. Hine,        |
 |  Arash. A. Mostofi, Mike C. Payne and Chris-Kriton Skylaris   |
 |                                                               |
 |  Contributors:                                                |
 |  J. Aarons, L. Andrinopoulos, P. W. Avraam, R. A. Bell,       |
 |  A. Bhandari, G. A. Bramley, R. J. Charlton, S. J. Clark,     |
 |  R. J. Clements, G. C. Constantinescu, F. Corsetti,           |
 |  N. Corsini, O. Dieguez, S. M. M. Dubois, K. K. B. Duff,      |
 |  J. M. Escartin, A. Greco, H. Helal, Q. O. Hill, L. P. Lee,   |
 |  J.-H. Li, E. B. Linscott, G. Moynihan, D. D. O`Regan,        |
 |  O. K. Okan, M. J. S. Phipps, C. J. Pickard,                  |
 |  J. C. A. Prentice, M. I. J. Probert, L. E. Ratcliff,         |
 |  M. Robinson, A. Ruiz Serrano, J. S. Spencer, E. W. Tait,     |
 |  G. Teobaldi, D. Turban, V. Vitale, K. A. Wilkinson,          |
 |  C. Weber, J. C. Womack, N. Yeung and T. J. Zuehlsdorff       |
 |                                                               |
 |                                   Copyright (c) 2004-2019     |
 |                                                               |
 |  Please cite:                                                 |
 |  "Introducing ONETEP: Linear-scaling density functional       |
 |   simulations on parallel computers".                         |
 |   C.-K. Skylaris, P. D. Haynes, A. A. Mostofi, M. C. Payne.   |
 |   J. Chem. Phys. 122 084119 (2005).                           |
 |                                                               |
 |          in all publications arising from your use of ONETEP. |
 |                                                               |
 +---------------------------------------------------------------+
 |                                                               |
 |   ONETEP is based on developments described in the following  |
 |   publications:                                               |
 |                                                               |
 |  "Nonorthogonal generalized Wannier function pseudopotential  |
 |   plane-wave method".                                         |
 |   C.-K. Skylaris, A. A. Mostofi, P. D. Haynes, O. Dieguez,    |
 |   M. C. Payne.                                                |
 |   Phys. Rev. B 66 035119 (2002).                              |
 |                                                               |
 |  "Preconditioned iterative minimization for linear-scaling    |
 |   electronic structure calculations".                         |
 |   A. A. Mostofi, P. D. Haynes, C.-K. Skylaris, M. C. Payne.   |
 |   J. Chem. Phys. 119(17), pp.8842-8848 (2003).                |
 |                                                               |
 |  "Total-energy calculations on a real space grid with         |
 |   localized functions and a plane-wave basis".                |
 |   A. A. Mostofi, C.-K. Skylaris, P. D. Haynes, M. C. Payne.   |
 |   Comput. Phys. Commun. 147, pp.788-802 (2002).               |
 |                                                               |
 |  "Accurate kinetic energy evaluation in electronic structure  |
 |   calculations with localized functions on real space grids"  |
 |   C.-K. Skylaris, A. A. Mostofi, P. D. Haynes, C. J. Pickard, |
 |   M. C. Payne.                                                |
 |   Comput. Phys. Commun. 140, pp.315-322 (2001).               |
 |                                                               |
 |  "Accurate ionic forces and geometry optimization in linear-  |
 |   scaling density-functional theory with local orbitals"      |
 |   N. D. M. Hine, M. Robinson, P. D. Haynes, C.-K. Skylaris,   |
 |   M. C. Payne, and A. A. Mostofi.                             |
 |   Phys. Rev. B 83 195102 (2011).                              |
 |                                                               |
 +---------------------------------------------------------------+

Job started: 16-02-2020 19:43 (-0000)
 
Reading parameters from file "host_21761.dat" ...... done

If your calculation crashes here, before "Checking processes and threads..."
is displayed, then your stack size is insufficient.
If so, use "ulimit -s unlimited" at runtime.
You can disable this check with "check_stack_size F".

Checking processes and threads...
   Determining the default number of threads...
      No default threads set at compilation time: defaulting to 1.
      OpenMP library call suggests 4 threads.
      Hybrid MPI-OpenMP compilation detected.
      Number of MPI processes > 1.
      OMP_NUM_THREADS environment variable present and
      its value matches the one obtained from the OpenMP library call.
      Using this value as default.
      Default threads: 4
      Default applies to threads_max and threads_num_fftboxes.
      Settings in the input file override this default.
   ... done

   Running with 60 MPI processes.
   There are 6 MPI processes running on the same node as the root process.
   Each MPI process is using: 
               1 threads for simulation cell FFTs.
               1 threads for parallel FFT box operations.
               4 threads for loops over batched FFT box operations.
               4 threads in other parallel regions.
... done

Basic input checks...... done

Reading geometry and species blocks from file "host_21761.dat" ...
  <species_atomic_set> block not found: NGWF initialisation set to SOLVE
IS: Dielectric excluded regions:
    - NONE.
    
  Number of PPD points along a3 set to 1.  This is 
  the default value, it may have been provided also in the input file.
... done
 Writing xyz coordinates to file "host_21761.xyz" ... done


--------------------------------------------------------------------------------
---------------------------------- INPUT FILE ----------------------------------
--------------------------------------------------------------------------------

cutoff_energy       : 800 eV                                                    
xc_functional VV10                                                              
task SINGLEPOINT                                                                
write_xyz true                                                                  
output_detail VERBOSE                                                           
ngwf_threshold_orig : 0.000002                                                  
kernel_cutoff       : 1000                                                      
k_zero              : 3.5                                                       
elec_cg_max 0                                                                   
occ_mix 1.0                                                                     
dispersion 0                                                                    
maxit_ngwf_cg 40                                                                
minit_lnv 10                                                                    
maxit_lnv 10                                                                    
write_denskern T                                                                
write_tightbox_ngwfs T                                                          
charge 9                                                                        
is_implicit_solvent T                                                           
is_auto_solvation T                                                             
is_include_apolar T                                                             
is_smeared_ion_rep T                                                            
is_solvent_surf_tension 4.7624E-5 Ha/bohr**2                                    
is_apolar_scaling_factor 0.281075                                               
is_solvation_beta 1.3                                                           
is_density_threshold 0.00035                                                    
is_bulk_permittivity 78.54                                                      
is_dielectric_model fix_initial                                                 
is_smeared_ion_width 0.8                                                        
mg_defco_fd_order 8                                                             
is_bc_coarseness 10                                                             
is_bc_surface_coarseness 1                                                      
fine_grid_scale 2.0                                                             
%block species                                                                  
N   N   7 4 8.0                                                                 
H   H   1 1 8.0                                                                 
C   C   6 4 8.0                                                                 
S   S  16 9 8.0                                                                 
O   O   8 4 8.0                                                                 
%endblock species                                                               
%block species_pot                                                              
N   N_00.recpot                                                                 
H   H_04.recpot                                                                 
C   C_01.recpot                                                                 
S   S_00.recpot                                                                 
O   O_02.recpot                                                                 
%endblock species_pot                                                           
%block lattice_cart                                                             
142.669   0.000   0.000                                                         
0.000 146.65   0.000                                                            
0.000   0.000   162.396                                                         
%endblock lattice_cart                                                          
%block positions_abs                                                            
     Hash =   000002286767593771055992
%endblock positions_abs                                                         

--------------------------------------------------------------------------------
-------------------------------- END INPUT FILE --------------------------------
--------------------------------------------------------------------------------


 
 ESDF WARNING(1): "kernelcutoff" (esdf_physical) has no units. Assume "bohr".
 ESDF WARNING(2): "kzero" (esdf_physical) has no units. Assume "1/bohr".
 ESDF WARNING(3
 ): "issmearedionwidth" (esdf_physical) has no units. Assume "bohr".
<<<<<<<<<<<<<<<<<<<<<<<<<<<<<<<<< Full system >>>>>>>>>>>>>>>>>>>>>>>>>>>>>>>>>>
<<<<<<<<<<<<<<<<<<<<<<<<< Pseudopotential information >>>>>>>>>>>>>>>>>>>>>>>>>>
File: N_00.recpot [ 2001 points up to Gmax=  52.9 (1/bohr)]
  Atomic number:  7;  ionic charge:  5.000000
    Shell 1: l = 0; rc = 1.48 bohr
File: H_04.recpot [ 2001 points up to Gmax=  52.9 (1/bohr)]
  Atomic number:  1;  ionic charge:  1.000000
    Local potential
File: C_01.recpot [ 2001 points up to Gmax=  52.9 (1/bohr)]
  Atomic number:  6;  ionic charge:  4.000000
    Shell 1: l = 0; rc = 1.48 bohr
File: S_00.recpot [ 2001 points up to Gmax=  52.9 (1/bohr)]
  Atomic number: 16;  ionic charge:  6.000000
    Shell 1: l = 0; rc = 1.90 bohr
    Shell 2: l = 2; rc = 1.84 bohr
File: O_02.recpot [ 2001 points up to Gmax=  52.9 (1/bohr)]
  Atomic number:  8;  ionic charge:  6.000000
    Shell 1: l = 0; rc = 1.31 bohr
<<<<<<<<<<<<<<<<<<<<<<<<<<<<<<<<<<<<<<<<>>>>>>>>>>>>>>>>>>>>>>>>>>>>>>>>>>>>>>>>

-------------------------- Atom counting information ---------------------------
Symbol    Natoms    Nngwfs    Nprojs
  N        236       944       236
  H       1311      1311         0
  C        810      3240       810
  S          6        54        36
  O        239       956       239
.......   ......    ......    ......
Totals:   2602      6505      1321
--------------------------------------------------------------------------------

=============================== PSINC grid sizes ===============================
                      Simulation cell:  286 x 294 x 320
                              FFT-box:  105 x 105 x  99
                                  PPD:   11 x   6 x   1
Grid space d1=  0.498842657343a0 (KE cutoff=  30.52649Eh = 830.66799eV)
Grid space d2=  0.498809523810a0 (KE cutoff=  30.53054Eh = 830.77835eV)
Grid space d3=  0.507487500000a0 (KE cutoff=  29.49533Eh = 802.60885eV)
================================================================================

********************* Fourier parallelisation information **********************
       Coarse grid (whole simulation cell) dimensions:    286   294   320
          Real-space ('12') slabs/node (min max mean):      5     6     5
         Recip-space ('23') slabs/node (min max mean):      2     3     2
********************************************************************************

********************* Fourier parallelisation information **********************
       Double grid (whole simulation cell) dimensions:    572   588   640
          Real-space ('12') slabs/node (min max mean):     10    11    10
         Recip-space ('23') slabs/node (min max mean):      4     5     4
********************************************************************************
ONETEP fine grid is 572 x 588 x 640 gridpoints, 142.6690 x 146.6500 x 162.3960 bohr.
FD multigrid is     569 x 585 x 633 gridpoints, 141.9207 x 145.9018 x 160.6198 bohr.


Calculating local pseudopotential in open BC on a radial grid ...
Discrepancy between calculated realspace psloc and -Z/x on [5a0,261.215a0]:
max |rel. diff| # avg |rel. diff| #  avg rel. diff #  f # pseudopotential file
 0.000261901569    0.000004963664   0.000000071970   55  'N_00.recpot'
 0.000422260137    0.000017549664  -0.000000063361   55  'H_04.recpot'
 0.000361991046    0.000016543264   0.000000134927   55  'C_01.recpot'
 0.000447743184    0.000019132268   0.000000438157   55  'S_00.recpot'
 0.000711628927    0.000028437426   0.000000135877   55  'O_02.recpot'
... done

Atom SCF Calculation for N  : Z (AE atom) =   7 : Z (PS atom) =   5
Config String:
Orbitals (num,occ):  2     2.00 3.00
Orbitals   (num,l):  2        0    1
Real-space Grid (nr,dr,rmax): 1203    0.0066555740    8.0000000000
Spherical Bessel Basis (nsws,lmax,cutoff):   47    1  176.3951722778
Confining potential (l,width,scale):  0    3.0000000000  100.0000000000
Confining potential (l,width,scale):  1    3.0000000000  100.0000000000
  1         -4.7366890484   -3.4501654188    7.0523828109   -1.9619316308
  2         -9.7225420322   -2.0763080851    8.3068355706   -2.2908832437
  3         -9.7134243553   -2.1270543915    8.2534567806   -2.2819809971
  4         -9.7235185949   -2.1427582218    8.2369947390   -2.2802814234
  5         -9.7258373845   -2.1477905863    8.2317116314   -2.2798536235
  6         -9.7268932325   -2.1503512400    8.2290229806   -2.2796830099
  7         -9.7273189469   -2.1516634231    8.2276451699   -2.2796169657
  8         -9.7274675212   -2.1523365544    8.2269384796   -2.2795940092
  9         -9.7275041773   -2.1526817003    8.2265762312   -2.2795881371
 10         -9.7275008637   -2.1528585007    8.2263907413   -2.2795884060
 11         -9.7274868305   -2.1529489544    8.2262958841   -2.2795903922
 12         -9.7274755655   -2.1529859230    8.2262571347   -2.2795920452
 13         -9.7274662327   -2.1530083995    8.2262335832   -2.2795934369
 14         -9.7274589439   -2.1530220534    8.2262192809   -2.2795945372
 15         -9.7274534633   -2.1530303399    8.2262106039   -2.2795953734
 16         -9.7274494492   -2.1530353634    8.2262053452   -2.2795959920
 17         -9.7274465654   -2.1530384053    8.2262021621   -2.2795964406
 18         -9.7274445237   -2.1530402447    8.2262002378   -2.2795967611
 19         -9.7274430947   -2.1530413553    8.2261990762   -2.2795969874
 20         -9.7274421038   -2.1530420249    8.2261983762   -2.2795971458
 21         -9.7274414219   -2.1530424277    8.2261979551   -2.2795972557
 22         -9.7274409555   -2.1530426696    8.2261977024   -2.2795973315
 23         -9.7274406382   -2.1530428144    8.2261975510   -2.2795973835
 24         -9.7274404232   -2.1530429010    8.2261974606   -2.2795974190
 25         -9.7274402783   -2.1530429525    8.2261974067   -2.2795974432
 26         -9.7274401808   -2.1530429831    8.2261973748   -2.2795974596
Atom SCF converged after  26 iterations to a total energy of     -9.72744018

Atom SCF Calculation for H  : Z (AE atom) =   1 : Z (PS atom) =   1
Config String:
Orbitals (num,occ):  1     1.00
Orbitals   (num,l):  1        0
Real-space Grid (nr,dr,rmax): 1203    0.0066555740    8.0000000000
Spherical Bessel Basis (nsws,lmax,cutoff):   47    0  176.3951722778
Confining potential (l,width,scale):  0    3.0000000000  100.0000000000
  1         -0.3178661827   -0.2469879004    0.2820953124   -0.2487802071
  2         -0.3961824611   -0.2455070831    0.2902209900   -0.2567664324
  3         -0.4406462424   -0.2424227551    0.2948173255   -0.2622129794
  4         -0.4569739054   -0.2416771342    0.2960118236   -0.2639986016
  5         -0.4627745219   -0.2416114401    0.2961916694   -0.2644992007
  6         -0.4648634749   -0.2416666130    0.2961598921   -0.2646237065
  7         -0.4656347011   -0.2417155160    0.2961132802   -0.2646490719
  8         -0.4659271144   -0.2417438448    0.2960836537   -0.2646515522
  9         -0.4660407254   -0.2417580788    0.2960682004   -0.2646501482
 10         -0.4660857867   -0.2417647566    0.2960608087   -0.2646488305
 11         -0.4661039568   -0.2417677717    0.2960574330   -0.2646480606
 12         -0.4661113773   -0.2417691018    0.2960559329   -0.2646476727
 13         -0.4661144368   -0.2417696800    0.2960552775   -0.2646474903
 14         -0.4661157072   -0.2417699291    0.2960549942   -0.2646474079
 15         -0.4661162374   -0.2417700356    0.2960548727   -0.2646473715
 16         -0.4661164596   -0.2417700810    0.2960548208   -0.2646473556
 17         -0.4661165529   -0.2417701003    0.2960547987   -0.2646473488
Atom SCF converged after  17 iterations to a total energy of     -0.46611655

Atom SCF Calculation for C  : Z (AE atom) =   6 : Z (PS atom) =   4
Config String:
Orbitals (num,occ):  2     2.00 2.00
Orbitals   (num,l):  2        0    1
Real-space Grid (nr,dr,rmax): 1203    0.0066555740    8.0000000000
Spherical Bessel Basis (nsws,lmax,cutoff):   47    1  176.3951722778
Confining potential (l,width,scale):  0    3.0000000000  100.0000000000
Confining potential (l,width,scale):  1    3.0000000000  100.0000000000
  1         -5.2812238291   -1.3293161250    4.5135249990   -1.4716766231
  2         -5.3996591362   -1.3542148509    4.4876064308   -1.4645117417
  3         -5.4111847148   -1.3757224423    4.4645718036   -1.4593107263
  4         -5.4199203659   -1.3833334895    4.4563636676   -1.4579885221
  5         -5.4226876204   -1.3865104950    4.4529090432   -1.4575385943
  6         -5.4235070726   -1.3878131251    4.4514866831   -1.4573882877
  7         -5.4237271252   -1.3883401868    4.4509094528   -1.4573411661
  8         -5.4237693051   -1.3885521813    4.4506766230   -1.4573281030
  9         -5.4237656430   -1.3886371046    4.4505830704   -1.4573255254
 10         -5.4237547927   -1.3886709976    4.4505456041   -1.4573257244
 11         -5.4237478594   -1.3886817763    4.4505336403   -1.4573262476
 12         -5.4237429748   -1.3886873440    4.4505274417   -1.4573266921
 13         -5.4237397042   -1.3886902144    4.4505242350   -1.4573270222
 14         -5.4237375865   -1.3886916908    4.4505225792   -1.4573272507
 15         -5.4237362473   -1.3886924482    4.4505217259   -1.4573274021
 16         -5.4237354152   -1.3886928356    4.4505212873   -1.4573274996
 17         -5.4237349050   -1.3886930331    4.4505210623   -1.4573275610
 18         -5.4237345954   -1.3886931333    4.4505209473   -1.4573275991
 19         -5.4237344092   -1.3886931840    4.4505208887   -1.4573276224
 20         -5.4237342980   -1.3886932094    4.4505208590   -1.4573276366
 21         -5.4237342320   -1.3886932221    4.4505208440   -1.4573276451
Atom SCF converged after  21 iterations to a total energy of     -5.42373423

Atom SCF Calculation for S  : Z (AE atom) =  16 : Z (PS atom) =   6
Config String:
Orbitals (num,occ):  3     2.00 4.00 0.00
Orbitals   (num,l):  3        0    1    2
Real-space Grid (nr,dr,rmax): 1203    0.0066555740    8.0000000000
Spherical Bessel Basis (nsws,lmax,cutoff):   47    2  176.3951722778
Confining potential (l,width,scale):  0    3.0000000000  100.0000000000
Confining potential (l,width,scale):  1    3.0000000000  100.0000000000
Confining potential (l,width,scale):  2    3.0000000000  100.0000000000
  1        -12.4916237786   -1.0485914554   10.1554312477   -2.4822447765
  2         -9.9747083603   -2.4807597367    8.3138131863   -2.0618837268
  3        -10.1811370131   -2.3153496392    8.4906092179   -2.1137756843
  4        -10.1856385898   -2.2984912006    8.5093862195   -2.1218167101
  5        -10.1891317560   -2.2894783333    8.5195006030   -2.1261392389
  6        -10.1911142562   -2.2849160124    8.5246320974   -2.1283733378
  7        -10.1921506977   -2.2826473329    8.5271859473   -2.1295140514
  8        -10.1926851273   -2.2815219985    8.5284534218   -2.1300957983
  9        -10.1929632671   -2.2809620806    8.5290843811   -2.1303933136
 10        -10.1931100895   -2.2806822783    8.5293998452   -2.1305460626
 11        -10.1931885828   -2.2805418782    8.5295582201   -2.1306248009
 12        -10.1932309625   -2.2804711729    8.5296380158   -2.1306655459
 13        -10.1932540142   -2.2804354512    8.5296783476   -2.1306867097
 14        -10.1932666242   -2.2804173494    8.5296987927   -2.1306977435
 15        -10.1932735535   -2.2804081489    8.5297091868   -2.1307035175
 16        -10.1932773756   -2.2804034581    8.5297144867   -2.1307065505
 17        -10.1932794908   -2.2804010586    8.5297171976   -2.1307081499
 18        -10.1932806648   -2.2803998268    8.5297185890   -2.1307089965
 19        -10.1932813181   -2.2803991920    8.5297193057   -2.1307094466
 20        -10.1932816826   -2.2803988634    8.5297196763   -2.1307096867
 21        -10.1932818864   -2.2803986926    8.5297198688   -2.1307098154
 22        -10.1932820006   -2.2803986034    8.5297199692   -2.1307098847
 23        -10.1932820648   -2.2803985565    8.5297200219   -2.1307099221
Atom SCF converged after  23 iterations to a total energy of    -10.19328206

Atom SCF Calculation for O  : Z (AE atom) =   8 : Z (PS atom) =   6
Config String:
Orbitals (num,occ):  2     2.00 4.00
Orbitals   (num,l):  2        0    1
Real-space Grid (nr,dr,rmax): 1203    0.0066555740    8.0000000000
Spherical Bessel Basis (nsws,lmax,cutoff):   47    1  176.3951722778
Confining potential (l,width,scale):  0    3.0000000000  100.0000000000
Confining potential (l,width,scale):  1    3.0000000000  100.0000000000
  1         -1.9497477053   -7.5870966769   10.1554312477   -2.4822447765
  2        -15.9466298225   -3.1778351734   13.6353006614   -3.2931224232
  3        -16.0387051750   -3.0909030611   13.7305651010   -3.3194522996
  4        -15.9025031450   -3.1083023605   13.7128101414   -3.3180850501
  5        -15.8912953362   -3.1033022259   13.7185404266   -3.3206942093
  6        -15.8793912992   -3.1043100674   13.7175820250   -3.3209366960
  7        -15.8748748605   -3.1043975610   13.7175531476   -3.3211845618
  8        -15.8725354084   -3.1044655610   13.7175148333   -3.3213149154
  9        -15.8713193866   -3.1045129589   13.7174824743   -3.3213832909
 10        -15.8706863385   -3.1045436851   13.7174593895   -3.3214192053
 11        -15.8703562731   -3.1045627330   13.7174442347   -3.3214381098
 12        -15.8701839150   -3.1045741887   13.7174347673   -3.3214480859
 13        -15.8700937727   -3.1045809294   13.7174290448   -3.3214533647
 14        -15.8700465571   -3.1045848305   13.7174256662   -3.3214561658
 15        -15.8700217888   -3.1045870593   13.7174237063   -3.3214576563
 16        -15.8700087767   -3.1045883194   13.7174225849   -3.3214584516
 17        -15.8700019307   -3.1045890258   13.7174219502   -3.3214588771
 18        -15.8699983237   -3.1045894190   13.7174215942   -3.3214591053
 19        -15.8699964206   -3.1045896366   13.7174213960   -3.3214592281
 20        -15.8699954151   -3.1045897563   13.7174212864   -3.3214592942
 21        -15.8699948832   -3.1045898219   13.7174212260   -3.3214593299
 22        -15.8699946014   -3.1045898577   13.7174211930   -3.3214593493
 23        -15.8699944520   -3.1045898771   13.7174211750   -3.3214593597
 24        -15.8699943726   -3.1045898877   13.7174211652   -3.3214593654
Atom SCF converged after  24 iterations to a total energy of    -15.86999437

========================== Calculation in vacuum ==============================
= Adjusting the following parameters: 
= is_implicit_solvent: F
= is_include_apolar: F
= write_denskern: T
= write_tightbox_ngwfs: T
= restart read filename prefix: ""
= restart write filename prefix: "vacuum_"
===============================================================================

Determining parallel strategy ...
... using space-filling curve
... NGWF load balancing: max    109;  min    108;  average    108
... Projector load balancing: max     25;  min     21;  average     22
... done
Calculating direct Ion-Ion energy ...
Ion-Ion Energy        :    825133.24562082195189
Basis initialisation ...... NGWF spheres initialised
... Projector spheres initialised
... NGWF tight boxes initialised
... Tight-boxes gathered
... NGWF basis size (local,global):     975028  58706011
... Nonlocal pseudopotential projector initialisation
... done

========================== Sparse matrix information ===========================
                        Overlap matrix filling:   6.70%
                        Density kernel filling: 100.00%
              NGWF-Proj overlap matrix filling:   1.76%
                    Hamiltonian matrix filling:   7.54%
                  NGWF diagonal matrix filling:   0.05%
                             KS matrix filling: 100.00% 
                           KSKS matrix filling: 100.00% 
================================================================================

Sparse matrix initialisation ... done

Generating smeared ion density ... done
Smeared ion self correction:     -14457.169564
Smeared ion non-self correction: -825085.325114
NGWF initialisation ...... done
============ Calculation of NGWF S^-1 using Hotelling algorithm ================ 
         Iteration  |  Frobenius norm and Maximum abs value    (of I-S*S_n^-1)   
               1       0.78469792E+02     0.98246041E+00
               2       0.76608191E+02     0.96541393E+00
               3       0.73591100E+02     0.93269432E+00
               4       0.69300436E+02     0.87213143E+00
               5       0.63960899E+02     0.76686375E+00
               6       0.57974996E+02     0.70281873E+00
               7       0.51972038E+02     0.66808374E+00
               8       0.46418079E+02     0.64502079E+00
               9       0.40307576E+02     0.60673239E+00
              10       0.31976523E+02     0.53870625E+00
              11       0.21376833E+02     0.42724892E+00
              12       0.10840891E+02     0.27602853E+00
              13       0.35434257E+01     0.13220767E+00
              14       0.56245393E+00     0.38915201E-01
              15       0.29807979E-01     0.39146278E-02
              16       0.21820534E-03     0.42483511E-04
              17       0.19566040E-07     0.50736633E-08
              18       0.91865349E-13     0.55511151E-14
================================================================================
Calculating local pseudopotential in open BC on the fine real space grid ...
... done

MG BCs: +ve charge blocks (gridpoints):     20710 (   16358606).
MG BCs: -ve charge blocks (gridpoints):      8089 (    1097645).
MG BCs:     Elided blocks (gridpoints):    194522 (  193247294).
MG BCs: Computational effort saved:  99.9863%.
MG BCs: Charge after coarse-graining:           -9.0002316.
MG DL_MG: Calling solver with defect correction order = 8
MG DL_MG: Solver finished
MG Hartree energy from (\int phi*rho dr):              1452.559784
MG Hartree energy from (\int eps (grad phi)^2 dr):     1451.956186
MG Discrepancy due to finite box and discretization:     -0.603598 (  -0.04155%)
MG Correction to account for finite box:                  0.453840
MG Remaining discrepancy, due to discretization:         -0.149758 (  -0.01031%)
Up spin density kernel initialisation ... 
======= Optimisation of K by Palser-Manolopoulos canonical purification ======== 
         Iteration  |  Band structure energy |    c_n   
               1       -2580.67031667320589    0.5262642
               2       -2756.43631766838644    0.5169188
               3       -2935.69910612299827    0.5162295
               4       -3083.99660164664874    0.5312355
               5       -3173.84152593197632    0.5688816
               6       -3210.86215212770185    0.6124139
               7       -3223.56447093530733    0.6196234
               8       -3229.25061190623728    0.6144487
               9       -3232.02696821309564    0.6299524
              10       -3233.13710999394152    0.6699841
              11       -3233.52885742226863    0.7113483
              12       -3233.68380489122956    0.7293380
              13       -3233.76234653493793    0.7031759
              14       -3233.81686348059566    0.6444131
              15       -3233.85875508321715    0.5774522
              16       -3233.88502543969253    0.5271442
              17       -3233.89500146884575    0.5012414
              18       -3233.89695610069793    0.4980823
              19       -3233.89713852327259    0.4998845
              20       -3233.89714398330216    0.5000028
              21       -3233.89714398996239    0.5000028
Termination criterion satisfied: band energy change below threshold.
Final occupancy bounds: [    0.00000000000000:    1.00000000000000]
Closest occupancy to 0.5:     1.00000000000000
================================================================================
... done

Writing density kernel to file "host_21761.vacuum_dkn" ... done

>>> Optimising kernel for current NGWFs:
   Initial electron number for spin 1:    7192.00000000
     Final electron number for spin 1:    7192.00000000

=================== Penalty functional idempotency correction ==================
 RMS occupancy error at iteration   1:  0.000000 (step -0.5000 Ne1=   7192.0000)
            Final RMS occupancy error   :  0.000000 (Ne1=   7192.0000)
               Final occupancy bounds   : [  0.0000,  1.0000]
================================================================================

................................................................................
<<<<<<<<<<<<<< LNV (Original version) density kernel optimisation >>>>>>>>>>>>>>
~~~~~~~~~~~~~~~~~~~~~~~~~~~~~~~~~~~~~~~~~~~~~~~~~~~~~~~~~~~~~~~~~~~~~~~~~~~~~~~~
   iter  |      energy (Eh)       | rms gradient |  commutator  |   dE (Eh)
MG BCs: +ve charge blocks (gridpoints):     31632 (   17468135).
MG BCs: -ve charge blocks (gridpoints):      8395 (    1127021).
MG BCs:     Elided blocks (gridpoints):    183594 (  192108389).
MG BCs: Computational effort saved:  99.9810%.
MG BCs: Charge after coarse-graining:           -9.0010087.
MG DL_MG: Calling solver with defect correction order = 8
MG DL_MG: Solver finished
MG Hartree energy from (\int phi*rho dr):              1415.883794
MG Hartree energy from (\int eps (grad phi)^2 dr):     1415.232508
MG Discrepancy due to finite box and discretization:     -0.651287 (  -0.04600%)
MG Correction to account for finite box:                  0.460155
MG Remaining discrepancy, due to discretization:         -0.191132 (  -0.01350%)
      ideal mu1:      -0.722138391294
             Q0:  -11526.676746473764
             G0:    -147.311111987469
   RMS gradient:       0.001865823046
MG BCs: +ve charge blocks (gridpoints):     31664 (   17544934).
MG BCs: -ve charge blocks (gridpoints):      8299 (    1109434).
MG BCs:     Elided blocks (gridpoints):    183561 (  192049177).
MG BCs: Computational effort saved:  99.9810%.
MG BCs: Charge after coarse-graining:           -9.0010312.
MG DL_MG: Calling solver with defect correction order = 8
MG DL_MG: Solver finished
MG Hartree energy from (\int phi*rho dr):              1435.400612
MG Hartree energy from (\int eps (grad phi)^2 dr):     1434.766061
MG Discrepancy due to finite box and discretization:     -0.634551 (  -0.04421%)
MG Correction to account for finite box:                  0.459477
MG Remaining discrepancy, due to discretization:         -0.175074 (  -0.01220%)
     Trial step:       0.500000000000
             Q1:  -11538.087619017344
 Quadratic coef:      62.244683450155
 Linear coef   :     -73.655555993734
           Qmin:  -11548.466322016751
Quadratic minimum step length (  0.295830711601) accepted
    Initial Ne1:    7192.00000000
      Final Ne1:    7192.00000000

=================== Penalty functional idempotency correction ==================
 RMS occupancy error at iteration   1:  0.003527 (step -0.4879 Ne1=   7192.0000)
 RMS occupancy error at iteration   2:  0.000027 (step -0.5000 Ne1=   7192.0000)
            Final RMS occupancy error   :  0.000000 (Ne1=   7192.0000)
               Final occupancy bounds   : [  0.0000,  1.0000]
================================================================================

    1        -1.152667674647E+04     1.8658E-03     1.6876E-03
MG BCs: +ve charge blocks (gridpoints):     31651 (   17514680).
MG BCs: -ve charge blocks (gridpoints):      8335 (    1117258).
MG BCs:     Elided blocks (gridpoints):    183573 (  192071607).
MG BCs: Computational effort saved:  99.9810%.
MG BCs: Charge after coarse-graining:           -9.0010219.
MG DL_MG: Calling solver with defect correction order = 8
MG DL_MG: Solver finished
MG Hartree energy from (\int phi*rho dr):              1419.253881
MG Hartree energy from (\int eps (grad phi)^2 dr):     1418.613473
MG Discrepancy due to finite box and discretization:     -0.640408 (  -0.04512%)
MG Correction to account for finite box:                  0.459652
MG Remaining discrepancy, due to discretization:         -0.180756 (  -0.01274%)
      ideal mu1:      -0.760656286010
             Q0:  -11548.913448375068
             G0:     -11.907169181497
   RMS gradient:       0.000526606688
MG BCs: +ve charge blocks (gridpoints):     31657 (   17531027).
MG BCs: -ve charge blocks (gridpoints):      8317 (    1112441).
MG BCs:     Elided blocks (gridpoints):    183567 (  192060077).
MG BCs: Computational effort saved:  99.9810%.
MG BCs: Charge after coarse-graining:           -9.0010261.
MG DL_MG: Calling solver with defect correction order = 8
MG DL_MG: Solver finished
MG Hartree energy from (\int phi*rho dr):              1423.716624
MG Hartree energy from (\int eps (grad phi)^2 dr):     1423.080011
MG Discrepancy due to finite box and discretization:     -0.636613 (  -0.04471%)
MG Correction to account for finite box:                  0.459093
MG Remaining discrepancy, due to discretization:         -0.177520 (  -0.01247%)
     Trial step:       0.384597654440
             Q1:  -11551.743338452652
 Quadratic coef:       1.749579260635
 Linear coef   :      -4.579469338220
           Qmin:  -11551.910103041071
Quadratic minimum step length (  0.503336203648) accepted
    Initial Ne1:    7191.99990474
      Final Ne1:    7192.00000000

=================== Penalty functional idempotency correction ==================
 RMS occupancy error at iteration   1:  0.001877 (step -0.4928 Ne1=   7192.0000)
 RMS occupancy error at iteration   2:  0.000010 (step -0.5001 Ne1=   7192.0000)
            Final RMS occupancy error   :  0.000000 (Ne1=   7192.0000)
               Final occupancy bounds   : [  0.0000,  1.0000]
================================================================================

    2        -1.154891344838E+04     5.2661E-04     4.7630E-04    -2.2237E+01
MG BCs: +ve charge blocks (gridpoints):     31660 (   17536205).
MG BCs: -ve charge blocks (gridpoints):      8306 (    1110939).
MG BCs:     Elided blocks (gridpoints):    183564 (  192056401).
MG BCs: Computational effort saved:  99.9810%.
MG BCs: Charge after coarse-graining:           -9.0010274.
MG DL_MG: Calling solver with defect correction order = 8
MG DL_MG: Solver finished
MG Hartree energy from (\int phi*rho dr):              1425.137013
MG Hartree energy from (\int eps (grad phi)^2 dr):     1424.501484
MG Discrepancy due to finite box and discretization:     -0.635529 (  -0.04459%)
MG Correction to account for finite box:                  0.458937
MG Remaining discrepancy, due to discretization:         -0.176591 (  -0.01239%)
      ideal mu1:      -0.781789398965
             Q0:  -11551.946890701656
             G0:      -1.896918464321
   RMS gradient:       0.000210493057
MG BCs: +ve charge blocks (gridpoints):     31663 (   17536380).
MG BCs: -ve charge blocks (gridpoints):      8305 (    1111654).
MG BCs:     Elided blocks (gridpoints):    183562 (  192055511).
MG BCs: Computational effort saved:  99.9810%.
MG BCs: Charge after coarse-graining:           -9.0010268.
MG DL_MG: Calling solver with defect correction order = 8
MG DL_MG: Solver finished
MG Hartree energy from (\int phi*rho dr):              1423.596800
MG Hartree energy from (\int eps (grad phi)^2 dr):     1422.961661
MG Discrepancy due to finite box and discretization:     -0.635139 (  -0.04462%)
MG Correction to account for finite box:                  0.458662
MG Remaining discrepancy, due to discretization:         -0.176478 (  -0.01240%)
     Trial step:       0.439979457836
             Q1:  -11552.426430243184
 Quadratic coef:       0.355065615962
 Linear coef   :      -0.834605157491
           Qmin:  -11552.437339324104
Quadratic minimum step length (  0.517100372708) accepted
    Initial Ne1:    7191.99995936
      Final Ne1:    7192.00000000

=================== Penalty functional idempotency correction ==================
 RMS occupancy error at iteration   1:  0.000620 (step -0.4975 Ne1=   7192.0000)
 RMS occupancy error at iteration   2:  0.000001 (step -0.5000 Ne1=   7192.0000)
            Final RMS occupancy error   :  0.000000 (Ne1=   7192.0000)
               Final occupancy bounds   : [  0.0000,  1.0000]
================================================================================

    3        -1.155194689070E+04     2.1049E-04     1.9039E-04    -3.0334E+00
MG BCs: +ve charge blocks (gridpoints):     31663 (   17536374).
MG BCs: -ve charge blocks (gridpoints):      8304 (    1111797).
MG BCs:     Elided blocks (gridpoints):    183563 (  192055374).
MG BCs: Computational effort saved:  99.9810%.
MG BCs: Charge after coarse-graining:           -9.0010267.
MG DL_MG: Calling solver with defect correction order = 8
MG DL_MG: Solver finished
MG Hartree energy from (\int phi*rho dr):              1423.333695
MG Hartree energy from (\int eps (grad phi)^2 dr):     1422.698614
MG Discrepancy due to finite box and discretization:     -0.635081 (  -0.04462%)
MG Correction to account for finite box:                  0.458614
MG Remaining discrepancy, due to discretization:         -0.176466 (  -0.01240%)
      ideal mu1:      -0.782899743696
             Q0:  -11552.442201106809
             G0:      -0.471343310622
   RMS gradient:       0.000104948076
MG BCs: +ve charge blocks (gridpoints):     31667 (   17537190).
MG BCs: -ve charge blocks (gridpoints):      8305 (    1111755).
MG BCs:     Elided blocks (gridpoints):    183559 (  192054600).
MG BCs: Computational effort saved:  99.9810%.
MG BCs: Charge after coarse-graining:           -9.0010268.
MG DL_MG: Calling solver with defect correction order = 8
MG DL_MG: Solver finished
MG Hartree energy from (\int phi*rho dr):              1424.331639
MG Hartree energy from (\int eps (grad phi)^2 dr):     1423.696596
MG Discrepancy due to finite box and discretization:     -0.635043 (  -0.04459%)
MG Correction to account for finite box:                  0.458495
MG Remaining discrepancy, due to discretization:         -0.176549 (  -0.01240%)
     Trial step:       0.476983795983
             Q1:  -11552.546740079415
 Quadratic coef:       0.120284148907
 Linear coef   :      -0.224823121512
           Qmin:  -11552.547255339694
Quadratic minimum step length (  0.445765243793) accepted
    Initial Ne1:    7191.99999114
      Final Ne1:    7192.00000000

=================== Penalty functional idempotency correction ==================
 RMS occupancy error at iteration   1:  0.000204 (step -0.4991 Ne1=   7192.0000)
 RMS occupancy error at iteration   2:  0.000000 (step -0.5000 Ne1=   7192.0000)
            Final RMS occupancy error   :  0.000000 (Ne1=   7192.0000)
               Final occupancy bounds   : [  0.0000,  1.0000]
================================================================================

    4        -1.155244220111E+04     1.0495E-04     9.4923E-05    -4.9531E-01
MG BCs: +ve charge blocks (gridpoints):     31666 (   17537126).
MG BCs: -ve charge blocks (gridpoints):      8305 (    1111761).
MG BCs:     Elided blocks (gridpoints):    183560 (  192054658).
MG BCs: Computational effort saved:  99.9810%.
MG BCs: Charge after coarse-graining:           -9.0010268.
MG DL_MG: Calling solver with defect correction order = 8
MG DL_MG: Solver finished
MG Hartree energy from (\int phi*rho dr):              1424.266115
MG Hartree energy from (\int eps (grad phi)^2 dr):     1423.631069
MG Discrepancy due to finite box and discretization:     -0.635045 (  -0.04459%)
MG Correction to account for finite box:                  0.458502
MG Remaining discrepancy, due to discretization:         -0.176543 (  -0.01240%)
      ideal mu1:      -0.783111827747
             Q0:  -11552.547775977058
             G0:      -0.108671851351
   RMS gradient:       0.000050560677
MG BCs: +ve charge blocks (gridpoints):     31665 (   17537397).
MG BCs: -ve charge blocks (gridpoints):      8305 (    1111533).
MG BCs:     Elided blocks (gridpoints):    183561 (  192054615).
MG BCs: Computational effort saved:  99.9810%.
MG BCs: Charge after coarse-graining:           -9.0010267.
MG DL_MG: Calling solver with defect correction order = 8
MG DL_MG: Solver finished
MG Hartree energy from (\int phi*rho dr):              1424.666293
MG Hartree energy from (\int eps (grad phi)^2 dr):     1424.031108
MG Discrepancy due to finite box and discretization:     -0.635186 (  -0.04458%)
MG Correction to account for finite box:                  0.458492
MG Remaining discrepancy, due to discretization:         -0.176693 (  -0.01240%)
     Trial step:       0.461110396870
             Q1:  -11552.574801868759
 Quadratic coef:       0.023083828804
 Linear coef   :      -0.050109720505
           Qmin:  -11552.574970166877
Quadratic minimum step length (  0.500482682161) accepted
    Initial Ne1:    7191.99999769
      Final Ne1:    7192.00000000

=================== Penalty functional idempotency correction ==================
 RMS occupancy error at iteration   1:  0.000071 (step -0.4997 Ne1=   7192.0000)
            Final RMS occupancy error   :  0.000000 (Ne1=   7192.0000)
               Final occupancy bounds   : [ -0.0000,  1.0000]
================================================================================

    5        -1.155254777598E+04     5.0561E-05     4.5731E-05    -1.0557E-01
MG BCs: +ve charge blocks (gridpoints):     31665 (   17537418).
MG BCs: -ve charge blocks (gridpoints):      8305 (    1111513).
MG BCs:     Elided blocks (gridpoints):    183561 (  192054614).
MG BCs: Computational effort saved:  99.9810%.
MG BCs: Charge after coarse-graining:           -9.0010267.
MG DL_MG: Calling solver with defect correction order = 8
MG DL_MG: Solver finished
MG Hartree energy from (\int phi*rho dr):              1424.700461
MG Hartree energy from (\int eps (grad phi)^2 dr):     1424.065264
MG Discrepancy due to finite box and discretization:     -0.635198 (  -0.04458%)
MG Correction to account for finite box:                  0.458492
MG Remaining discrepancy, due to discretization:         -0.176706 (  -0.01240%)
      ideal mu1:      -0.783008402337
             Q0:  -11552.575029549887
             G0:      -0.031323905822
   RMS gradient:       0.000027169227
MG BCs: +ve charge blocks (gridpoints):     31661 (   17537035).
MG BCs: -ve charge blocks (gridpoints):      8309 (    1111766).
MG BCs:     Elided blocks (gridpoints):    183565 (  192054744).
MG BCs: Computational effort saved:  99.9810%.
MG BCs: Charge after coarse-graining:           -9.0010265.
MG DL_MG: Calling solver with defect correction order = 8
MG DL_MG: Solver finished
MG Hartree energy from (\int phi*rho dr):              1424.053891
MG Hartree energy from (\int eps (grad phi)^2 dr):     1423.418691
MG Discrepancy due to finite box and discretization:     -0.635200 (  -0.04461%)
MG Correction to account for finite box:                  0.458494
MG Remaining discrepancy, due to discretization:         -0.176705 (  -0.01241%)
     Trial step:       0.480393347371
             Q1:  -11552.584748229710
 Quadratic coef:       0.005329116148
 Linear coef   :      -0.015047795971
           Qmin:  -11552.585652144578
Quadratic minimum step length (  0.678242027072) accepted
    Initial Ne1:    7192.00035457
      Final Ne1:    7192.00000000

=================== Penalty functional idempotency correction ==================
 RMS occupancy error at iteration   1:  0.000038 (step -0.4998 Ne1=   7192.0000)
            Final RMS occupancy error   :  0.000000 (Ne1=   7192.0000)
               Final occupancy bounds   : [ -0.0000,  1.0000]
================================================================================

    6        -1.155257502955E+04     2.7169E-05     2.4574E-05    -2.7254E-02
MG BCs: +ve charge blocks (gridpoints):     31661 (   17536877).
MG BCs: -ve charge blocks (gridpoints):      8309 (    1111849).
MG BCs:     Elided blocks (gridpoints):    183565 (  192054819).
MG BCs: Computational effort saved:  99.9810%.
MG BCs: Charge after coarse-graining:           -9.0010265.
MG DL_MG: Calling solver with defect correction order = 8
MG DL_MG: Solver finished
MG Hartree energy from (\int phi*rho dr):              1423.786988
MG Hartree energy from (\int eps (grad phi)^2 dr):     1423.151787
MG Discrepancy due to finite box and discretization:     -0.635200 (  -0.04461%)
MG Correction to account for finite box:                  0.458495
MG Remaining discrepancy, due to discretization:         -0.176705 (  -0.01241%)
      ideal mu1:      -0.782724653567
             Q0:  -11552.585663111415
             G0:      -0.015665465243
   RMS gradient:       0.000019240854
MG BCs: +ve charge blocks (gridpoints):     31662 (   17537369).
MG BCs: -ve charge blocks (gridpoints):      8307 (    1111576).
MG BCs:     Elided blocks (gridpoints):    183564 (  192054600).
MG BCs: Computational effort saved:  99.9810%.
MG BCs: Charge after coarse-graining:           -9.0010266.
MG DL_MG: Calling solver with defect correction order = 8
MG DL_MG: Solver finished
MG Hartree energy from (\int phi*rho dr):              1424.379968
MG Hartree energy from (\int eps (grad phi)^2 dr):     1423.744809
MG Discrepancy due to finite box and discretization:     -0.635159 (  -0.04459%)
MG Correction to account for finite box:                  0.458477
MG Remaining discrepancy, due to discretization:         -0.176682 (  -0.01240%)
     Trial step:       0.570809037869
             Q1:  -11552.589572448982
 Quadratic coef:       0.005032651576
 Linear coef   :      -0.008941989143
           Qmin:  -11552.589635131364
Quadratic minimum step length (  0.507105264741) accepted
    Initial Ne1:    7192.00011983
      Final Ne1:    7192.00000000

=================== Penalty functional idempotency correction ==================
 RMS occupancy error at iteration   1:  0.000002 (step -0.5000 Ne1=   7192.0000)
            Final RMS occupancy error   :  0.000000 (Ne1=   7192.0000)
               Final occupancy bounds   : [  0.0000,  1.0000]
================================================================================

    7        -1.155258566311E+04     1.9241E-05     1.7403E-05    -1.0634E-02
MG BCs: +ve charge blocks (gridpoints):     31662 (   17537310).
MG BCs: -ve charge blocks (gridpoints):      8307 (    1111591).
MG BCs:     Elided blocks (gridpoints):    183564 (  192054644).
MG BCs: Computational effort saved:  99.9810%.
MG BCs: Charge after coarse-graining:           -9.0010266.
MG DL_MG: Calling solver with defect correction order = 8
MG DL_MG: Solver finished
MG Hartree energy from (\int phi*rho dr):              1424.313685
MG Hartree energy from (\int eps (grad phi)^2 dr):     1423.678521
MG Discrepancy due to finite box and discretization:     -0.635164 (  -0.04459%)
MG Correction to account for finite box:                  0.458479
MG Remaining discrepancy, due to discretization:         -0.176684 (  -0.01240%)
      ideal mu1:      -0.783047209987
             Q0:  -11552.589635320241
             G0:      -0.008854637611
   RMS gradient:       0.000014466427
MG BCs: +ve charge blocks (gridpoints):     31663 (   17537406).
MG BCs: -ve charge blocks (gridpoints):      8307 (    1111556).
MG BCs:     Elided blocks (gridpoints):    183563 (  192054583).
MG BCs: Computational effort saved:  99.9810%.
MG BCs: Charge after coarse-graining:           -9.0010266.
MG DL_MG: Calling solver with defect correction order = 8
MG DL_MG: Solver finished
MG Hartree energy from (\int phi*rho dr):              1424.379890
MG Hartree energy from (\int eps (grad phi)^2 dr):     1423.744771
MG Discrepancy due to finite box and discretization:     -0.635119 (  -0.04459%)
MG Correction to account for finite box:                  0.458462
MG Remaining discrepancy, due to discretization:         -0.176657 (  -0.01240%)
     Trial step:       0.538015118993
             Q1:  -11552.593167730607
 Quadratic coef:       0.001231518541
 Linear coef   :      -0.004763928908
           Qmin:  -11552.594242441019
Quadratic minimum step length (  1.040611932453) accepted
    Initial Ne1:    7192.00013816
      Final Ne1:    7192.00000000

=================== Penalty functional idempotency correction ==================
 RMS occupancy error at iteration   1:  0.000020 (step -0.4995 Ne1=   7192.0000)
            Final RMS occupancy error   :  0.000000 (Ne1=   7192.0000)
               Final occupancy bounds   : [ -0.0000,  1.0000]
================================================================================

    8        -1.155258963532E+04     1.4466E-05     1.3085E-05    -3.9722E-03
MG BCs: +ve charge blocks (gridpoints):     31662 (   17537446).
MG BCs: -ve charge blocks (gridpoints):      8306 (    1111533).
MG BCs:     Elided blocks (gridpoints):    183564 (  192054566).
MG BCs: Computational effort saved:  99.9810%.
MG BCs: Charge after coarse-graining:           -9.0010267.
MG DL_MG: Calling solver with defect correction order = 8
MG DL_MG: Solver finished
MG Hartree energy from (\int phi*rho dr):              1424.440110
MG Hartree energy from (\int eps (grad phi)^2 dr):     1423.805034
MG Discrepancy due to finite box and discretization:     -0.635076 (  -0.04458%)
MG Correction to account for finite box:                  0.458444
MG Remaining discrepancy, due to discretization:         -0.176632 (  -0.01240%)
      ideal mu1:      -0.783120509058
             Q0:  -11552.594234873541
             G0:      -0.012010480160
   RMS gradient:       0.000016874632
MG BCs: +ve charge blocks (gridpoints):     31662 (   17537294).
MG BCs: -ve charge blocks (gridpoints):      8307 (    1111688).
MG BCs:     Elided blocks (gridpoints):    183564 (  192054563).
MG BCs: Computational effort saved:  99.9810%.
MG BCs: Charge after coarse-graining:           -9.0010266.
MG DL_MG: Calling solver with defect correction order = 8
MG DL_MG: Solver finished
MG Hartree energy from (\int phi*rho dr):              1424.116034
MG Hartree energy from (\int eps (grad phi)^2 dr):     1423.481025
MG Discrepancy due to finite box and discretization:     -0.635009 (  -0.04459%)
MG Correction to account for finite box:                  0.458414
MG Remaining discrepancy, due to discretization:         -0.176595 (  -0.01240%)
     Trial step:       0.748241239617
             Q1:  -11552.599853654392
 Quadratic coef:       0.003367955713
 Linear coef   :      -0.008986736563
           Qmin:  -11552.600229714399
Quadratic minimum step length (  0.998268308698) accepted
    Initial Ne1:    7192.00031887
      Final Ne1:    7192.00000000

=================== Penalty functional idempotency correction ==================
 RMS occupancy error at iteration   1:  0.000101 (step -0.4973 Ne1=   7192.0000)
 RMS occupancy error at iteration   2:  0.000000 (step -0.5000 Ne1=   7192.0000)
            Final RMS occupancy error   :  0.000000 (Ne1=   7192.0000)
               Final occupancy bounds   : [  0.0000,  1.0000]
================================================================================

    9        -1.155259423487E+04     1.6875E-05     1.5263E-05    -4.5996E-03
MG BCs: +ve charge blocks (gridpoints):     31662 (   17537225).
MG BCs: -ve charge blocks (gridpoints):      8307 (    1111759).
MG BCs:     Elided blocks (gridpoints):    183564 (  192054561).
MG BCs: Computational effort saved:  99.9810%.
MG BCs: Charge after coarse-graining:           -9.0010266.
MG DL_MG: Calling solver with defect correction order = 8
MG DL_MG: Solver finished
MG Hartree energy from (\int phi*rho dr):              1424.005099
MG Hartree energy from (\int eps (grad phi)^2 dr):     1423.370115
MG Discrepancy due to finite box and discretization:     -0.634984 (  -0.04459%)
MG Correction to account for finite box:                  0.458402
MG Remaining discrepancy, due to discretization:         -0.176582 (  -0.01240%)
      ideal mu1:      -0.782732161903
   10        -1.155260019556E+04     1.8430E-05     1.6669E-05    -5.9607E-03
Finished density kernel iterations (  10)

Writing density kernel to file "host_21761.vacuum_dkn" ... done


>>> Density kernel optimised for the current NGWF basis:
     ~~~~~~~~~~~~~~~~~~~~~~~~~~~~~~~~~~~~~~~~~~~~~~~~~~~~~~~~~~~
     Total energy                =  -1.15526001955596E+04  Eh
     Estimated bandgap           =  -2.6866E-01  Eh
     RMS occupancy error         =   7.8215E-12
     [H,K] commutator            =   1.6669E-05
     Occupancy bounds            = [  0.000:  1.000]
     ~~~~~~~~~~~~~~~~~~~~~~~~~~~~~~~~~~~~~~~~~~~~~~~~~~~~~~~~~~~




################################################################################
########################### NGWF CG iteration  001 #############################
################################################################################
****** Reciprocal space K.E. preconditioning with k_zero =  3.5000 a0^-1 *******

>>> Checking for convergence of NGWFs:   NOT CONVERGED
  ========================================================================
         NGWF RMS gradient =  1.5754E-03 >  2.0000E-06  | above tolerance
  ========================================================================

>>> Improving NGWFs using line search:
============ Calculation of NGWF S^-1 using Hotelling algorithm ================ 
         Iteration  |  Frobenius norm and Maximum abs value    (of I-S*S_n^-1)   
               1       0.19505195E+00     0.50649580E-02
               2       0.87687456E-03     0.35322910E-04
               3       0.29752812E-07     0.19394728E-08
               4       0.12276196E-12     0.54400928E-14
================================================================================
MG BCs: +ve charge blocks (gridpoints):     31136 (   17482200).
MG BCs: -ve charge blocks (gridpoints):      8327 (    1111408).
MG BCs:     Elided blocks (gridpoints):    184093 (  192109937).
MG BCs: Computational effort saved:  99.9813%.
MG BCs: Charge after coarse-graining:           -9.0010242.
MG DL_MG: Calling solver with defect correction order = 8
MG DL_MG: Solver finished
MG Hartree energy from (\int phi*rho dr):              1392.288971
MG Hartree energy from (\int eps (grad phi)^2 dr):     1391.654695
MG Discrepancy due to finite box and discretization:     -0.634277 (  -0.04556%)
MG Correction to account for finite box:                  0.458335
MG Remaining discrepancy, due to discretization:         -0.175941 (  -0.01264%)
============ Calculation of NGWF S^-1 using Hotelling algorithm ================ 
         Iteration  |  Frobenius norm and Maximum abs value    (of I-S*S_n^-1)   
               1       0.18798060E+01     0.41581805E-01
               2       0.73365568E-01     0.22448685E-02
               3       0.14857644E-03     0.78237774E-05
               4       0.11121847E-08     0.13148280E-09
               5       0.10839819E-12     0.44408921E-14
================================================================================
------------------------------- NGWF line search -------------------------------
RMS gradient                =       0.00157540803026
Trial step length           =               0.122474
Gradient along search dir.  =       -274.20054206806
Functional at step 0        =  -11552.60019555955660
Functional at step 1        =  -11583.66047122364398
Functional predicted        =  -11664.38222490194676
Selected quadratic step     =               0.815330
--------------------------- NGWF line search finished --------------------------
                                               
Writing NGWFs to file "host_21761.vacuum_tightbox_ngwfs"....  done

>>> Optimising kernel for current NGWFs:
   Initial electron number for spin 1:    7227.38375671
     Final electron number for spin 1:    7192.00000000

=================== Penalty functional idempotency correction ==================
 RMS occupancy error at iteration   1:  0.004249 (step -0.4864 Ne1=   7192.0000)
 RMS occupancy error at iteration   2:  0.000068 (step -0.5002 Ne1=   7192.0000)
            Final RMS occupancy error   :  0.000000 (Ne1=   7192.0000)
               Final occupancy bounds   : [  0.0000,  1.0000]
================================================================================

................................................................................
<<<<<<<<<<<<<< LNV (Original version) density kernel optimisation >>>>>>>>>>>>>>
~~~~~~~~~~~~~~~~~~~~~~~~~~~~~~~~~~~~~~~~~~~~~~~~~~~~~~~~~~~~~~~~~~~~~~~~~~~~~~~~
   iter  |      energy (Eh)       | rms gradient |  commutator  |   dE (Eh)
MG BCs: +ve charge blocks (gridpoints):     25071 (   17239806).
MG BCs: -ve charge blocks (gridpoints):      8528 (    1093584).
MG BCs:     Elided blocks (gridpoints):    190161 (  192370155).
MG BCs: Computational effort saved:  99.9841%.
MG BCs: Charge after coarse-graining:           -9.0006819.
MG DL_MG: Calling solver with defect correction order = 8
MG DL_MG: Solver finished
MG Hartree energy from (\int phi*rho dr):              1235.965593
MG Hartree energy from (\int eps (grad phi)^2 dr):     1235.331090
MG Discrepancy due to finite box and discretization:     -0.634503 (  -0.05134%)
MG Correction to account for finite box:                  0.457999
MG Remaining discrepancy, due to discretization:         -0.176505 (  -0.01428%)
      ideal mu1:      -0.721525309502
             Q0:  -11663.403336452087
             G0:      -9.849219887230
   RMS gradient:       0.000482451450
MG BCs: +ve charge blocks (gridpoints):     25142 (   17270565).
MG BCs: -ve charge blocks (gridpoints):      8482 (    1085102).
MG BCs:     Elided blocks (gridpoints):    190090 (  192347878).
MG BCs: Computational effort saved:  99.9840%.
MG BCs: Charge after coarse-graining:           -9.0006749.
MG DL_MG: Calling solver with defect correction order = 8
MG DL_MG: Solver finished
MG Hartree energy from (\int phi*rho dr):              1261.365722
MG Hartree energy from (\int eps (grad phi)^2 dr):     1260.724913
MG Discrepancy due to finite box and discretization:     -0.640809 (  -0.05080%)
MG Correction to account for finite box:                  0.457551
MG Remaining discrepancy, due to discretization:         -0.183259 (  -0.01453%)
     Trial step:       0.864260097870
             Q1:  -11660.836084920913
 Quadratic coef:      11.079539274859
 Linear coef   :      -8.512287743685
           Qmin:  -11665.038310633634
Quadratic minimum step length (  0.332000747321) accepted
    Initial Ne1:    7191.99961910
      Final Ne1:    7192.00000000

=================== Penalty functional idempotency correction ==================
 RMS occupancy error at iteration   1:  0.000359 (step -0.4986 Ne1=   7192.0000)
 RMS occupancy error at iteration   2:  0.000000 (step -0.5000 Ne1=   7192.0000)
            Final RMS occupancy error   :  0.000000 (Ne1=   7192.0000)
               Final occupancy bounds   : [  0.0000,  1.0000]
================================================================================

    1        -1.166340333645E+04     4.8245E-04     4.3637E-04
MG BCs: +ve charge blocks (gridpoints):     25097 (   17252055).
MG BCs: -ve charge blocks (gridpoints):      8503 (    1090190).
MG BCs:     Elided blocks (gridpoints):    190135 (  192361300).
MG BCs: Computational effort saved:  99.9841%.
MG BCs: Charge after coarse-graining:           -9.0006790.
MG DL_MG: Calling solver with defect correction order = 8
MG DL_MG: Solver finished
MG Hartree energy from (\int phi*rho dr):              1244.415752
MG Hartree energy from (\int eps (grad phi)^2 dr):     1243.778952
MG Discrepancy due to finite box and discretization:     -0.636800 (  -0.05117%)
MG Correction to account for finite box:                  0.457803
MG Remaining discrepancy, due to discretization:         -0.178997 (  -0.01438%)
      ideal mu1:      -0.729389884749
             Q0:  -11665.001460932195
             G0:      -0.990998511491
   RMS gradient:       0.000154237048
MG BCs: +ve charge blocks (gridpoints):     25101 (   17253226).
MG BCs: -ve charge blocks (gridpoints):      8502 (    1090597).
MG BCs:     Elided blocks (gridpoints):    190131 (  192359722).
MG BCs: Computational effort saved:  99.9841%.
MG BCs: Charge after coarse-graining:           -9.0006788.
MG DL_MG: Calling solver with defect correction order = 8
MG DL_MG: Solver finished
MG Hartree energy from (\int phi*rho dr):              1246.320990
MG Hartree energy from (\int eps (grad phi)^2 dr):     1245.683893
MG Discrepancy due to finite box and discretization:     -0.637098 (  -0.05112%)
MG Correction to account for finite box:                  0.457812
MG Remaining discrepancy, due to discretization:         -0.179286 (  -0.01439%)
     Trial step:       0.535663138897
             Q1:  -11665.199254958890
 Quadratic coef:       0.333047346612
 Linear coef   :      -0.530841373308
           Qmin:  -11665.212986835706
Quadratic minimum step length (  0.426894492892) accepted
    Initial Ne1:    7191.99994993
      Final Ne1:    7192.00000000

=================== Penalty functional idempotency correction ==================
 RMS occupancy error at iteration   1:  0.000144 (step -0.4994 Ne1=   7192.0000)
            Final RMS occupancy error   :  0.000000 (Ne1=   7192.0000)
               Final occupancy bounds   : [ -0.0000,  1.0000]
================================================================================

    2        -1.166500146093E+04     1.5424E-04     1.3950E-04    -1.5981E+00
MG BCs: +ve charge blocks (gridpoints):     25100 (   17252986).
MG BCs: -ve charge blocks (gridpoints):      8503 (    1090549).
MG BCs:     Elided blocks (gridpoints):    190132 (  192360010).
MG BCs: Computational effort saved:  99.9841%.
MG BCs: Charge after coarse-graining:           -9.0006788.
MG DL_MG: Calling solver with defect correction order = 8
MG DL_MG: Solver finished
MG Hartree energy from (\int phi*rho dr):              1245.933371
MG Hartree energy from (\int eps (grad phi)^2 dr):     1245.296336
MG Discrepancy due to finite box and discretization:     -0.637035 (  -0.05113%)
MG Correction to account for finite box:                  0.457810
MG Remaining discrepancy, due to discretization:         -0.179225 (  -0.01438%)
      ideal mu1:      -0.730732288961
             Q0:  -11665.213483179221
             G0:      -0.155795599041
   RMS gradient:       0.000060610482
MG BCs: +ve charge blocks (gridpoints):     25101 (   17251991).
MG BCs: -ve charge blocks (gridpoints):      8504 (    1091016).
MG BCs:     Elided blocks (gridpoints):    190131 (  192360538).
MG BCs: Computational effort saved:  99.9841%.
MG BCs: Charge after coarse-graining:           -9.0006789.
MG DL_MG: Calling solver with defect correction order = 8
MG DL_MG: Solver finished
MG Hartree energy from (\int phi*rho dr):              1245.306163
MG Hartree energy from (\int eps (grad phi)^2 dr):     1244.669164
MG Discrepancy due to finite box and discretization:     -0.636999 (  -0.05115%)
MG Correction to account for finite box:                  0.457809
MG Remaining discrepancy, due to discretization:         -0.179190 (  -0.01439%)
     Trial step:       0.478196240095
             Q1:  -11665.261590887909
 Quadratic coef:       0.026393160997
 Linear coef   :      -0.074500869685
           Qmin:  -11665.266057211415
Quadratic minimum step length (  0.674910363542) accepted
    Initial Ne1:    7192.00065428
      Final Ne1:    7192.00000000

=================== Penalty functional idempotency correction ==================
 RMS occupancy error at iteration   1:  0.000068 (step -0.4997 Ne1=   7192.0000)
            Final RMS occupancy error   :  0.000000 (Ne1=   7192.0000)
               Final occupancy bounds   : [ -0.0000,  1.0000]
================================================================================

    3        -1.166521348318E+04     6.0610E-05     5.4821E-05    -2.1202E-01
MG BCs: +ve charge blocks (gridpoints):     25101 (   17251520).
MG BCs: -ve charge blocks (gridpoints):      8504 (    1091270).
MG BCs:     Elided blocks (gridpoints):    190131 (  192360755).
MG BCs: Computational effort saved:  99.9841%.
MG BCs: Charge after coarse-graining:           -9.0006790.
MG DL_MG: Calling solver with defect correction order = 8
MG DL_MG: Solver finished
MG Hartree energy from (\int phi*rho dr):              1245.048040
MG Hartree energy from (\int eps (grad phi)^2 dr):     1244.411055
MG Discrepancy due to finite box and discretization:     -0.636985 (  -0.05116%)
MG Correction to account for finite box:                  0.457809
MG Remaining discrepancy, due to discretization:         -0.179176 (  -0.01439%)
      ideal mu1:      -0.729607501539
             Q0:  -11665.266161020845
             G0:      -0.035690938350
   RMS gradient:       0.000028997171
MG BCs: +ve charge blocks (gridpoints):     25099 (   17251661).
MG BCs: -ve charge blocks (gridpoints):      8505 (    1091202).
MG BCs:     Elided blocks (gridpoints):    190133 (  192360682).
MG BCs: Computational effort saved:  99.9841%.
MG BCs: Charge after coarse-graining:           -9.0006789.
MG DL_MG: Calling solver with defect correction order = 8
MG DL_MG: Solver finished
MG Hartree energy from (\int phi*rho dr):              1245.166956
MG Hartree energy from (\int eps (grad phi)^2 dr):     1244.530076
MG Discrepancy due to finite box and discretization:     -0.636880 (  -0.05115%)
MG Correction to account for finite box:                  0.457812
MG Remaining discrepancy, due to discretization:         -0.179068 (  -0.01438%)
     Trial step:       0.568101749907
             Q1:  -11665.275096780038
 Quadratic coef:       0.011340325340
 Linear coef   :      -0.020276084533
           Qmin:  -11665.275224244158
Quadratic minimum step length (  0.507872515070) accepted
    Initial Ne1:    7192.00024844
      Final Ne1:    7192.00000000

=================== Penalty functional idempotency correction ==================
 RMS occupancy error at iteration   1:  0.000018 (step -0.4999 Ne1=   7192.0000)
            Final RMS occupancy error   :  0.000000 (Ne1=   7192.0000)
               Final occupancy bounds   : [ -0.0000,  1.0000]
================================================================================

    4        -1.166526616102E+04     2.8997E-05     2.6227E-05    -5.2678E-02
MG BCs: +ve charge blocks (gridpoints):     25100 (   17251642).
MG BCs: -ve charge blocks (gridpoints):      8505 (    1091227).
MG BCs:     Elided blocks (gridpoints):    190132 (  192360676).
MG BCs: Computational effort saved:  99.9841%.
MG BCs: Charge after coarse-graining:           -9.0006789.
MG DL_MG: Calling solver with defect correction order = 8
MG DL_MG: Solver finished
MG Hartree energy from (\int phi*rho dr):              1245.154174
MG Hartree energy from (\int eps (grad phi)^2 dr):     1244.517283
MG Discrepancy due to finite box and discretization:     -0.636891 (  -0.05115%)
MG Correction to account for finite box:                  0.457812
MG Remaining discrepancy, due to discretization:         -0.179080 (  -0.01438%)
      ideal mu1:      -0.729702124098
             Q0:  -11665.275229259860
             G0:      -0.011854470481
   RMS gradient:       0.000016733968
MG BCs: +ve charge blocks (gridpoints):     25099 (   17252195).
MG BCs: -ve charge blocks (gridpoints):      8504 (    1090997).
MG BCs:     Elided blocks (gridpoints):    190133 (  192360353).
MG BCs: Computational effort saved:  99.9841%.
MG BCs: Charge after coarse-graining:           -9.0006788.
MG DL_MG: Calling solver with defect correction order = 8
MG DL_MG: Solver finished
MG Hartree energy from (\int phi*rho dr):              1245.562526
MG Hartree energy from (\int eps (grad phi)^2 dr):     1244.925679
MG Discrepancy due to finite box and discretization:     -0.636846 (  -0.05113%)
MG Correction to account for finite box:                  0.457799
MG Remaining discrepancy, due to discretization:         -0.179047 (  -0.01437%)
     Trial step:       0.537143616308
             Q1:  -11665.278516568709
 Quadratic coef:       0.003080244294
 Linear coef   :      -0.006367553144
           Qmin:  -11665.278520048607
Quadratic minimum step length (  0.555197931700) accepted
    Initial Ne1:    7192.00010398
      Final Ne1:    7192.00000000

=================== Penalty functional idempotency correction ==================
 RMS occupancy error at iteration   1:  0.000010 (step -0.5000 Ne1=   7192.0000)
            Final RMS occupancy error   :  0.000000 (Ne1=   7192.0000)
               Final occupancy bounds   : [ -0.0000,  1.0000]
================================================================================

    5        -1.166527522926E+04     1.6734E-05     1.5135E-05    -9.0682E-03
MG BCs: +ve charge blocks (gridpoints):     25099 (   17252202).
MG BCs: -ve charge blocks (gridpoints):      8504 (    1090990).
MG BCs:     Elided blocks (gridpoints):    190133 (  192360353).
MG BCs: Computational effort saved:  99.9841%.
MG BCs: Charge after coarse-graining:           -9.0006788.
MG DL_MG: Calling solver with defect correction order = 8
MG DL_MG: Solver finished
MG Hartree energy from (\int phi*rho dr):              1245.576267
MG Hartree energy from (\int eps (grad phi)^2 dr):     1244.939422
MG Discrepancy due to finite box and discretization:     -0.636845 (  -0.05113%)
MG Correction to account for finite box:                  0.457799
MG Remaining discrepancy, due to discretization:         -0.179046 (  -0.01437%)
      ideal mu1:      -0.730056673533
             Q0:  -11665.278521068860
             G0:      -0.003639224497
   RMS gradient:       0.000009272122
MG BCs: +ve charge blocks (gridpoints):     25099 (   17252074).
MG BCs: -ve charge blocks (gridpoints):      8505 (    1091061).
MG BCs:     Elided blocks (gridpoints):    190133 (  192360410).
MG BCs: Computational effort saved:  99.9841%.
MG BCs: Charge after coarse-graining:           -9.0006788.
MG DL_MG: Calling solver with defect correction order = 8
MG DL_MG: Solver finished
MG Hartree energy from (\int phi*rho dr):              1245.494086
MG Hartree energy from (\int eps (grad phi)^2 dr):     1244.857251
MG Discrepancy due to finite box and discretization:     -0.636835 (  -0.05113%)
MG Correction to account for finite box:                  0.457792
MG Remaining discrepancy, due to discretization:         -0.179043 (  -0.01438%)
     Trial step:       0.546096168088
             Q1:  -11665.279763368890
 Quadratic coef:       0.000745066523
 Linear coef   :      -0.001987366552
           Qmin:  -11665.279846328312
Quadratic minimum step length (  0.728319703479) accepted
    Initial Ne1:    7192.00005235
      Final Ne1:    7192.00000000

=================== Penalty functional idempotency correction ==================
 RMS occupancy error at iteration   1:  0.000007 (step -0.4999 Ne1=   7192.0000)
            Final RMS occupancy error   :  0.000000 (Ne1=   7192.0000)
               Final occupancy bounds   : [ -0.0000,  1.0000]
================================================================================

    6        -1.166527852107E+04     9.2721E-06     8.3864E-06    -3.2918E-03
MG BCs: +ve charge blocks (gridpoints):     25099 (   17252042).
MG BCs: -ve charge blocks (gridpoints):      8505 (    1091089).
MG BCs:     Elided blocks (gridpoints):    190133 (  192360414).
MG BCs: Computational effort saved:  99.9841%.
MG BCs: Charge after coarse-graining:           -9.0006788.
MG DL_MG: Calling solver with defect correction order = 8
MG DL_MG: Solver finished
MG Hartree energy from (\int phi*rho dr):              1245.466630
MG Hartree energy from (\int eps (grad phi)^2 dr):     1244.829799
MG Discrepancy due to finite box and discretization:     -0.636832 (  -0.05113%)
MG Correction to account for finite box:                  0.457790
MG Remaining discrepancy, due to discretization:         -0.179042 (  -0.01438%)
      ideal mu1:      -0.729974169134
             Q0:  -11665.279846305610
             G0:      -0.002048919199
   RMS gradient:       0.000006958492
MG BCs: +ve charge blocks (gridpoints):     25099 (   17251958).
MG BCs: -ve charge blocks (gridpoints):      8504 (    1091108).
MG BCs:     Elided blocks (gridpoints):    190133 (  192360479).
MG BCs: Computational effort saved:  99.9841%.
MG BCs: Charge after coarse-graining:           -9.0006789.
MG DL_MG: Calling solver with defect correction order = 8
MG DL_MG: Solver finished
MG Hartree energy from (\int phi*rho dr):              1245.419019
MG Hartree energy from (\int eps (grad phi)^2 dr):     1244.782178
MG Discrepancy due to finite box and discretization:     -0.636841 (  -0.05113%)
MG Correction to account for finite box:                  0.457791
MG Remaining discrepancy, due to discretization:         -0.179050 (  -0.01438%)
     Trial step:       0.630660446843
             Q1:  -11665.280291912495
 Quadratic coef:       0.000846565412
 Linear coef   :      -0.001292172298
           Qmin:  -11665.280339388963
Quadratic minimum step length (  0.481310686213) accepted
    Initial Ne1:    7192.00001669
      Final Ne1:    7192.00000000

=================== Penalty functional idempotency correction ==================
 RMS occupancy error at iteration   1:  0.000001 (step -0.5000 Ne1=   7192.0000)
            Final RMS occupancy error   :  0.000000 (Ne1=   7192.0000)
               Final occupancy bounds   : [  0.0000,  1.0000]
================================================================================

    7        -1.166527984631E+04     6.9585E-06     6.2938E-06    -1.3252E-03
MG BCs: +ve charge blocks (gridpoints):     25099 (   17251984).
MG BCs: -ve charge blocks (gridpoints):      8504 (    1091096).
MG BCs:     Elided blocks (gridpoints):    190133 (  192360465).
MG BCs: Computational effort saved:  99.9841%.
MG BCs: Charge after coarse-graining:           -9.0006788.
MG DL_MG: Calling solver with defect correction order = 8
MG DL_MG: Solver finished
MG Hartree energy from (\int phi*rho dr):              1245.430249
MG Hartree energy from (\int eps (grad phi)^2 dr):     1244.793410
MG Discrepancy due to finite box and discretization:     -0.636839 (  -0.05113%)
MG Correction to account for finite box:                  0.457790
MG Remaining discrepancy, due to discretization:         -0.179048 (  -0.01438%)
      ideal mu1:      -0.729903678433
             Q0:  -11665.280339379795
             G0:      -0.001264617579
   RMS gradient:       0.000005466734
MG BCs: +ve charge blocks (gridpoints):     25099 (   17251958).
MG BCs: -ve charge blocks (gridpoints):      8504 (    1091109).
MG BCs:     Elided blocks (gridpoints):    190133 (  192360478).
MG BCs: Computational effort saved:  99.9841%.
MG BCs: Charge after coarse-graining:           -9.0006788.
MG DL_MG: Calling solver with defect correction order = 8
MG DL_MG: Solver finished
MG Hartree energy from (\int phi*rho dr):              1245.398141
MG Hartree energy from (\int eps (grad phi)^2 dr):     1244.761298
MG Discrepancy due to finite box and discretization:     -0.636843 (  -0.05114%)
MG Correction to account for finite box:                  0.457789
MG Remaining discrepancy, due to discretization:         -0.179054 (  -0.01438%)
     Trial step:       0.550947921711
             Q1:  -11665.280883047963
 Quadratic coef:       0.000153070259
 Linear coef   :      -0.000696738427
           Qmin:  -11665.281132225573
Quadratic minimum step length (  1.253890174398) accepted
    Initial Ne1:    7192.00002676
      Final Ne1:    7192.00000000

=================== Penalty functional idempotency correction ==================
 RMS occupancy error at iteration   1:  0.000010 (step -0.4993 Ne1=   7192.0000)
            Final RMS occupancy error   :  0.000000 (Ne1=   7192.0000)
               Final occupancy bounds   : [ -0.0000,  1.0000]
================================================================================

    8        -1.166528033938E+04     5.4667E-06     4.9445E-06    -4.9307E-04
MG BCs: +ve charge blocks (gridpoints):     25099 (   17251927).
MG BCs: -ve charge blocks (gridpoints):      8504 (    1091127).
MG BCs:     Elided blocks (gridpoints):    190133 (  192360491).
MG BCs: Computational effort saved:  99.9841%.
MG BCs: Charge after coarse-graining:           -9.0006789.
[...]
MG Hartree energy from (\int phi*rho dr):              1202.545266
MG Hartree energy from (\int eps (grad phi)^2 dr):     1202.360758
MG Discrepancy due to finite box and discretization:     -0.184508 (  -0.01534%)
MG Correction to account for finite box:                  0.006272
MG Remaining discrepancy, due to discretization:         -0.178236 (  -0.01482%)
             Q2:  -11698.731117662392
  Cubic LS coeff:       0.960513895204
Predicted energy:  -11698.731117662421
Cubic minimum step length accepted
    Initial Ne1:    7192.00000000
      Final Ne1:    7192.00000000

=================== Penalty functional idempotency correction ==================
 RMS occupancy error at iteration   1:  0.000000 (step -0.5000 Ne1=   7192.0000)
            Final RMS occupancy error   :  0.000000 (Ne1=   7192.0000)
               Final occupancy bounds   : [ -0.0000,  1.0000]
================================================================================

    7        -1.169873111766E+04     9.0574E-09     8.1922E-09    -2.0955E-09

Reusing previously generated solute cavity.
MG BCs: +ve charge blocks (gridpoints):     29135 (   19440399).
MG BCs: -ve charge blocks (gridpoints):      8484 (    1060242).
MG BCs:     Elided blocks (gridpoints):    186097 (  190202904).
MG BCs: Computational effort saved:  99.9821%.
MG BCs: Charge after coarse-graining:           -9.0009780.
MG DL_MG: Calling solver with defect correction order = 8
MG DL_MG: Solver finished
MG Hartree energy from (\int phi*rho dr):              1202.545264
MG Hartree energy from (\int eps (grad phi)^2 dr):     1202.360756
MG Discrepancy due to finite box and discretization:     -0.184508 (  -0.01534%)
MG Correction to account for finite box:                  0.006272
MG Remaining discrepancy, due to discretization:         -0.178236 (  -0.01482%)
      ideal mu1:      -0.484419515058
             Q0:  -11698.731117662624
             G0:      -0.000000004070
   RMS gradient:       0.000000008817

Reusing previously generated solute cavity.
MG BCs: +ve charge blocks (gridpoints):     29135 (   19440399).
MG BCs: -ve charge blocks (gridpoints):      8484 (    1060242).
MG BCs:     Elided blocks (gridpoints):    186097 (  190202904).
MG BCs: Computational effort saved:  99.9821%.
MG BCs: Charge after coarse-graining:           -9.0009780.
MG DL_MG: Calling solver with defect correction order = 8
MG DL_MG: Solver finished
MG Hartree energy from (\int phi*rho dr):              1202.545234
MG Hartree energy from (\int eps (grad phi)^2 dr):     1202.360726
MG Discrepancy due to finite box and discretization:     -0.184508 (  -0.01534%)
MG Correction to account for finite box:                  0.006272
MG Remaining discrepancy, due to discretization:         -0.178236 (  -0.01482%)
     Trial step:       0.656702450922
             Q1:  -11698.731117663905
 Quadratic coef:       0.000000001392
 Linear coef   :      -0.000000002673
           Qmin:  -11698.731117663909
Quadratic minimum step length (  0.630711013806) accepted
    Initial Ne1:    7192.00000000
      Final Ne1:    7192.00000000

=================== Penalty functional idempotency correction ==================
 RMS occupancy error at iteration   1:  0.000000 (step -0.5000 Ne1=   7192.0000)
            Final RMS occupancy error   :  0.000000 (Ne1=   7192.0000)
               Final occupancy bounds   : [  0.0000,  1.0000]
================================================================================

    8        -1.169873111766E+04     8.8173E-09     7.9751E-09    -3.6089E-09

Reusing previously generated solute cavity.
MG BCs: +ve charge blocks (gridpoints):     29135 (   19440399).
MG BCs: -ve charge blocks (gridpoints):      8484 (    1060242).
MG BCs:     Elided blocks (gridpoints):    186097 (  190202904).
MG BCs: Computational effort saved:  99.9821%.
MG BCs: Charge after coarse-graining:           -9.0009780.
MG DL_MG: Calling solver with defect correction order = 8
MG DL_MG: Solver finished
MG Hartree energy from (\int phi*rho dr):              1202.545236
MG Hartree energy from (\int eps (grad phi)^2 dr):     1202.360728
MG Discrepancy due to finite box and discretization:     -0.184508 (  -0.01534%)
MG Correction to account for finite box:                  0.006272
MG Remaining discrepancy, due to discretization:         -0.178236 (  -0.01482%)
      ideal mu1:      -0.484419484113
             Q0:  -11698.731117663789
             G0:      -0.000000001805
   RMS gradient:       0.000000005225

Reusing previously generated solute cavity.
MG BCs: +ve charge blocks (gridpoints):     29135 (   19440399).
MG BCs: -ve charge blocks (gridpoints):      8484 (    1060242).
MG BCs:     Elided blocks (gridpoints):    186097 (  190202904).
MG BCs: Computational effort saved:  99.9821%.
MG BCs: Charge after coarse-graining:           -9.0009780.
MG DL_MG: Calling solver with defect correction order = 8
MG DL_MG: Solver finished
MG Hartree energy from (\int phi*rho dr):              1202.545247
MG Hartree energy from (\int eps (grad phi)^2 dr):     1202.360739
MG Discrepancy due to finite box and discretization:     -0.184508 (  -0.01534%)
MG Correction to account for finite box:                  0.006272
MG Remaining discrepancy, due to discretization:         -0.178236 (  -0.01482%)
     Trial step:       0.643575534487
             Q1:  -11698.731117664371
 Quadratic coef:       0.000000000580
 Linear coef   :      -0.000000001162
           Qmin:  -11698.731117664371
Quadratic minimum step length (  0.644217106955) accepted
    Initial Ne1:    7192.00000000
      Final Ne1:    7192.00000000

=================== Penalty functional idempotency correction ==================
 RMS occupancy error at iteration   1:  0.000000 (step -0.5000 Ne1=   7192.0000)
            Final RMS occupancy error   :  0.000000 (Ne1=   7192.0000)
               Final occupancy bounds   : [  0.0000,  1.0000]
================================================================================

    9        -1.169873111766E+04     5.2252E-09     4.7260E-09    -1.1642E-09

Reusing previously generated solute cavity.
MG BCs: +ve charge blocks (gridpoints):     29135 (   19440399).
MG BCs: -ve charge blocks (gridpoints):      8484 (    1060242).
MG BCs:     Elided blocks (gridpoints):    186097 (  190202904).
MG BCs: Computational effort saved:  99.9821%.
MG BCs: Charge after coarse-graining:           -9.0009780.
MG DL_MG: Calling solver with defect correction order = 8
MG DL_MG: Solver finished
MG Hartree energy from (\int phi*rho dr):              1202.545247
MG Hartree energy from (\int eps (grad phi)^2 dr):     1202.360739
MG Discrepancy due to finite box and discretization:     -0.184508 (  -0.01534%)
MG Correction to account for finite box:                  0.006272
MG Remaining discrepancy, due to discretization:         -0.178236 (  -0.01482%)
      ideal mu1:      -0.484419495515
   10        -1.169873111766E+04     3.7320E-09     3.3755E-09    -5.8208E-10
Finished density kernel iterations (  10)

Writing density kernel to file "host_21761.dkn" ... done


>>> Density kernel optimised for the current NGWF basis:
     ~~~~~~~~~~~~~~~~~~~~~~~~~~~~~~~~~~~~~~~~~~~~~~~~~~~~~~~~~~~
     Total energy                =  -1.16987311176644E+04  Eh
     Estimated bandgap           =   9.3085E-02  Eh
     RMS occupancy error         =   5.2280E-16
     [H,K] commutator            =   3.3755E-09
     Occupancy bounds            = [  0.000:  1.000]
     ~~~~~~~~~~~~~~~~~~~~~~~~~~~~~~~~~~~~~~~~~~~~~~~~~~~~~~~~~~~




################################################################################
########################### NGWF CG iteration  004 #############################
################################################################################
****** Reciprocal space K.E. preconditioning with k_zero =  3.5000 a0^-1 *******

>>> Checking for convergence of NGWFs: 
           ........................................................
           |         *** NGWF optimisation converged ***          |
           | RMS NGWF gradient =    0.00000191612298              |
           | Criteria satisfied:                                  |
           | -> RMS NGWF gradient lower than set threshold.       |
           ========================================================

Reusing previously generated solute cavity.
MG BCs: +ve charge blocks (gridpoints):     29135 (   19440399).
MG BCs: -ve charge blocks (gridpoints):      8484 (    1060242).
MG BCs:     Elided blocks (gridpoints):    186097 (  190202904).
MG BCs: Computational effort saved:  99.9821%.
MG BCs: Charge after coarse-graining:           -9.0009780.
MG DL_MG: Calling solver with defect correction order = 8
MG DL_MG: Solver finished
MG Hartree energy from (\int phi*rho dr):              1202.545247
MG Hartree energy from (\int eps (grad phi)^2 dr):     1202.360739
MG Discrepancy due to finite box and discretization:     -0.184508 (  -0.01534%)
MG Correction to account for finite box:                  0.006272
MG Remaining discrepancy, due to discretization:         -0.178236 (  -0.01482%)

================================================================================
           ---------------- ENERGY COMPONENTS (Eh) ----------------
           | Kinetic                    :     8559.26992138828791 |
           | Pseudo. (local,OBC,corr'd) :    -5074.02909440351323 |
           | Pseudopotential (non-local):     1403.91047729462684 |
           | Hartree (molecular)        :     1202.54524707632163 |
           | Exchange-correlation       :    -3381.83109550777817 |
           | Ion-ion (open BC)          :   825133.24562082195189 |
           | Smeared ion non-self corr. :  -825085.32511382782832 |
           | Smeared ion self corr.     :   -14457.16956389741972 |
           | Solvent cavitation energy  :        2.32138536374574 |
           | Solute-solvent dis-rep en. :       -1.66890197263091 |
           | Total                      :   -11698.73111766424881 |
           --------------------------------------------------------
           ------ LOCAL ENERGY COMPONENTS FROM MATRIX TRACES ------
           | Pseudopotential (local)    :    -5074.02909440352414 |
           | Hartree                    :    -1998.52849550308929 |
           --------------------------------------------------------
           Integrated density           :     7191.99999999881220
           Integrated density tr(KS)    :     7192.00000000000000
================================================================================


                        <<<<< CALCULATION SUMMARY >>>>>                         
|ITER|    RMS GRADIENT   |     TOTAL ENERGY    |   step   |     Epredicted              
   0     0.00003945011540 -11698.66815546224825   0.633288 -11698.72259942399069        
   1     0.00000959737102 -11698.73059883015230   0.084955 -11698.73103109188560        
   2     0.00000426210845 -11698.73109963070601   0.015783 -11698.73111546805558        
   3     0.00000191612298 -11698.73111766437069  <-- CG                                 

=================== Finished the calculation in solvent ========================
= Adjusting the following parameters: 
= read_denskern: F
= read_tightbox_ngwfs: F
= maxit_pen: 0 (restored to user-specified value)
= restart read filename prefix: ""
= restart write filename prefix: ""
================================================================================

================================================================================
IS: Calculation in solvent completed (NGWFs converged).      

Individual components of total energy in solvent:     hartree           kcal/mol
- Usual non-electrostatic DFT terms:    -12901.92884813180717    -8096082.410245
- Electrostatic fixed charge energy:      1202.54524707632163      754608.519159
- Apolar cavitation energy:                  2.32138536374574        1456.691277
- Apolar dispersion-repulsion energy:       -1.66890197263091       -1047.251776
 -------------------------------------------------------------------------------
- Total energy in solvent:              -11698.73111766437069    -7341064.451586

Components of total energy in solvent:                hartree           kcal/mol
- Usual non-electrostatic DFT terms:    -12901.92884813180717    -8096082.410245
- Electrostatic energy:                   1202.54524707632163      754608.519159
- Apolar energy terms:                       0.65248339111483         409.439501
 -------------------------------------------------------------------------------
- Total energy in solvent:              -11698.73111766437069    -7341064.451586

Calculation of free energy of solvation:              hartree           kcal/mol
- Total energy in solvent:         (+)  -11698.73111766437069    -7341064.451586
- Total energy in vacuum:          (-)  -11694.88237966166344    -7338649.332079
 -------------------------------------------------------------------------------
- Total free energy of solvation:           -3.84873800270725       -2415.119507

Components of polar term in f.e. of solvation:        hartree           kcal/mol
- Electrostatic:                            -4.54408778535503       -2851.458074
- Change in nonelectrostatic DFT terms:      0.04286639153361          26.899066
 -------------------------------------------------------------------------------
- Polar term in f.e. of solvation:          -4.50122139382142       -2824.559008

Components of free energy of solvation:               hartree           kcal/mol
- Polar term in f.e. of solvation: (+)      -4.50122139382142       -2824.559008
- Apolar (cavitation, dis., rep.): (+)       0.65248339111483         409.439501
 -------------------------------------------------------------------------------
- Total free energy of solvation:           -3.84873800270659       -2415.119507
================================================================================


------------------------------ TIMING INFORMATION ------------------------------
AVERAGE TIME:   35544.033s on     60 node(s)                                    
TOTAL TIME:     35544.034s on     60 node(s)                                    
================= AVERAGE TIMINGS FROM ALL NODES (CUMULATIVE) ==================
|| TAG                                    #calls    cpu time   %total  Gflops ||
|| work_imbalance                       :     1        0.01s   0.000%  ------ ||
|| sparse_set_to_garbage                :   164        0.03s   0.000%  ------ ||
|| parallel_prepare_fd_halos_request    :  1827        0.03s   0.000%  ------ ||
|| parallel_prepare_fd_halos_alloc      :  1827        0.10s   0.000%  ------ ||
|| ngwfs_initialise_from_radial         :     1        0.11s   0.000%  ------ ||
|| basis_extract_function_from_box      :  3360        0.14s   0.000%  ------ ||
|| parallel_prepare_fd_halos_satisfy    :  1827        0.60s   0.002%  ------ ||
|| pseudopotentials_nonlocal_mat        :    28        1.05s   0.003%  ------ ||
|| openbc_locps_radial                  :     1        3.07s   0.009%  ------ ||
|| density_init_guess_real              :     1        3.79s   0.011%  ------ ||
|| restart_kernel_read                  :     1        4.45s   0.013%  ------ ||
|| parallel_prepare_fd_halos_comms_imbal:  1827        9.63s   0.027%  ------ ||
|| restart_ngwfs_tightbox_input         :     1        9.79s   0.028%  ------ ||
|| parallel_prepare_fd_halos_clear      :  1827       19.26s   0.054%  ------ ||
|| sparse_init                          :     2       21.65s   0.061%  ------ ||
|| parallel_prepare_fd_halos_comms_wait :  1827       23.52s   0.066%  ------ ||
|| projectors_func_ovlp_box             :    28       25.93s   0.073%  ------ ||
|| function_ops_brappd_ketppd           :    28       27.18s   0.076%  ------ ||
|| projectors_init_fftbox_recip         :   133       27.57s   0.078%  ------ ||
|| palser_mano_kernel_optimise          :     1       28.84s   0.081%  ------ ||
|| basis_copy_function_to_box           : 54533       42.15s   0.119%  ------ ||
|| ngwf_gradient_coeffs                 :    15       47.99s   0.135%  ------ ||
|| fourier_apply_box_pair               :  4776       52.82s   0.149% 593.879 ||
|| parallel_prepare_fd_halos            :  1827       53.16s   0.150%  ------ ||
|| pseudo_make_structure_factor         :     2       54.23s   0.153%  ------ ||
|| sparse_embed_hotelling_invert_embed  :    28       75.88s   0.213%  ------ ||
|| restart_kernel_write                 :    16      128.19s   0.361%  ------ ||
|| integrals_kinetic                    :    28      137.67s   0.387%  ------ ||
|| finite_difference_derivative         :  1827      139.74s   0.393%  ------ ||
|| sparse_trace                         :  4873      154.81s   0.436%  ------ ||
|| basis_dot_function_with_box          : 8.246M     156.16s   0.439%  ------ ||
|| projectors_gradient_batch            :   105      169.92s   0.478%  ------ ||
|| openbc_locps_on_grid                 :     2      283.17s   0.797%  ------ ||
|| kernel_purify                        :   464      289.71s   0.815%  ------ ||
|| basis_add_function_to_box            : 17.15M     367.60s   1.034%  ------ ||
|| lnv_gradient_norm                    :   150      431.24s   1.213%  ------ ||
|| kernel_fix                           :   150      492.54s   1.386%  ------ ||
|| hamiltonian_energy_components        :     4      560.36s   1.577%  ------ ||
|| integrals_locpot_mat_els_batch       :  1113      674.70s   1.898%  ------ ||
|| ngwf_gradient_build_batch            :   105      777.64s   2.188%  ------ ||
|| ngwf_gradient_batch                  :   105     1052.41s   2.961%  ------ ||
|| cell_grid_deposit_box_real           : 34897     1090.30s   3.067%  ------ ||
|| density_batch_row_sums               :  2121     1123.54s   3.161%  ------ ||
|| ngwf_gradient_lnv                    :    15     1184.56s   3.333%  ------ ||
|| fourier_apply_cell_forward           :  8513     1406.27s   3.956%  90.388 ||
|| fourier_apply_cell_backward          :  9123     1583.54s   4.455%  86.021 ||
|| restart_ngwfs_tightbox_output        :    13     1704.23s   4.795%  ------ ||
|| sparse_product                       :  6165     1776.50s   4.998%  ------ ||
|| density_fftbox_deposit_to_cell       : 33027     1787.00s   5.028%  ------ ||
|| cell_grid_extract_box_real           : 38581     1967.15s   5.534%  ------ ||
|| potential_apply_to_ngwf_batch        :  1113     3658.22s  10.292%  ------ ||
|| density_fftbox_interpolate_multiply  : 33027     3931.25s  11.060%  ------ ||
|| xc_energy_potential                  :   304     3948.20s  11.108%  ------ ||
|| integrals_locpot_dbl_grid            :   159     4347.18s  12.230%  ------ ||
|| fourier_apply_box                    : 113.8k    4708.15s  13.246% 769.465 ||
|| multigrid_prepare_bound_cond         :   304     4860.84s  13.676%  ------ ||
|| nlxc_vdw_energy                      :   608     6460.12s  18.175%  ------ ||
|| density_batch_interp_deposit         :  2121     6586.60s  18.531%  ------ ||
|| dl_mg_solver_calls                   :   304     7711.85s  21.697%  ------ ||
|| density_on_dbl_grid                  :   303     8009.16s  22.533%  ------ ||
|| multigrid_calculate_hartree          :   304    12760.69s  35.901%  ------ ||
|| hamiltonian_lhxc_calculate           :   299    24606.74s  69.229%  ------ ||
|| lnv_denskernel_optimise_cg           :    15    29610.51s  83.307%  ------ ||
|| ngwf_cg_optimise                     :     2    34534.80s  97.161%  ------ ||
|| total_time                           :     1    35544.03s 100.000%  ------ ||
================================================================================
Overhead of generating timer report: 
- 0 ms averaging over threads,
- 22 ms ensuring consistency across MPI ranks,
- 0 ms printing in order.

Job completed: 17-02-2020 05:35 (-0000)

Application 39000775 resources: utime ~6852342s, stime ~341065s, Rss ~4165744, inblocks ~324191057, outblocks ~63962807
