 +---------------------------------------------------------------+
 |                                                               |
 |        ####### #     # ####### ####### ####### ######         |
 |        #     # ##    # #          #    #       #     #        |
 |        #     # # #   # #          #    #       #     #        |
 |        #     # #  #  # #####      #    #####   ######         |
 |        #     # #   # # #          #    #       #              |
 |        #     # #    ## #          #    #       #              |
 |        ####### #     # #######    #    ####### #              |
 |                                                               |
 |        Linear-Scaling Ab Initio Total Energy Program          |
 |                                                               |
 |          Release for academic collaborators of ODG            |
 |                                             Version 5.3.2.6.  |
 |                                                               |
 +---------------------------------------------------------------+
 |                                                               |
 |  Authors:                                                     |
 |  Jacek Dziedzic, Peter D. Haynes, Nicholas D. M. Hine,        |
 |  Arash. A. Mostofi, Mike C. Payne and Chris-Kriton Skylaris   |
 |                                                               |
 |  Contributors:                                                |
 |  J. Aarons, L. Andrinopoulos, P. W. Avraam, R. A. Bell,       |
 |  A. Bhandari, G. A. Bramley, R. J. Charlton, S. J. Clark,     |
 |  R. J. Clements, G. C. Constantinescu, F. Corsetti,           |
 |  N. Corsini, O. Dieguez, S. M. M. Dubois, K. K. B. Duff,      |
 |  J. M. Escartin, A. Greco, H. Helal, Q. O. Hill, L. P. Lee,   |
 |  J.-H. Li, E. B. Linscott, G. Moynihan, D. D. O`Regan,        |
 |  O. K. Okan, M. J. S. Phipps, C. J. Pickard,                  |
 |  J. C. A. Prentice, M. I. J. Probert, L. E. Ratcliff,         |
 |  M. Robinson, A. Ruiz Serrano, J. S. Spencer, E. W. Tait,     |
 |  G. Teobaldi, D. Turban, V. Vitale, K. A. Wilkinson,          |
 |  C. Weber, J. C. Womack, N. Yeung and T. J. Zuehlsdorff       |
 |                                                               |
 |                                   Copyright (c) 2004-2019     |
 |                                                               |
 |  Please cite:                                                 |
 |  "Introducing ONETEP: Linear-scaling density functional       |
 |   simulations on parallel computers".                         |
 |   C.-K. Skylaris, P. D. Haynes, A. A. Mostofi, M. C. Payne.   |
 |   J. Chem. Phys. 122 084119 (2005).                           |
 |                                                               |
 |          in all publications arising from your use of ONETEP. |
 |                                                               |
 +---------------------------------------------------------------+
 |                                                               |
 |   ONETEP is based on developments described in the following  |
 |   publications:                                               |
 |                                                               |
 |  "Nonorthogonal generalized Wannier function pseudopotential  |
 |   plane-wave method".                                         |
 |   C.-K. Skylaris, A. A. Mostofi, P. D. Haynes, O. Dieguez,    |
 |   M. C. Payne.                                                |
 |   Phys. Rev. B 66 035119 (2002).                              |
 |                                                               |
 |  "Preconditioned iterative minimization for linear-scaling    |
 |   electronic structure calculations".                         |
 |   A. A. Mostofi, P. D. Haynes, C.-K. Skylaris, M. C. Payne.   |
 |   J. Chem. Phys. 119(17), pp.8842-8848 (2003).                |
 |                                                               |
 |  "Total-energy calculations on a real space grid with         |
 |   localized functions and a plane-wave basis".                |
 |   A. A. Mostofi, C.-K. Skylaris, P. D. Haynes, M. C. Payne.   |
 |   Comput. Phys. Commun. 147, pp.788-802 (2002).               |
 |                                                               |
 |  "Accurate kinetic energy evaluation in electronic structure  |
 |   calculations with localized functions on real space grids"  |
 |   C.-K. Skylaris, A. A. Mostofi, P. D. Haynes, C. J. Pickard, |
 |   M. C. Payne.                                                |
 |   Comput. Phys. Commun. 140, pp.315-322 (2001).               |
 |                                                               |
 |  "Accurate ionic forces and geometry optimization in linear-  |
 |   scaling density-functional theory with local orbitals"      |
 |   N. D. M. Hine, M. Robinson, P. D. Haynes, C.-K. Skylaris,   |
 |   M. C. Payne, and A. A. Mostofi.                             |
 |   Phys. Rev. B 83 195102 (2011).                              |
 |                                                               |
 +---------------------------------------------------------------+

Job started: 18-07-2020 07:07 (+0100)
 
Reading parameters from file "complex_33541.dat" ...... done

If your calculation crashes here, before "Checking processes and threads..."
is displayed, then your stack size is insufficient.
If so, use "ulimit -s unlimited" at runtime.
You can disable this check with "check_stack_size F".

Checking processes and threads...
   Determining the default number of threads...
      No default threads set at compilation time: defaulting to 1.
      OpenMP library call suggests 4 threads.
      Hybrid MPI-OpenMP compilation detected.
      Number of MPI processes > 1.
      OMP_NUM_THREADS environment variable present and
      its value matches the one obtained from the OpenMP library call.
      Using this value as default.
      Default threads: 4
      Default applies to threads_max and threads_num_fftboxes.
      Settings in the input file override this default.
   ... done

   Running with 60 MPI processes.
   There are 6 MPI processes running on the same node as the root process.
   Each MPI process is using: 
               1 threads for simulation cell FFTs.
               1 threads for parallel FFT box operations.
               4 threads for loops over batched FFT box operations.
               4 threads in other parallel regions.
... done

Basic input checks...... done

Reading geometry and species blocks from file "complex_33541.dat" ...
  <species_atomic_set> block not found: NGWF initialisation set to SOLVE
IS: Dielectric excluded regions:
    - NONE.
    
  Number of PPD points along a3 set to 1.  This is 
  the default value, it may have been provided also in the input file.
... done
 Writing xyz coordinates to file "complex_33541.xyz" ... done


--------------------------------------------------------------------------------
---------------------------------- INPUT FILE ----------------------------------
--------------------------------------------------------------------------------

cutoff_energy       : 800 eV                                                    
xc_functional PBE                                                               
task SINGLEPOINT                                                                
write_xyz true                                                                  
output_detail VERBOSE                                                           
ngwf_threshold_orig : 0.000002                                                  
kernel_cutoff       : 1000                                                      
k_zero              : 3.5                                                       
elec_cg_max 0                                                                   
occ_mix 1.0                                                                     
dispersion 1                                                                    
maxit_ngwf_cg 40                                                                
minit_lnv 10                                                                    
maxit_lnv 10                                                                    
write_denskern T                                                                
write_tightbox_ngwfs T                                                          
charge 9                                                                        
is_implicit_solvent T                                                           
is_auto_solvation T                                                             
is_include_apolar T                                                             
is_smeared_ion_rep T                                                            
is_solvent_surf_tension 4.7624E-5 Ha/bohr**2                                    
is_apolar_scaling_factor 0.281075                                               
is_solvation_beta 1.3                                                           
is_density_threshold 0.00035                                                    
is_bulk_permittivity 78.54                                                      
is_dielectric_model fix_initial                                                 
is_smeared_ion_width 0.8                                                        
mg_defco_fd_order 8                                                             
is_bc_coarseness 10                                                             
is_bc_surface_coarseness 1                                                      
fine_grid_scale 2.0                                                             
%block species                                                                  
N   N   7 4 8.0                                                                 
H   H   1 1 8.0                                                                 
C   C   6 4 8.0                                                                 
S   S  16 9 8.0                                                                 
O   O   8 4 8.0                                                                 
Cl  Cl  17 9 8.0                                                                
%endblock species                                                               
%block species_pot                                                              
N   N_00.recpot                                                                 
H   H_04.recpot                                                                 
C   C_01.recpot                                                                 
S   S_00.recpot                                                                 
O   O_02.recpot                                                                 
Cl  chlorine.recpot                                                             
%endblock species_pot                                                           
%block lattice_cart                                                             
137.793   0.000   0.000                                                         
0.000 143.498   0.000                                                           
0.000   0.000   162.326                                                         
%endblock lattice_cart                                                          
%block positions_abs                                                            
     Hash =   000006274866004846480917
%endblock positions_abs                                                         

--------------------------------------------------------------------------------
-------------------------------- END INPUT FILE --------------------------------
--------------------------------------------------------------------------------


 
 ESDF WARNING(1): "kernelcutoff" (esdf_physical) has no units. Assume "bohr".
 ESDF WARNING(2): "kzero" (esdf_physical) has no units. Assume "1/bohr".
 ESDF WARNING(3
 ): "issmearedionwidth" (esdf_physical) has no units. Assume "bohr".
<<<<<<<<<<<<<<<<<<<<<<<<<<<<<<<<< Full system >>>>>>>>>>>>>>>>>>>>>>>>>>>>>>>>>>
WARNING in pseudopotentials_read_species: string "LDA" found in pseudopotential
file "chlorine.recpot", yet xc_functional = "PBE".
 
<<<<<<<<<<<<<<<<<<<<<<<<< Pseudopotential information >>>>>>>>>>>>>>>>>>>>>>>>>>
File: N_00.recpot [ 2001 points up to Gmax=  52.9 (1/bohr)]
  Atomic number:  7;  ionic charge:  5.000000
    Shell 1: l = 0; rc = 1.48 bohr
File: H_04.recpot [ 2001 points up to Gmax=  52.9 (1/bohr)]
  Atomic number:  1;  ionic charge:  1.000000
    Local potential
File: C_01.recpot [ 2001 points up to Gmax=  52.9 (1/bohr)]
  Atomic number:  6;  ionic charge:  4.000000
    Shell 1: l = 0; rc = 1.48 bohr
File: S_00.recpot [ 2001 points up to Gmax=  52.9 (1/bohr)]
  Atomic number: 16;  ionic charge:  6.000000
    Shell 1: l = 0; rc = 1.90 bohr
    Shell 2: l = 2; rc = 1.84 bohr
File: O_02.recpot [ 2001 points up to Gmax=  52.9 (1/bohr)]
  Atomic number:  8;  ionic charge:  6.000000
    Shell 1: l = 0; rc = 1.31 bohr
File: chlorine.recpot [ 2001 points up to Gmax=  52.9 (1/bohr)]
  Atomic number: 17;  ionic charge:  7.000000
    Shell 1: l = 0; rc = 1.72 bohr
    Shell 2: l = 2; rc = 1.78 bohr
<<<<<<<<<<<<<<<<<<<<<<<<<<<<<<<<<<<<<<<<>>>>>>>>>>>>>>>>>>>>>>>>>>>>>>>>>>>>>>>>

-------------------------- Atom counting information ---------------------------
Symbol    Natoms    Nngwfs    Nprojs
  N        236       944       236
  H       1316      1316         0
  C        816      3264       816
  S          6        54        36
  O        240       960       240
  Cl         1         9         6
.......   ......    ......    ......
Totals:   2615      6547      1334
--------------------------------------------------------------------------------

=============================== PSINC grid sizes ===============================
                      Simulation cell:  273 x 286 x 320
                              FFT-box:   99 x  99 x  99
                                  PPD:    7 x  11 x   1
Grid space d1=  0.504736263736a0 (KE cutoff=  29.81776Eh = 811.38248eV)
Grid space d2=  0.501741258741a0 (KE cutoff=  30.17480Eh = 821.09803eV)
Grid space d3=  0.507268750000a0 (KE cutoff=  29.52078Eh = 803.30122eV)
================================================================================

********************* Fourier parallelisation information **********************
       Coarse grid (whole simulation cell) dimensions:    273   286   320
          Real-space ('12') slabs/node (min max mean):      5     6     5
         Recip-space ('23') slabs/node (min max mean):      2     3     2
********************************************************************************

********************* Fourier parallelisation information **********************
       Double grid (whole simulation cell) dimensions:    546   572   640
          Real-space ('12') slabs/node (min max mean):     10    11    10
         Recip-space ('23') slabs/node (min max mean):      4     5     4
********************************************************************************
ONETEP fine grid is 546 x 572 x 640 gridpoints, 137.7930 x 143.4980 x 162.3260 bohr.
FD multigrid is     545 x 569 x 633 gridpoints, 137.5406 x 142.7454 x 160.5506 bohr.


Calculating local pseudopotential in open BC on a radial grid ...
Discrepancy between calculated realspace psloc and -Z/x on [5a0,256.765a0]:
max |rel. diff| # avg |rel. diff| #  avg rel. diff #  f # pseudopotential file
 0.000264355666    0.000005356805   0.000000075547   55  'N_00.recpot'
 0.000427657517    0.000018087302  -0.000000066616   55  'H_04.recpot'
 0.000358839426    0.000016594043   0.000000139912   55  'C_01.recpot'
 0.000443229003    0.000019135969   0.000000483695   55  'S_00.recpot'
 0.000720897146    0.000029350350   0.000000143497   55  'O_02.recpot'
 0.000693253128    0.000030986455   0.000000348575   55  'chlorine.recpot'
... done

Atom SCF Calculation for N  : Z (AE atom) =   7 : Z (PS atom) =   5
Config String:
Orbitals (num,occ):  2     2.00 3.00
Orbitals   (num,l):  2        0    1
Real-space Grid (nr,dr,rmax): 1203    0.0066555740    8.0000000000
Spherical Bessel Basis (nsws,lmax,cutoff):   47    1  176.3951722778
Confining potential (l,width,scale):  0    3.0000000000  100.0000000000
Confining potential (l,width,scale):  1    3.0000000000  100.0000000000
  1         -4.7312375307   -3.4155304497    7.0523828109   -1.9351020946
  2         -9.7309464766   -2.0532547791    8.2966052865   -2.2494486027
  3         -9.6627394379   -2.1124926340    8.2327997121   -2.2369778124
  4         -9.6814993499   -2.1215521045    8.2229805960   -2.2365178421
  5         -9.6843326483   -2.1250939529    8.2191374534   -2.2362718126
  6         -9.6859628709   -2.1267894855    8.2172963573   -2.2362066344
  7         -9.6867347035   -2.1276425665    8.2163697352   -2.2361903369
  8         -9.6870802100   -2.1280764625    8.2158983890   -2.2361891460
  9         -9.6872290423   -2.1282977424    8.2156580222   -2.2361920435
 10         -9.6872901988   -2.1284107021    8.2155353368   -2.2361953393
 11         -9.6873135296   -2.1284684031    8.2154726809   -2.2361979819
 12         -9.6873212476   -2.1284978948    8.2154406648   -2.2361998431
 13         -9.6873229586   -2.1285129774    8.2154242957   -2.2362010676
 14         -9.6873226456   -2.1285206957    8.2154159216   -2.2362018403
 15         -9.6873218534   -2.1285246479    8.2154116349   -2.2362023142
 16         -9.6873212599   -2.1285262679    8.2154098784   -2.2362025420
 17         -9.6873207834   -2.1285272564    8.2154088068   -2.2362026955
 18         -9.6873204210   -2.1285278596    8.2154081529   -2.2362027982
 19         -9.6873201550   -2.1285282280    8.2154077538   -2.2362028667
 20         -9.6873199645   -2.1285284529    8.2154075102   -2.2362029121
 21         -9.6873198305   -2.1285285903    8.2154073614   -2.2362029421
 22         -9.6873197377   -2.1285286742    8.2154072705   -2.2362029618
Atom SCF converged after  22 iterations to a total energy of     -9.68731974

Atom SCF Calculation for H  : Z (AE atom) =   1 : Z (PS atom) =   1
Config String:
Orbitals (num,occ):  1     1.00
Orbitals   (num,l):  1        0
Real-space Grid (nr,dr,rmax): 1203    0.0066555740    8.0000000000
Spherical Bessel Basis (nsws,lmax,cutoff):   47    0  176.3951722778
Confining potential (l,width,scale):  0    3.0000000000  100.0000000000
  1         -0.3194257691   -0.2393854593    0.2820953124   -0.2424203209
  2         -0.3951823392   -0.2377116493    0.2886404059   -0.2475147891
  3         -0.4317044583   -0.2352244387    0.2921333887   -0.2514046172
  4         -0.4470703708   -0.2341892222    0.2934391879   -0.2531009782
  5         -0.4532132900   -0.2338556667    0.2938388426   -0.2537313520
  6         -0.4556579251   -0.2337612552    0.2939448584   -0.2539550462
  7         -0.4566418315   -0.2337377355    0.2939680120   -0.2540342273
  8         -0.4570437922   -0.2337331116    0.2939708287   -0.2540627372
  9         -0.4572102946   -0.2337328328    0.2939698291   -0.2540732650
 10         -0.4572800424   -0.2337332404    0.2939687193   -0.2540772588
 11         -0.4573095100   -0.2337335791    0.2939680317   -0.2540788122
 12         -0.4573220379   -0.2337337762    0.2939676699   -0.2540794294
 13         -0.4573273880   -0.2337338775    0.2939674931   -0.2540796787
 14         -0.4573296803   -0.2337339266    0.2939674099   -0.2540797808
 15         -0.4573306647   -0.2337339495    0.2939673718   -0.2540798230
 16         -0.4573310882   -0.2337339601    0.2939673545   -0.2540798406
 17         -0.4573312706   -0.2337339649    0.2939673467   -0.2540798479
 18         -0.4573313493   -0.2337339670    0.2939673433   -0.2540798510
Atom SCF converged after  18 iterations to a total energy of     -0.45733135

Atom SCF Calculation for C  : Z (AE atom) =   6 : Z (PS atom) =   4
Config String:
Orbitals (num,occ):  2     2.00 2.00
Orbitals   (num,l):  2        0    1
Real-space Grid (nr,dr,rmax): 1203    0.0066555740    8.0000000000
Spherical Bessel Basis (nsws,lmax,cutoff):   47    1  176.3951722778
Confining potential (l,width,scale):  0    3.0000000000  100.0000000000
Confining potential (l,width,scale):  1    3.0000000000  100.0000000000
  1         -5.2976922011   -1.3069684169    4.5135249990   -1.4493313817
  2         -5.3721716256   -1.3429755895    4.4750154450   -1.4361613026
  3         -5.3809959565   -1.3617365618    4.4541655428   -1.4305930207
  4         -5.3918938866   -1.3667928461    4.4484735100   -1.4294652294
  5         -5.3956096428   -1.3688539142    4.4461376126   -1.4290734646
  6         -5.3968271862   -1.3696852393    4.4451910874   -1.4289366866
  7         -5.3972028401   -1.3700178062    4.4448112275   -1.4288900460
  8         -5.3973067903   -1.3701500158    4.4446598370   -1.4288749220
  9         -5.3973286940   -1.3702023868    4.4445997329   -1.4288704293
 10         -5.3973289850   -1.3702230869    4.4445759233   -1.4288693188
 11         -5.3973254264   -1.3702312560    4.4445665049   -1.4288691775
 12         -5.3973224003   -1.3702344755    4.4445627836   -1.4288692549
 13         -5.3973208708   -1.3702354890    4.4445616088   -1.4288693270
 14         -5.3973198783   -1.3702360102    4.4445610034   -1.4288693814
 15         -5.3973192535   -1.3702362780    4.4445606917   -1.4288694190
 16         -5.3973188684   -1.3702364155    4.4445605313   -1.4288694437
 17         -5.3973186349   -1.3702364860    4.4445604489   -1.4288694595
 18         -5.3973184951   -1.3702365221    4.4445604065   -1.4288694693
 19         -5.3973184122   -1.3702365405    4.4445603848   -1.4288694753
Atom SCF converged after  19 iterations to a total energy of     -5.39731841

Atom SCF Calculation for S  : Z (AE atom) =  16 : Z (PS atom) =   6
Config String:
Orbitals (num,occ):  3     2.00 4.00 0.00
Orbitals   (num,l):  3        0    1    2
Real-space Grid (nr,dr,rmax): 1203    0.0066555740    8.0000000000
Spherical Bessel Basis (nsws,lmax,cutoff):   47    2  176.3951722778
Confining potential (l,width,scale):  0    3.0000000000  100.0000000000
Confining potential (l,width,scale):  1    3.0000000000  100.0000000000
Confining potential (l,width,scale):  2    3.0000000000  100.0000000000
  1        -12.4735062396   -1.0328741412   10.1554312477   -2.4512393157
  2         -9.9458301913   -2.4607392455    8.3041325857   -2.0306994528
  3        -10.1450417646   -2.2931184565    8.4831893826   -2.0812538287
  4        -10.1528335592   -2.2733105793    8.5050388867   -2.0896035179
  5        -10.1571940363   -2.2633716629    8.5160794258   -2.0939370707
  6        -10.1594380571   -2.2584938667    8.5215163935   -2.0961289008
  7        -10.1605856507   -2.2561081821    8.5241804044   -2.0972291378
  8        -10.1611799191   -2.2549395235    8.5254868240   -2.0977806248
  9        -10.1614918752   -2.2543658586    8.5261285885   -2.0980571586
 10        -10.1616572884   -2.2540839121    8.5264441898   -2.0981959233
 11        -10.1617455602   -2.2539453058    8.5265994231   -2.0982656006
 12        -10.1617928447   -2.2538772062    8.5266757320   -2.0983006047
 13        -10.1618182292   -2.2538437891    8.5267131983   -2.0983181961
 14        -10.1618318741   -2.2538274201    8.5267315620   -2.0983270391
 15        -10.1618392144   -2.2538194197    8.5267405433   -2.0983314852
 16        -10.1618431651   -2.2538155200    8.5267449245   -2.0983337210
 17        -10.1618452923   -2.2538136252    8.5267470551   -2.0983348455
 18        -10.1618464380   -2.2538127080    8.5267480875   -2.0983354110
 19        -10.1618470552   -2.2538122659    8.5267485856   -2.0983356955
 20        -10.1618473878   -2.2538120540    8.5267488248   -2.0983358386
 21        -10.1618475670   -2.2538119530    8.5267489389   -2.0983359106
 22        -10.1618476637   -2.2538119053    8.5267489929   -2.0983359468
Atom SCF converged after  22 iterations to a total energy of    -10.16184766

Atom SCF Calculation for O  : Z (AE atom) =   8 : Z (PS atom) =   6
Config String:
Orbitals (num,occ):  2     2.00 4.00
Orbitals   (num,l):  2        0    1
Real-space Grid (nr,dr,rmax): 1203    0.0066555740    8.0000000000
Spherical Bessel Basis (nsws,lmax,cutoff):   47    1  176.3951722778
Confining potential (l,width,scale):  0    3.0000000000  100.0000000000
Confining potential (l,width,scale):  1    3.0000000000  100.0000000000
  1         -1.8735052164   -7.5539365035   10.1554312477   -2.4512393157
  2        -16.0318313751   -3.1285771268   13.6395848164   -3.2358799643
  3        -15.9524020423   -3.0762819706   13.6967272503   -3.2536856837
  4        -15.8521515939   -3.0781493909   13.6951909330   -3.2561700440
  5        -15.8357139793   -3.0748501933   13.6988803334   -3.2580493133
  6        -15.8246052853   -3.0740779781   13.6997881576   -3.2588327446
  7        -15.8189019501   -3.0737449687   13.7001869911   -3.2592378801
  8        -15.8159785510   -3.0736026016   13.7003615168   -3.2594475790
  9        -15.8144776168   -3.0735437994   13.7004360379   -3.2595560735
 10        -15.8137058024   -3.0735207882   13.7004667348   -3.2596122456
 11        -15.8133083127   -3.0735125946   13.7004786868   -3.2596413656
 12        -15.8131032938   -3.0735102195   13.7004828997   -3.2596564858
 13        -15.8129973902   -3.0735099286   13.7004840891   -3.2596643505
 14        -15.8129426040   -3.0735102506   13.7004842061   -3.2596684489
 15        -15.8129142203   -3.0735106556   13.7004840157   -3.2596705887
 16        -15.8128994940   -3.0735109855   13.7004837906   -3.2596717080
 17        -15.8128918425   -3.0735112169   13.7004836103   -3.2596722946
 18        -15.8128878614   -3.0735113674   13.7004834848   -3.2596726026
 19        -15.8128857871   -3.0735114608   13.7004834035   -3.2596727646
 20        -15.8128847048   -3.0735115170   13.7004833533   -3.2596728500
 21        -15.8128841394   -3.0735115501   13.7004833231   -3.2596728951
 22        -15.8128838436   -3.0735115693   13.7004833054   -3.2596729190
 23        -15.8128836887   -3.0735115802   13.7004832951   -3.2596729316
 24        -15.8128836074   -3.0735115864   13.7004832893   -3.2596729383
Atom SCF converged after  24 iterations to a total energy of    -15.81288361

Atom SCF Calculation for Cl : Z (AE atom) =  17 : Z (PS atom) =   7
Config String:
Orbitals (num,occ):  3     2.00 5.00 0.00
Orbitals   (num,l):  3        0    1    2
Real-space Grid (nr,dr,rmax): 1203    0.0066555740    8.0000000000
Spherical Bessel Basis (nsws,lmax,cutoff):   47    2  176.3951722778
Confining potential (l,width,scale):  0    3.0000000000  100.0000000000
Confining potential (l,width,scale):  1    3.0000000000  100.0000000000
Confining potential (l,width,scale):  2    3.0000000000  100.0000000000
  1        -16.8444261800   -2.1962100444   13.8226703094   -2.9941905181
  2        -14.7918510722   -3.2647395528   12.5772031268   -2.7486356845
  3        -15.0408459996   -3.0830885982   12.7711824681   -2.7985322562
  4        -15.0258990028   -3.0805758938   12.7746252245   -2.8028400439
  5        -15.0247989138   -3.0762001284   12.7796720593   -2.8059543251
  6        -15.0249225108   -3.0742888229   12.7818510263   -2.8073220423
  7        -15.0250462958   -3.0731699753   12.7831228196   -2.8081724567
  8        -15.0251282307   -3.0725244678   12.7838557365   -2.8086978828
  9        -15.0251775299   -3.0721537651   12.7842766981   -2.8090219799
 10        -15.0252069190   -3.0719409277   12.7845186566   -2.8092219886
 11        -15.0252248401   -3.0718185631   12.7846580195   -2.8093455898
 12        -15.0252360996   -3.0717481031   12.7847384649   -2.8094221024
 13        -15.0252433539   -3.0717074830   12.7847849814   -2.8094695492
 14        -15.0252481059   -3.0716840518   12.7848119089   -2.8094990225
 15        -15.0252512461   -3.0716705364   12.7848275045   -2.8095173612
 16        -15.0252533273   -3.0716627451   12.7848365368   -2.8095287899
 17        -15.0252547058   -3.0716582588   12.7848417653   -2.8095359231
 18        -15.0252556164   -3.0716556794   12.7848447893   -2.8095403819
 19        -15.0252562158   -3.0716541993   12.7848465363   -2.8095431730
 20        -15.0252566087   -3.0716533521   12.7848475441   -2.8095449225
 21        -15.0252568652   -3.0716528683   12.7848481246   -2.8095460206
 22        -15.0252570320   -3.0716525930   12.7848484583   -2.8095467108
 23        -15.0252571401   -3.0716524369   12.7848486497   -2.8095471451
 24        -15.0252572099   -3.0716523486   12.7848487593   -2.8095474188
Atom SCF converged after  24 iterations to a total energy of    -15.02525721

========================== Calculation in vacuum ==============================
= Adjusting the following parameters: 
= is_implicit_solvent: F
= is_include_apolar: F
= write_denskern: T
= write_tightbox_ngwfs: T
= restart read filename prefix: ""
= restart write filename prefix: "vacuum_"
===============================================================================

Determining parallel strategy ...
... using space-filling curve
... NGWF load balancing: max    110;  min    109;  average    109
... Projector load balancing: max     26;  min     21;  average     22
... done
Calculating direct Ion-Ion energy ...
Ion-Ion Energy        :    836434.70559318852611
======================= Empirical dispersion information =======================
Model : Elstner
WARNING: Unoptimised dispersion parameters used for Cl
Dispersion Correction Energy: -0.32726935E+01 Hartree
================================================================================
Basis initialisation ...... NGWF spheres initialised
... Projector spheres initialised
... NGWF tight boxes initialised
... Tight-boxes gathered
... NGWF basis size (local,global):     932175  56094585
... Nonlocal pseudopotential projector initialisation
... done

========================== Sparse matrix information ===========================
                        Overlap matrix filling:   6.72%
                        Density kernel filling: 100.00%
              NGWF-Proj overlap matrix filling:   1.75%
                    Hamiltonian matrix filling:   7.58%
                  NGWF diagonal matrix filling:   0.05%
                             KS matrix filling: 100.00% 
                           KSKS matrix filling: 100.00% 
================================================================================

Sparse matrix initialisation ... done

Generating smeared ion density ... done
Smeared ion self correction:     -14549.923644
Smeared ion non-self correction: -836386.397440
NGWF initialisation ...... done
============ Calculation of NGWF S^-1 using Hotelling algorithm ================ 
         Iteration  |  Frobenius norm and Maximum abs value    (of I-S*S_n^-1)   
               1       0.78862912E+02     0.98354670E+00
               2       0.77099207E+02     0.96748598E+00
               3       0.74211185E+02     0.93651039E+00
               4       0.70049021E+02     0.87873111E+00
               5       0.64803704E+02     0.78006402E+00
               6       0.58852641E+02     0.70753844E+00
               7       0.52798183E+02     0.67130109E+00
               8       0.47202478E+02     0.64615452E+00
               9       0.41253081E+02     0.60869854E+00
              10       0.33221454E+02     0.54240832E+00
              11       0.22787864E+02     0.43916929E+00
              12       0.12026219E+02     0.30483357E+00
              13       0.41862144E+01     0.14993436E+00
              14       0.73409617E+00     0.37899331E-01
              15       0.43258790E-01     0.37990676E-02
              16       0.35872510E-03     0.41578775E-04
              17       0.44344892E-07     0.72269692E-08
              18       0.10441698E-12     0.57731597E-14
================================================================================
Calculating local pseudopotential in open BC on the fine real space grid ...
... done

MG BCs: +ve charge blocks (gridpoints):     20527 (   16099596).
MG BCs: -ve charge blocks (gridpoints):      8065 (    1082768).
MG BCs:     Elided blocks (gridpoints):    180113 (  179114101).
MG BCs: Computational effort saved:  99.9854%.
MG BCs: Charge after coarse-graining:           -9.0002262.
MG DL_MG: Calling solver with defect correction order = 8
MG DL_MG: Solver finished
MG Hartree energy from (\int phi*rho dr):              1475.773803
MG Hartree energy from (\int eps (grad phi)^2 dr):     1475.158400
MG Discrepancy due to finite box and discretization:     -0.615403 (  -0.04170%)
MG Correction to account for finite box:                  0.462142
MG Remaining discrepancy, due to discretization:         -0.153261 (  -0.01039%)
Up spin density kernel initialisation ... 
======= Optimisation of K by Palser-Manolopoulos canonical purification ======== 
         Iteration  |  Band structure energy |    c_n   
               1       -2598.91442340046979    0.5263420
               2       -2776.10711823084785    0.5166487
               3       -2957.24152804537061    0.5152265
               4       -3107.90116111383986    0.5289951
               5       -3200.04713635918597    0.5653920
               6       -3238.31076730081486    0.6108920
               7       -3251.24975941407138    0.6222860
               8       -3256.88988905181350    0.6189101
               9       -3259.66523715771655    0.6312053
              10       -3260.82440102799819    0.6539554
              11       -3261.26984005993518    0.6531293
              12       -3261.47232436539889    0.6091583
              13       -3261.58481403335463    0.5243345
              14       -3261.64299330152608    0.4267181
              15       -3261.65130777880677    0.4148212
              16       -3261.65316337212471    0.4201519
              17       -3261.65435171130093    0.4441808
              18       -3261.65518855484197    0.4742095
              19       -3261.65569477444933    0.4932415
              20       -3261.65588438211989    0.4993946
              21       -3261.65598508101448    0.4999952
              22       -3261.65608484745189    0.5000000
              23       -3261.65615541044644    0.5000000
              24       -3261.65617781654100    0.5000000
              25       -3261.65617943383540    0.5000001
              26       -3261.65617944137102    0.5000001
Termination criterion satisfied: band energy change below threshold.
Final occupancy bounds: [    0.00000000000045:    1.00000000000000]
Closest occupancy to 0.5:     1.00000000000000
================================================================================
... done

Writing density kernel to file "complex_33541.vacuum_dkn" ... done

>>> Optimising kernel for current NGWFs:
   Initial electron number for spin 1:    7234.00000000
     Final electron number for spin 1:    7234.00000000

=================== Penalty functional idempotency correction ==================
 RMS occupancy error at iteration   1:  0.000000 (step -0.5000 Ne1=   7234.0000)
            Final RMS occupancy error   :  0.000000 (Ne1=   7234.0000)
               Final occupancy bounds   : [  0.0000,  1.0000]
================================================================================

................................................................................
<<<<<<<<<<<<<< LNV (Original version) density kernel optimisation >>>>>>>>>>>>>>
~~~~~~~~~~~~~~~~~~~~~~~~~~~~~~~~~~~~~~~~~~~~~~~~~~~~~~~~~~~~~~~~~~~~~~~~~~~~~~~~
   iter  |      energy (Eh)       | rms gradient |  commutator  |   dE (Eh)
MG BCs: +ve charge blocks (gridpoints):     30869 (   17238351).
MG BCs: -ve charge blocks (gridpoints):      8441 (    1116531).
MG BCs:     Elided blocks (gridpoints):    169762 (  177941583).
MG BCs: Computational effort saved:  99.9800%.
MG BCs: Charge after coarse-graining:           -9.0009419.
MG DL_MG: Calling solver with defect correction order = 8
MG DL_MG: Solver finished
MG Hartree energy from (\int phi*rho dr):              1432.714289
MG Hartree energy from (\int eps (grad phi)^2 dr):     1432.044487
MG Discrepancy due to finite box and discretization:     -0.669802 (  -0.04675%)
MG Correction to account for finite box:                  0.473226
MG Remaining discrepancy, due to discretization:         -0.196575 (  -0.01372%)
      ideal mu1:      -0.681955388190
             Q0:  -11572.155315704993
             G0:    -147.861822490911
   RMS gradient:       0.001857315515
MG BCs: +ve charge blocks (gridpoints):     30901 (   17321370).
MG BCs: -ve charge blocks (gridpoints):      8323 (    1095924).
MG BCs:     Elided blocks (gridpoints):    169728 (  177879171).
MG BCs: Computational effort saved:  99.9800%.
MG BCs: Charge after coarse-graining:           -9.0009636.
MG DL_MG: Calling solver with defect correction order = 8
MG DL_MG: Solver finished
MG Hartree energy from (\int phi*rho dr):              1456.756693
MG Hartree energy from (\int eps (grad phi)^2 dr):     1456.104604
MG Discrepancy due to finite box and discretization:     -0.652088 (  -0.04476%)
MG Correction to account for finite box:                  0.471525
MG Remaining discrepancy, due to discretization:         -0.180563 (  -0.01239%)
     Trial step:       0.500000000000
             Q1:  -11584.344049718580
 Quadratic coef:      61.742177231868
 Linear coef   :     -73.930911245456
           Qmin:  -11594.286781919154
Quadratic minimum step length (  0.299353353575) accepted
    Initial Ne1:    7234.00000000
      Final Ne1:    7234.00000000

=================== Penalty functional idempotency correction ==================
 RMS occupancy error at iteration   1:  0.003512 (step -0.4879 Ne1=   7234.0000)
 RMS occupancy error at iteration   2:  0.000033 (step -0.5003 Ne1=   7234.0000)
            Final RMS occupancy error   :  0.000000 (Ne1=   7234.0000)
               Final occupancy bounds   : [  0.0000,  1.0000]
================================================================================

    1        -1.157215531570E+04     1.8573E-03     1.6809E-03
MG BCs: +ve charge blocks (gridpoints):     30885 (   17289085).
MG BCs: -ve charge blocks (gridpoints):      8377 (    1104341).
MG BCs:     Elided blocks (gridpoints):    169746 (  177903039).
MG BCs: Computational effort saved:  99.9800%.
MG BCs: Charge after coarse-graining:           -9.0009554.
MG DL_MG: Calling solver with defect correction order = 8
MG DL_MG: Solver finished
MG Hartree energy from (\int phi*rho dr):              1439.127240
MG Hartree energy from (\int eps (grad phi)^2 dr):     1438.468991
MG Discrepancy due to finite box and discretization:     -0.658249 (  -0.04574%)
MG Correction to account for finite box:                  0.472099
MG Remaining discrepancy, due to discretization:         -0.186150 (  -0.01293%)
      ideal mu1:      -0.732608980382
             Q0:  -11594.704943447025
             G0:     -12.880308409097
   RMS gradient:       0.000544401886
MG BCs: +ve charge blocks (gridpoints):     30885 (   17305959).
MG BCs: -ve charge blocks (gridpoints):      8348 (    1099059).
MG BCs:     Elided blocks (gridpoints):    169746 (  177891447).
MG BCs: Computational effort saved:  99.9800%.
MG BCs: Charge after coarse-graining:           -9.0009593.
MG DL_MG: Calling solver with defect correction order = 8
MG DL_MG: Solver finished
MG Hartree energy from (\int phi*rho dr):              1443.979379
MG Hartree energy from (\int eps (grad phi)^2 dr):     1443.325247
MG Discrepancy due to finite box and discretization:     -0.654132 (  -0.04530%)
MG Correction to account for finite box:                  0.471170
MG Remaining discrepancy, due to discretization:         -0.182962 (  -0.01267%)
     Trial step:       0.386880700976
             Q1:  -11597.720864212490
 Quadratic coef:       1.967221980629
 Linear coef   :      -4.983142746093
           Qmin:  -11597.860625910984
Quadratic minimum step length (  0.490001071982) accepted
    Initial Ne1:    7233.99973045
      Final Ne1:    7234.00000000

=================== Penalty functional idempotency correction ==================
 RMS occupancy error at iteration   1:  0.001925 (step -0.4920 Ne1=   7234.0000)
 RMS occupancy error at iteration   2:  0.000018 (step -0.5004 Ne1=   7234.0000)
            Final RMS occupancy error   :  0.000000 (Ne1=   7234.0000)
               Final occupancy bounds   : [  0.0000,  1.0000]
================================================================================

    2        -1.159470494345E+04     5.4440E-04     4.9270E-04    -2.2550E+01
MG BCs: +ve charge blocks (gridpoints):     30885 (   17310558).
MG BCs: -ve charge blocks (gridpoints):      8344 (    1097637).
MG BCs:     Elided blocks (gridpoints):    169746 (  177888270).
MG BCs: Computational effort saved:  99.9800%.
MG BCs: Charge after coarse-graining:           -9.0009603.
MG DL_MG: Calling solver with defect correction order = 8
MG DL_MG: Solver finished
MG Hartree energy from (\int phi*rho dr):              1445.333009
MG Hartree energy from (\int eps (grad phi)^2 dr):     1444.679899
MG Discrepancy due to finite box and discretization:     -0.653110 (  -0.04519%)
MG Correction to account for finite box:                  0.470937
MG Remaining discrepancy, due to discretization:         -0.182174 (  -0.01260%)
      ideal mu1:      -0.760710549157
             Q0:  -11597.902139501180
             G0:      -2.074222148246
   RMS gradient:       0.000218478725
MG BCs: +ve charge blocks (gridpoints):     30884 (   17309473).
MG BCs: -ve charge blocks (gridpoints):      8349 (    1098906).
MG BCs:     Elided blocks (gridpoints):    169747 (  177888086).
MG BCs: Computational effort saved:  99.9800%.
MG BCs: Charge after coarse-graining:           -9.0009601.
MG DL_MG: Calling solver with defect correction order = 8
MG DL_MG: Solver finished
MG Hartree energy from (\int phi*rho dr):              1442.993281
MG Hartree energy from (\int eps (grad phi)^2 dr):     1442.340592
MG Discrepancy due to finite box and discretization:     -0.652689 (  -0.04523%)
MG Correction to account for finite box:                  0.470718
MG Remaining discrepancy, due to discretization:         -0.181971 (  -0.01261%)
     Trial step:       0.435398619896
             Q1:  -11598.445098164259
 Quadratic coef:       0.360154797627
 Linear coef   :      -0.903113460704
           Qmin:  -11598.468294615786
Quadratic minimum step length (  0.545896315960) accepted
    Initial Ne1:    7233.99975336
      Final Ne1:    7234.00000000

=================== Penalty functional idempotency correction ==================
 RMS occupancy error at iteration   1:  0.000736 (step -0.4957 Ne1=   7234.0000)
 RMS occupancy error at iteration   2:  0.000006 (step -0.5002 Ne1=   7234.0000)
            Final RMS occupancy error   :  0.000000 (Ne1=   7234.0000)
               Final occupancy bounds   : [  0.0000,  1.0000]
================================================================================

    3        -1.159790213950E+04     2.1848E-04     1.9773E-04    -3.1972E+00
MG BCs: +ve charge blocks (gridpoints):     30882 (   17309287).
MG BCs: -ve charge blocks (gridpoints):      8350 (    1099226).
MG BCs:     Elided blocks (gridpoints):    169749 (  177887952).
MG BCs: Computational effort saved:  99.9800%.
MG BCs: Charge after coarse-graining:           -9.0009600.
MG DL_MG: Calling solver with defect correction order = 8
MG DL_MG: Solver finished
MG Hartree energy from (\int phi*rho dr):              1442.410801
MG Hartree energy from (\int eps (grad phi)^2 dr):     1441.758206
MG Discrepancy due to finite box and discretization:     -0.652594 (  -0.04524%)
MG Correction to account for finite box:                  0.470663
MG Remaining discrepancy, due to discretization:         -0.181931 (  -0.01261%)
      ideal mu1:      -0.761086884077
             Q0:  -11598.473987675039
             G0:      -0.596062379430
   RMS gradient:       0.000117271558
MG BCs: +ve charge blocks (gridpoints):     30883 (   17310317).
MG BCs: -ve charge blocks (gridpoints):      8340 (    1098883).
MG BCs:     Elided blocks (gridpoints):    169748 (  177887265).
MG BCs: Computational effort saved:  99.9800%.
MG BCs: Charge after coarse-graining:           -9.0009603.
MG DL_MG: Calling solver with defect correction order = 8
MG DL_MG: Solver finished
MG Hartree energy from (\int phi*rho dr):              1443.740562
MG Hartree energy from (\int eps (grad phi)^2 dr):     1443.088037
MG Discrepancy due to finite box and discretization:     -0.652525 (  -0.04520%)
MG Correction to account for finite box:                  0.470508
MG Remaining discrepancy, due to discretization:         -0.182017 (  -0.01261%)
     Trial step:       0.487526924975
             Q1:  -11598.633391292184
 Quadratic coef:       0.131192841793
 Linear coef   :      -0.290596458937
           Qmin:  -11598.634907853291
Quadratic minimum step length (  0.539944085738) accepted
    Initial Ne1:    7233.99989849
      Final Ne1:    7234.00000000

=================== Penalty functional idempotency correction ==================
 RMS occupancy error at iteration   1:  0.000428 (step -0.4911 Ne1=   7234.0000)
 RMS occupancy error at iteration   2:  0.000007 (step -0.5003 Ne1=   7234.0000)
            Final RMS occupancy error   :  0.000000 (Ne1=   7234.0000)
               Final occupancy bounds   : [  0.0000,  1.0000]
================================================================================

    4        -1.159847398768E+04     1.1727E-04     1.0613E-04    -5.7185E-01
MG BCs: +ve charge blocks (gridpoints):     30882 (   17310420).
MG BCs: -ve charge blocks (gridpoints):      8340 (    1098854).
MG BCs:     Elided blocks (gridpoints):    169749 (  177887191).
MG BCs: Computational effort saved:  99.9800%.
MG BCs: Charge after coarse-graining:           -9.0009603.
MG DL_MG: Calling solver with defect correction order = 8
MG DL_MG: Solver finished
MG Hartree energy from (\int phi*rho dr):              1443.884706
MG Hartree energy from (\int eps (grad phi)^2 dr):     1443.232188
MG Discrepancy due to finite box and discretization:     -0.652518 (  -0.04519%)
MG Correction to account for finite box:                  0.470491
MG Remaining discrepancy, due to discretization:         -0.182027 (  -0.01261%)
      ideal mu1:      -0.761613214268
             Q0:  -11598.635761782643
             G0:      -0.290368342555
   RMS gradient:       0.000082111497
MG BCs: +ve charge blocks (gridpoints):     30882 (   17310581).
MG BCs: -ve charge blocks (gridpoints):      8340 (    1098603).
MG BCs:     Elided blocks (gridpoints):    169747 (  177887281).
MG BCs: Computational effort saved:  99.9800%.
MG BCs: Charge after coarse-graining:           -9.0009603.
MG DL_MG: Calling solver with defect correction order = 8
MG DL_MG: Solver finished
MG Hartree energy from (\int phi*rho dr):              1444.347809
MG Hartree energy from (\int eps (grad phi)^2 dr):     1443.695201
MG Discrepancy due to finite box and discretization:     -0.652608 (  -0.04518%)
MG Correction to account for finite box:                  0.470386
MG Remaining discrepancy, due to discretization:         -0.182222 (  -0.01262%)
     Trial step:       0.513066545175
             Q1:  -11598.739969972521
 Quadratic coef:       0.044770092465
 Linear coef   :      -0.148978282343
           Qmin:  -11598.759697916052
Quadratic minimum step length (  0.853647696701) accepted
    Initial Ne1:    7233.99984645
      Final Ne1:    7234.00000000

=================== Penalty functional idempotency correction ==================
 RMS occupancy error at iteration   1:  0.001219 (step -0.4433 Ne1=   7234.0000)
 RMS occupancy error at iteration   2:  0.000058 (step -0.5002 Ne1=   7234.0000)
 RMS occupancy error at iteration   3:  0.000000 (step -0.5000 Ne1=   7234.0000)
            Final RMS occupancy error   :  0.000000 (Ne1=   7234.0000)
               Final occupancy bounds   : [  0.0000,  1.0000]
================================================================================

    5        -1.159863576178E+04     8.2111E-05     7.4314E-05    -1.6177E-01
MG BCs: +ve charge blocks (gridpoints):     30881 (   17310682).
MG BCs: -ve charge blocks (gridpoints):      8340 (    1098449).
MG BCs:     Elided blocks (gridpoints):    169748 (  177887334).
MG BCs: Computational effort saved:  99.9800%.
MG BCs: Charge after coarse-graining:           -9.0009603.
MG DL_MG: Calling solver with defect correction order = 8
MG DL_MG: Solver finished
MG Hartree energy from (\int phi*rho dr):              1444.650881
MG Hartree energy from (\int eps (grad phi)^2 dr):     1443.998217
MG Discrepancy due to finite box and discretization:     -0.652664 (  -0.04518%)
MG Correction to account for finite box:                  0.470312
MG Remaining discrepancy, due to discretization:         -0.182352 (  -0.01262%)
      ideal mu1:      -0.761788231215
             Q0:  -11598.755649859202
             G0:      -0.384298398576
   RMS gradient:       0.000096561422
MG BCs: +ve charge blocks (gridpoints):     30881 (   17309465).
MG BCs: -ve charge blocks (gridpoints):      8339 (    1099148).
MG BCs:     Elided blocks (gridpoints):    169748 (  177887852).
MG BCs: Computational effort saved:  99.9800%.
MG BCs: Charge after coarse-graining:           -9.0009601.
MG DL_MG: Calling solver with defect correction order = 8
MG DL_MG: Solver finished
MG Hartree energy from (\int phi*rho dr):              1442.520401
MG Hartree energy from (\int eps (grad phi)^2 dr):     1441.868071
MG Discrepancy due to finite box and discretization:     -0.652330 (  -0.04522%)
MG Correction to account for finite box:                  0.470012
MG Remaining discrepancy, due to discretization:         -0.182318 (  -0.01264%)
     Trial step:       0.661799119479
             Q1:  -11598.918338694726
 Quadratic coef:       0.091639506270
 Linear coef   :      -0.254328341795
           Qmin:  -11598.932110067448
Quadratic minimum step length (  0.918349953577) accepted
    Initial Ne1:    7233.99977155
      Final Ne1:    7234.00000000

=================== Penalty functional idempotency correction ==================
 RMS occupancy error at iteration   1:  0.006647 (step -0.2903 Ne1=   7234.0000)
 RMS occupancy error at iteration   2:  0.000841 (step -0.4872 Ne1=   7234.0000)
 RMS occupancy error at iteration   3:  0.000047 (step -0.5028 Ne1=   7234.0000)
            Final RMS occupancy error   :  0.000000 (Ne1=   7234.0000)
               Final occupancy bounds   : [  0.0000,  1.0000]
================================================================================

    6        -1.159875564986E+04     9.6561E-05     8.7391E-05    -1.1989E-01
MG BCs: +ve charge blocks (gridpoints):     30882 (   17309032).
MG BCs: -ve charge blocks (gridpoints):      8340 (    1099413).
MG BCs:     Elided blocks (gridpoints):    169747 (  177888020).
MG BCs: Computational effort saved:  99.9800%.
MG BCs: Charge after coarse-graining:           -9.0009600.
MG DL_MG: Calling solver with defect correction order = 8
MG DL_MG: Solver finished
MG Hartree energy from (\int phi*rho dr):              1441.748197
MG Hartree energy from (\int eps (grad phi)^2 dr):     1441.095926
MG Discrepancy due to finite box and discretization:     -0.652272 (  -0.04524%)
MG Correction to account for finite box:                  0.469963
MG Remaining discrepancy, due to discretization:         -0.182309 (  -0.01265%)
      ideal mu1:      -0.762337512843
             Q0:  -11598.922539400519
             G0:      -0.589252200371
   RMS gradient:       0.000117248762
MG BCs: +ve charge blocks (gridpoints):     30884 (   17310947).
MG BCs: -ve charge blocks (gridpoints):      8343 (    1098555).
MG BCs:     Elided blocks (gridpoints):    169745 (  177886963).
MG BCs: Computational effort saved:  99.9800%.
MG BCs: Charge after coarse-graining:           -9.0009606.
MG DL_MG: Calling solver with defect correction order = 8
MG DL_MG: Solver finished
MG Hartree energy from (\int phi*rho dr):              1444.012648
MG Hartree energy from (\int eps (grad phi)^2 dr):     1443.360793
MG Discrepancy due to finite box and discretization:     -0.651855 (  -0.04514%)
MG Correction to account for finite box:                  0.469904
MG Remaining discrepancy, due to discretization:         -0.181951 (  -0.01260%)
     Trial step:       0.779591682005
             Q1:  -11599.157247103751
 Quadratic coef:       0.224668410781
 Linear coef   :      -0.459376114012
           Qmin:  -11599.157359255023
Quadratic minimum step length (  0.797009682292) accepted
    Initial Ne1:    7233.99912804
      Final Ne1:    7234.00000000

=================== Penalty functional idempotency correction ==================
 RMS occupancy error at iteration   1:  0.000542 (step -0.4711 Ne1=   7234.0000)
 RMS occupancy error at iteration   2:  0.000009 (step -0.4999 Ne1=   7234.0000)
            Final RMS occupancy error   :  0.000000 (Ne1=   7234.0000)
               Final occupancy bounds   : [  0.0000,  1.0000]
================================================================================

    7        -1.159892253940E+04     1.1725E-04     1.0611E-04    -1.6689E-01
MG BCs: +ve charge blocks (gridpoints):     30884 (   17311005).
MG BCs: -ve charge blocks (gridpoints):      8343 (    1098519).
MG BCs:     Elided blocks (gridpoints):    169745 (  177886941).
MG BCs: Computational effort saved:  99.9800%.
MG BCs: Charge after coarse-graining:           -9.0009606.
MG DL_MG: Calling solver with defect correction order = 8
MG DL_MG: Solver finished
MG Hartree energy from (\int phi*rho dr):              1444.064530
MG Hartree energy from (\int eps (grad phi)^2 dr):     1443.412684
MG Discrepancy due to finite box and discretization:     -0.651846 (  -0.04514%)
MG Correction to account for finite box:                  0.469902
MG Remaining discrepancy, due to discretization:         -0.181943 (  -0.01260%)
      ideal mu1:      -0.763876905427
             Q0:  -11599.156665488263
             G0:      -0.631481309143
   RMS gradient:       0.000121749855
MG BCs: +ve charge blocks (gridpoints):     30880 (   17310904).
MG BCs: -ve charge blocks (gridpoints):      8339 (    1098385).
MG BCs:     Elided blocks (gridpoints):    169749 (  177887176).
MG BCs: Computational effort saved:  99.9800%.
MG BCs: Charge after coarse-graining:           -9.0009607.
MG DL_MG: Calling solver with defect correction order = 8
MG DL_MG: Solver finished
MG Hartree energy from (\int phi*rho dr):              1443.840138
MG Hartree energy from (\int eps (grad phi)^2 dr):     1443.188700
MG Discrepancy due to finite box and discretization:     -0.651438 (  -0.04512%)
MG Correction to account for finite box:                  0.469760
MG Remaining discrepancy, due to discretization:         -0.181678 (  -0.01258%)
     Trial step:       0.788252572969
             Q1:  -11599.419415472192
 Quadratic coef:       0.235016782784
 Linear coef   :      -0.497766766713
           Qmin:  -11599.420233637640
Quadratic minimum step length (  0.834761522031) accepted
    Initial Ne1:    7233.99901886
      Final Ne1:    7234.00000000

=================== Penalty functional idempotency correction ==================
 RMS occupancy error at iteration   1:  0.004120 (step -0.3402 Ne1=   7234.0000)
 RMS occupancy error at iteration   2:  0.000341 (step -0.4934 Ne1=   7234.0000)
 RMS occupancy error at iteration   3:  0.000008 (step -0.5005 Ne1=   7234.0000)
            Final RMS occupancy error   :  0.000000 (Ne1=   7234.0000)
               Final occupancy bounds   : [  0.0000,  1.0000]
================================================================================

    8        -1.159915666549E+04     1.2175E-04     1.1019E-04    -2.3413E-01
MG BCs: +ve charge blocks (gridpoints):     30880 (   17310892).
MG BCs: -ve charge blocks (gridpoints):      8337 (    1098382).
MG BCs:     Elided blocks (gridpoints):    169749 (  177887191).
MG BCs: Computational effort saved:  99.9800%.
MG BCs: Charge after coarse-graining:           -9.0009607.
MG DL_MG: Calling solver with defect correction order = 8
MG DL_MG: Solver finished
MG Hartree energy from (\int phi*rho dr):              1443.852524
MG Hartree energy from (\int eps (grad phi)^2 dr):     1443.201078
MG Discrepancy due to finite box and discretization:     -0.651445 (  -0.04512%)
MG Correction to account for finite box:                  0.469781
MG Remaining discrepancy, due to discretization:         -0.181664 (  -0.01258%)
      ideal mu1:      -0.764108763804
             Q0:  -11599.418036195333
             G0:      -0.720173353575
   RMS gradient:       0.000127914945
========================= Kernel Line Step Protection ==========================
|  Iter |  Trial Step |   RMS Occupancy Error |   Occupancy Bounds | Accepted? |
    0        0.000000                0.000000    [ 1.0000:  0.0000]
    1        0.811174                0.012326    [ 1.4027: -0.4086]        No
    2        0.405587                0.004560    [ 1.1769: -0.1790]       Yes
================================================================================
MG BCs: +ve charge blocks (gridpoints):     30882 (   17310372).
MG BCs: -ve charge blocks (gridpoints):      8340 (    1098711).
MG BCs:     Elided blocks (gridpoints):    169747 (  177887382).
MG BCs: Computational effort saved:  99.9800%.
MG BCs: Charge after coarse-graining:           -9.0009604.
MG DL_MG: Calling solver with defect correction order = 8
MG DL_MG: Solver finished
MG Hartree energy from (\int phi*rho dr):              1442.869271
MG Hartree energy from (\int eps (grad phi)^2 dr):     1442.218159
MG Discrepancy due to finite box and discretization:     -0.651112 (  -0.04513%)
MG Correction to account for finite box:                  0.469469
MG Remaining discrepancy, due to discretization:         -0.181643 (  -0.01259%)
     Trial step:       0.405586894992
             Q1:  -11599.599473884562
 Quadratic coef:       0.110655185103
 Linear coef   :      -0.292092874332
           Qmin:  -11599.610793197991
Quadratic minimum step length (  0.535307233185) accepted
    Initial Ne1:    7233.99928825
      Final Ne1:    7234.00000000

=================== Penalty functional idempotency correction ==================
 RMS occupancy error at iteration   1:  0.006694 (step -0.2898 Ne1=   7234.0000)
 RMS occupancy error at iteration   2:  0.000687 (step -0.4866 Ne1=   7234.0000)
 RMS occupancy error at iteration   3:  0.000035 (step -0.5022 Ne1=   7234.0000)
            Final RMS occupancy error   :  0.000000 (Ne1=   7234.0000)
               Final occupancy bounds   : [  0.0000,  1.0000]
================================================================================

    9        -1.159941803620E+04     1.2791E-04     1.1577E-04    -2.6137E-01
MG BCs: +ve charge blocks (gridpoints):     30883 (   17310242).
MG BCs: -ve charge blocks (gridpoints):      8340 (    1098806).
MG BCs:     Elided blocks (gridpoints):    169746 (  177887417).
MG BCs: Computational effort saved:  99.9800%.
MG BCs: Charge after coarse-graining:           -9.0009603.
MG DL_MG: Calling solver with defect correction order = 8
MG DL_MG: Solver finished
MG Hartree energy from (\int phi*rho dr):              1442.581235
MG Hartree energy from (\int eps (grad phi)^2 dr):     1441.930139
MG Discrepancy due to finite box and discretization:     -0.651097 (  -0.04513%)
MG Correction to account for finite box:                  0.469462
MG Remaining discrepancy, due to discretization:         -0.181634 (  -0.01259%)
      ideal mu1:      -0.763842580222
   10        -1.159964127493E+04     1.1306E-04     1.0232E-04    -2.2324E-01
Finished density kernel iterations (  10)

Writing density kernel to file "complex_33541.vacuum_dkn" ... done


>>> Density kernel optimised for the current NGWF basis:
     ~~~~~~~~~~~~~~~~~~~~~~~~~~~~~~~~~~~~~~~~~~~~~~~~~~~~~~~~~~~
     Total energy                =  -1.15996412749329E+04  Eh
     Estimated bandgap           =  -3.0906E-01  Eh
     RMS occupancy error         =   4.5814E-08
     [H,K] commutator            =   1.0232E-04
     Occupancy bounds            = [  0.000:  1.000]
     ~~~~~~~~~~~~~~~~~~~~~~~~~~~~~~~~~~~~~~~~~~~~~~~~~~~~~~~~~~~




################################################################################
########################### NGWF CG iteration  001 #############################
################################################################################
****** Reciprocal space K.E. preconditioning with k_zero =  3.5000 a0^-1 *******

>>> Checking for convergence of NGWFs:   NOT CONVERGED
  ========================================================================
         NGWF RMS gradient =  1.5937E-03 >  2.0000E-06  | above tolerance
  ========================================================================

>>> Improving NGWFs using line search:
============ Calculation of NGWF S^-1 using Hotelling algorithm ================ 
         Iteration  |  Frobenius norm and Maximum abs value    (of I-S*S_n^-1)   
               1       0.19804990E+00     0.49147026E-02
               2       0.90491789E-03     0.35744460E-04
               3       0.32148595E-07     0.21062685E-08
               4       0.12618659E-12     0.64392935E-14
================================================================================
MG BCs: +ve charge blocks (gridpoints):     30439 (   17259873).
MG BCs: -ve charge blocks (gridpoints):      8341 (    1098554).
MG BCs:     Elided blocks (gridpoints):    170194 (  177938038).
MG BCs: Computational effort saved:  99.9802%.
MG BCs: Charge after coarse-graining:           -9.0009622.
MG DL_MG: Calling solver with defect correction order = 8
MG DL_MG: Solver finished
MG Hartree energy from (\int phi*rho dr):              1410.648472
MG Hartree energy from (\int eps (grad phi)^2 dr):     1409.998185
MG Discrepancy due to finite box and discretization:     -0.650287 (  -0.04610%)
MG Correction to account for finite box:                  0.469398
MG Remaining discrepancy, due to discretization:         -0.180889 (  -0.01282%)
============ Calculation of NGWF S^-1 using Hotelling algorithm ================ 
         Iteration  |  Frobenius norm and Maximum abs value    (of I-S*S_n^-1)   
               1       0.18503164E+01     0.39365828E-01
               2       0.70840318E-01     0.20990815E-02
               3       0.14018107E-03     0.72095967E-05
               4       0.96465439E-09     0.94812824E-10
               5       0.10994533E-12     0.48849813E-14
================================================================================
------------------------------- NGWF line search -------------------------------
RMS gradient                =       0.00159370251755
Trial step length           =               0.122474
Gradient along search dir.  =       -277.60865027555
Functional at step 0        =  -11599.64127493288834
Functional at step 1        =  -11631.04007673542947
Functional predicted        =  -11710.74474958295650
Selected quadratic step     =               0.800432
--------------------------- NGWF line search finished --------------------------
                                               
Writing NGWFs to file "complex_33541.vacuum_tightbox_ngwfs"....  done

>>> Optimising kernel for current NGWFs:
   Initial electron number for spin 1:    7268.70602863
     Final electron number for spin 1:    7234.00000000

=================== Penalty functional idempotency correction ==================
 RMS occupancy error at iteration   1:  0.004297 (step -0.4858 Ne1=   7234.0000)
 RMS occupancy error at iteration   2:  0.000072 (step -0.5003 Ne1=   7234.0000)
            Final RMS occupancy error   :  0.000000 (Ne1=   7234.0000)
               Final occupancy bounds   : [  0.0000,  1.0000]
================================================================================

................................................................................
<<<<<<<<<<<<<< LNV (Original version) density kernel optimisation >>>>>>>>>>>>>>
~~~~~~~~~~~~~~~~~~~~~~~~~~~~~~~~~~~~~~~~~~~~~~~~~~~~~~~~~~~~~~~~~~~~~~~~~~~~~~~~
   iter  |      energy (Eh)       | rms gradient |  commutator  |   dE (Eh)
MG BCs: +ve charge blocks (gridpoints):     24749 (   16990556).
MG BCs: -ve charge blocks (gridpoints):      8466 (    1082283).
MG BCs:     Elided blocks (gridpoints):    175891 (  178223626).
MG BCs: Computational effort saved:  99.9831%.
MG BCs: Charge after coarse-graining:           -9.0006635.
MG DL_MG: Calling solver with defect correction order = 8
MG DL_MG: Solver finished
MG Hartree energy from (\int phi*rho dr):              1256.053281
MG Hartree energy from (\int eps (grad phi)^2 dr):     1255.402827
MG Discrepancy due to finite box and discretization:     -0.650454 (  -0.05179%)
MG Correction to account for finite box:                  0.469112
MG Remaining discrepancy, due to discretization:         -0.181342 (  -0.01444%)
      ideal mu1:      -0.705037153969
             Q0:  -11709.945192340063
             G0:     -10.148741984646
   RMS gradient:       0.000486590656
MG BCs: +ve charge blocks (gridpoints):     24783 (   16998629).
MG BCs: -ve charge blocks (gridpoints):      8468 (    1080454).
MG BCs:     Elided blocks (gridpoints):    175857 (  178217382).
MG BCs: Computational effort saved:  99.9831%.
MG BCs: Charge after coarse-graining:           -9.0006612.
MG DL_MG: Calling solver with defect correction order = 8
MG DL_MG: Solver finished
MG Hartree energy from (\int phi*rho dr):              1265.065717
MG Hartree energy from (\int eps (grad phi)^2 dr):     1264.412059
MG Discrepancy due to finite box and discretization:     -0.653659 (  -0.05167%)
MG Correction to account for finite box:                  0.468419
MG Remaining discrepancy, due to discretization:         -0.185239 (  -0.01464%)
     Trial step:       0.465954502687
             Q1:  -11711.412539751153
 Quadratic coef:       3.261504613261
 Linear coef   :      -4.728852024352
           Qmin:  -11711.659281703704
Quadratic minimum step length (  0.337793465679) accepted
    Initial Ne1:    7233.99956333
      Final Ne1:    7234.00000000

=================== Penalty functional idempotency correction ==================
 RMS occupancy error at iteration   1:  0.000391 (step -0.4981 Ne1=   7234.0000)
 RMS occupancy error at iteration   2:  0.000001 (step -0.5000 Ne1=   7234.0000)
            Final RMS occupancy error   :  0.000000 (Ne1=   7234.0000)
               Final occupancy bounds   : [  0.0000,  1.0000]
================================================================================

    1        -1.170994519234E+04     4.8659E-04     4.4038E-04
MG BCs: +ve charge blocks (gridpoints):     24775 (   16996481).
MG BCs: -ve charge blocks (gridpoints):      8465 (    1080978).
MG BCs:     Elided blocks (gridpoints):    175865 (  178219006).
MG BCs: Computational effort saved:  99.9831%.
MG BCs: Charge after coarse-graining:           -9.0006618.
MG DL_MG: Calling solver with defect correction order = 8
MG DL_MG: Solver finished
MG Hartree energy from (\int phi*rho dr):              1262.272616
MG Hartree energy from (\int eps (grad phi)^2 dr):     1261.619870
MG Discrepancy due to finite box and discretization:     -0.652746 (  -0.05171%)
MG Correction to account for finite box:                  0.468604
MG Remaining discrepancy, due to discretization:         -0.184142 (  -0.01459%)
      ideal mu1:      -0.711421196173
             Q0:  -11711.652134865522
             G0:      -1.269439782023
   RMS gradient:       0.000171786862
MG BCs: +ve charge blocks (gridpoints):     24781 (   16995771).
MG BCs: -ve charge blocks (gridpoints):      8466 (    1081781).
MG BCs:     Elided blocks (gridpoints):    175859 (  178218913).
MG BCs: Computational effort saved:  99.9831%.
MG BCs: Charge after coarse-graining:           -9.0006618.
MG DL_MG: Calling solver with defect correction order = 8
MG DL_MG: Solver finished
MG Hartree energy from (\int phi*rho dr):              1262.901619
MG Hartree energy from (\int eps (grad phi)^2 dr):     1262.248872
MG Discrepancy due to finite box and discretization:     -0.652747 (  -0.05169%)
MG Correction to account for finite box:                  0.468223
MG Remaining discrepancy, due to discretization:         -0.184524 (  -0.01461%)
     Trial step:       0.396732134206
             Q1:  -11711.953279122477
 Quadratic coef:       0.202483297013
 Linear coef   :      -0.503627553968
           Qmin:  -11711.965297379242
Quadratic minimum step length (  0.493386954080) accepted
    Initial Ne1:    7233.99992041
      Final Ne1:    7234.00000000

=================== Penalty functional idempotency correction ==================
 RMS occupancy error at iteration   1:  0.000409 (step -0.4835 Ne1=   7234.0000)
 RMS occupancy error at iteration   2:  0.000009 (step -0.5001 Ne1=   7234.0000)
            Final RMS occupancy error   :  0.000000 (Ne1=   7234.0000)
               Final occupancy bounds   : [  0.0000,  1.0000]
================================================================================

    2        -1.171165213487E+04     1.7179E-04     1.5547E-04    -1.7069E+00
MG BCs: +ve charge blocks (gridpoints):     24781 (   16995582).
MG BCs: -ve charge blocks (gridpoints):      8467 (    1082024).
MG BCs:     Elided blocks (gridpoints):    175859 (  178218859).
MG BCs: Computational effort saved:  99.9831%.
MG BCs: Charge after coarse-graining:           -9.0006618.
MG DL_MG: Calling solver with defect correction order = 8
MG DL_MG: Solver finished
MG Hartree energy from (\int phi*rho dr):              1263.055722
MG Hartree energy from (\int eps (grad phi)^2 dr):     1262.402971
MG Discrepancy due to finite box and discretization:     -0.652751 (  -0.05168%)
MG Correction to account for finite box:                  0.468131
MG Remaining discrepancy, due to discretization:         -0.184619 (  -0.01462%)
      ideal mu1:      -0.713182903958
             Q0:  -11711.965246114763
             G0:      -0.434965510284
   RMS gradient:       0.000100772320
MG BCs: +ve charge blocks (gridpoints):     24781 (   16994855).
MG BCs: -ve charge blocks (gridpoints):      8470 (    1082515).
MG BCs:     Elided blocks (gridpoints):    175859 (  178219095).
MG BCs: Computational effort saved:  99.9831%.
MG BCs: Charge after coarse-graining:           -9.0006618.
MG DL_MG: Calling solver with defect correction order = 8
MG DL_MG: Solver finished
MG Hartree energy from (\int phi*rho dr):              1262.409807
MG Hartree energy from (\int eps (grad phi)^2 dr):     1261.757608
MG Discrepancy due to finite box and discretization:     -0.652199 (  -0.05166%)
MG Correction to account for finite box:                  0.467578
MG Remaining discrepancy, due to discretization:         -0.184621 (  -0.01462%)
     Trial step:       0.442427914220
             Q1:  -11712.120202437975
 Quadratic coef:       0.037484560262
 Linear coef   :      -0.192440883473
           Qmin:  -11712.212237765279
Quadratic minimum step length (  1.135683840105) accepted
    Initial Ne1:    7233.99984723
      Final Ne1:    7234.00000000

=================== Penalty functional idempotency correction ==================
 RMS occupancy error at iteration   1:  0.003277 (step -0.3443 Ne1=   7234.0000)
 RMS occupancy error at iteration   2:  0.000269 (step -0.4897 Ne1=   7234.0000)
 RMS occupancy error at iteration   3:  0.000004 (step -0.5000 Ne1=   7234.0000)
            Final RMS occupancy error   :  0.000000 (Ne1=   7234.0000)
               Final occupancy bounds   : [  0.0000,  1.0000]
================================================================================

    3        -1.171196524611E+04     1.0077E-04     9.1202E-05    -3.1311E-01
MG BCs: +ve charge blocks (gridpoints):     24778 (   16993835).
MG BCs: -ve charge blocks (gridpoints):      8472 (    1083155).
MG BCs:     Elided blocks (gridpoints):    175862 (  178219475).
MG BCs: Computational effort saved:  99.9831%.
MG BCs: Charge after coarse-graining:           -9.0006618.
MG DL_MG: Calling solver with defect correction order = 8
MG DL_MG: Solver finished
MG Hartree energy from (\int phi*rho dr):              1261.425882
MG Hartree energy from (\int eps (grad phi)^2 dr):     1260.774322
MG Discrepancy due to finite box and discretization:     -0.651560 (  -0.05165%)
MG Correction to account for finite box:                  0.466935
MG Remaining discrepancy, due to discretization:         -0.184625 (  -0.01464%)
      ideal mu1:      -0.714598652971
             Q0:  -11712.187557726284
             G0:      -0.415857438071
   RMS gradient:       0.000102186901
MG BCs: +ve charge blocks (gridpoints):     24779 (   16994422).
MG BCs: -ve charge blocks (gridpoints):      8471 (    1082982).
MG BCs:     Elided blocks (gridpoints):    175861 (  178219061).
MG BCs: Computational effort saved:  99.9831%.
MG BCs: Charge after coarse-graining:           -9.0006617.
MG DL_MG: Calling solver with defect correction order = 8
MG DL_MG: Solver finished
MG Hartree energy from (\int phi*rho dr):              1261.641032
MG Hartree energy from (\int eps (grad phi)^2 dr):     1260.990156
MG Discrepancy due to finite box and discretization:     -0.650876 (  -0.05159%)
MG Correction to account for finite box:                  0.466565
MG Remaining discrepancy, due to discretization:         -0.184311 (  -0.01461%)
     Trial step:       0.708842882867
             Q1:  -11712.294145344058
 Quadratic coef:       0.188189967490
 Linear coef   :      -0.294777585264
           Qmin:  -11712.302991383473
Quadratic minimum step length (  0.555159757266) accepted
    Initial Ne1:    7233.99992176
      Final Ne1:    7234.00000000

=================== Penalty functional idempotency correction ==================
 RMS occupancy error at iteration   1:  0.003962 (step -0.3231 Ne1=   7234.0000)
 RMS occupancy error at iteration   2:  0.000352 (step -0.4843 Ne1=   7234.0000)
 RMS occupancy error at iteration   3:  0.000007 (step -0.5004 Ne1=   7234.0000)
            Final RMS occupancy error   :  0.000000 (Ne1=   7234.0000)
               Final occupancy bounds   : [  0.0000,  1.0000]
================================================================================

    4        -1.171218755773E+04     1.0219E-04     9.2482E-05    -2.2231E-01
MG BCs: +ve charge blocks (gridpoints):     24780 (   16994297).
MG BCs: -ve charge blocks (gridpoints):      8471 (    1083071).
MG BCs:     Elided blocks (gridpoints):    175860 (  178219097).
MG BCs: Computational effort saved:  99.9831%.
MG BCs: Charge after coarse-graining:           -9.0006617.
MG DL_MG: Calling solver with defect correction order = 8
MG DL_MG: Solver finished
MG Hartree energy from (\int phi*rho dr):              1261.583587
MG Hartree energy from (\int eps (grad phi)^2 dr):     1260.932803
MG Discrepancy due to finite box and discretization:     -0.650784 (  -0.05158%)
MG Correction to account for finite box:                  0.466398
MG Remaining discrepancy, due to discretization:         -0.184386 (  -0.01462%)
      ideal mu1:      -0.716766917695
             Q0:  -11712.327353914967
             G0:      -0.353090167399
   RMS gradient:       0.000079373210
MG BCs: +ve charge blocks (gridpoints):     24781 (   16996864).
MG BCs: -ve charge blocks (gridpoints):      8467 (    1081902).
MG BCs:     Elided blocks (gridpoints):    175859 (  178217699).
MG BCs: Computational effort saved:  99.9831%.
MG BCs: Charge after coarse-graining:           -9.0006613.
MG DL_MG: Calling solver with defect correction order = 8
MG DL_MG: Solver finished
MG Hartree energy from (\int phi*rho dr):              1263.162982
MG Hartree energy from (\int eps (grad phi)^2 dr):     1262.512537
MG Discrepancy due to finite box and discretization:     -0.650445 (  -0.05149%)
MG Correction to account for finite box:                  0.466250
MG Remaining discrepancy, due to discretization:         -0.184195 (  -0.01458%)
     Trial step:       0.627312555902
             Q1:  -11712.419883145601
 Quadratic coef:       0.128968664740
 Linear coef   :      -0.221497895375
           Qmin:  -11712.422457089358
Quadratic minimum step length (  0.538690584860) accepted
    Initial Ne1:    7233.99992157
      Final Ne1:    7234.00000000

=================== Penalty functional idempotency correction ==================
 RMS occupancy error at iteration   1:  0.003494 (step -0.3379 Ne1=   7234.0000)
 RMS occupancy error at iteration   2:  0.000288 (step -0.4871 Ne1=   7234.0000)
 RMS occupancy error at iteration   3:  0.000005 (step -0.5000 Ne1=   7234.0000)
            Final RMS occupancy error   :  0.000000 (Ne1=   7234.0000)
               Final occupancy bounds   : [  0.0000,  1.0000]
================================================================================

    5        -1.171232735391E+04     7.9373E-05     7.1835E-05    -1.3980E-01
MG BCs: +ve charge blocks (gridpoints):     24780 (   16996540).
MG BCs: -ve charge blocks (gridpoints):      8467 (    1082052).
MG BCs:     Elided blocks (gridpoints):    175860 (  178217873).
MG BCs: Computational effort saved:  99.9831%.
MG BCs: Charge after coarse-graining:           -9.0006613.
MG DL_MG: Calling solver with defect correction order = 8
MG DL_MG: Solver finished
MG Hartree energy from (\int phi*rho dr):              1262.938347
MG Hartree energy from (\int eps (grad phi)^2 dr):     1262.288030
MG Discrepancy due to finite box and discretization:     -0.650317 (  -0.05149%)
MG Correction to account for finite box:                  0.466087
MG Remaining discrepancy, due to discretization:         -0.184230 (  -0.01459%)
      ideal mu1:      -0.719290632738
             Q0:  -11712.445397025673
             G0:      -0.207902594512
   RMS gradient:       0.000058350329
MG BCs: +ve charge blocks (gridpoints):     24780 (   16997376).
MG BCs: -ve charge blocks (gridpoints):      8466 (    1081609).
MG BCs:     Elided blocks (gridpoints):    175860 (  178217480).
MG BCs: Computational effort saved:  99.9831%.
MG BCs: Charge after coarse-graining:           -9.0006613.
MG DL_MG: Calling solver with defect correction order = 8
MG DL_MG: Solver finished
MG Hartree energy from (\int phi*rho dr):              1263.236255
MG Hartree energy from (\int eps (grad phi)^2 dr):     1262.586077
MG Discrepancy due to finite box and discretization:     -0.650178 (  -0.05147%)
MG Correction to account for finite box:                  0.465915
MG Remaining discrepancy, due to discretization:         -0.184263 (  -0.01459%)
     Trial step:       0.581315205056
             Q1:  -11712.507570736227
 Quadratic coef:       0.058683228806
 Linear coef   :      -0.120856939360
           Qmin:  -11712.507622639740
Quadratic minimum step length (  0.598603535591) accepted
    Initial Ne1:    7233.99995087
      Final Ne1:    7234.00000000

=================== Penalty functional idempotency correction ==================
 RMS occupancy error at iteration   1:  0.002863 (step -0.3622 Ne1=   7234.0000)
 RMS occupancy error at iteration   2:  0.000204 (step -0.4917 Ne1=   7234.0000)
 RMS occupancy error at iteration   3:  0.000003 (step -0.5000 Ne1=   7234.0000)
            Final RMS occupancy error   :  0.000000 (Ne1=   7234.0000)
               Final occupancy bounds   : [  0.0000,  1.0000]
================================================================================

    6        -1.171244539703E+04     5.8350E-05     5.2809E-05    -1.1804E-01
MG BCs: +ve charge blocks (gridpoints):     24780 (   16997398).
MG BCs: -ve charge blocks (gridpoints):      8466 (    1081607).
MG BCs:     Elided blocks (gridpoints):    175860 (  178217460).
[...]
MG Hartree energy from (\int phi*rho dr):              1220.009976
MG Hartree energy from (\int eps (grad phi)^2 dr):     1219.819963
MG Discrepancy due to finite box and discretization:     -0.190013 (  -0.01557%)
MG Correction to account for finite box:                  0.006431
MG Remaining discrepancy, due to discretization:         -0.183582 (  -0.01505%)
             Q2:  -11747.400733900489
  Cubic LS coeff:       1.036537651008
Predicted energy:  -11747.400733900497
Cubic minimum step length accepted
    Initial Ne1:    7234.00000000
      Final Ne1:    7234.00000000

=================== Penalty functional idempotency correction ==================
 RMS occupancy error at iteration   1:  0.000000 (step -0.5000 Ne1=   7234.0000)
            Final RMS occupancy error   :  0.000000 (Ne1=   7234.0000)
               Final occupancy bounds   : [ -0.0000,  1.0000]
================================================================================

    7        -1.174740073390E+04     8.7626E-09     7.9304E-09    -2.4447E-09

Reusing previously generated solute cavity.
MG BCs: +ve charge blocks (gridpoints):     29032 (   19190164).
MG BCs: -ve charge blocks (gridpoints):      8456 (    1051219).
MG BCs:     Elided blocks (gridpoints):    171608 (  176055082).
MG BCs: Computational effort saved:  99.9809%.
MG BCs: Charge after coarse-graining:           -9.0009403.
MG DL_MG: Calling solver with defect correction order = 8
MG DL_MG: Solver finished
MG Hartree energy from (\int phi*rho dr):              1220.009975
MG Hartree energy from (\int eps (grad phi)^2 dr):     1219.819962
MG Discrepancy due to finite box and discretization:     -0.190013 (  -0.01557%)
MG Correction to account for finite box:                  0.006431
MG Remaining discrepancy, due to discretization:         -0.183582 (  -0.01505%)
      ideal mu1:      -0.481306813780
             Q0:  -11747.400733900489
             G0:      -0.000000004032
   RMS gradient:       0.000000011667

Reusing previously generated solute cavity.
MG BCs: +ve charge blocks (gridpoints):     29032 (   19190167).
MG BCs: -ve charge blocks (gridpoints):      8456 (    1051219).
MG BCs:     Elided blocks (gridpoints):    171608 (  176055079).
MG BCs: Computational effort saved:  99.9809%.
MG BCs: Charge after coarse-graining:           -9.0009403.
MG DL_MG: Calling solver with defect correction order = 8
MG DL_MG: Solver finished
MG Hartree energy from (\int phi*rho dr):              1220.009945
MG Hartree energy from (\int eps (grad phi)^2 dr):     1219.819931
MG Discrepancy due to finite box and discretization:     -0.190013 (  -0.01557%)
MG Correction to account for finite box:                  0.006431
MG Remaining discrepancy, due to discretization:         -0.183582 (  -0.01505%)
     Trial step:       0.749121523399
             Q1:  -11747.400733902236
 Quadratic coef:       0.000000001275
 Linear coef   :      -0.000000003021
           Qmin:  -11747.400733902279
Quadratic minimum step length (  0.887325294875) accepted
    Initial Ne1:    7234.00000000
      Final Ne1:    7234.00000000

=================== Penalty functional idempotency correction ==================
 RMS occupancy error at iteration   1:  0.000000 (step -0.5000 Ne1=   7234.0000)
            Final RMS occupancy error   :  0.000000 (Ne1=   7234.0000)
               Final occupancy bounds   : [  0.0000,  1.0000]
================================================================================

    8        -1.174740073390E+04     1.1667E-08     1.0559E-08    -3.3760E-09

Reusing previously generated solute cavity.
MG BCs: +ve charge blocks (gridpoints):     29032 (   19190167).
MG BCs: -ve charge blocks (gridpoints):      8456 (    1051219).
MG BCs:     Elided blocks (gridpoints):    171608 (  176055079).
MG BCs: Computational effort saved:  99.9809%.
MG BCs: Charge after coarse-graining:           -9.0009403.
MG DL_MG: Calling solver with defect correction order = 8
MG DL_MG: Solver finished
MG Hartree energy from (\int phi*rho dr):              1220.009939
MG Hartree energy from (\int eps (grad phi)^2 dr):     1219.819926
MG Discrepancy due to finite box and discretization:     -0.190013 (  -0.01557%)
MG Correction to account for finite box:                  0.006431
MG Remaining discrepancy, due to discretization:         -0.183582 (  -0.01505%)
      ideal mu1:      -0.481306772068
             Q0:  -11747.400733902236
             G0:      -0.000000003848
   RMS gradient:       0.000000009609

Reusing previously generated solute cavity.
MG BCs: +ve charge blocks (gridpoints):     29032 (   19190167).
MG BCs: -ve charge blocks (gridpoints):      8456 (    1051219).
MG BCs:     Elided blocks (gridpoints):    171608 (  176055079).
MG BCs: Computational effort saved:  99.9809%.
MG BCs: Charge after coarse-graining:           -9.0009403.
MG DL_MG: Calling solver with defect correction order = 8
MG DL_MG: Solver finished
MG Hartree energy from (\int phi*rho dr):              1220.009898
MG Hartree energy from (\int eps (grad phi)^2 dr):     1219.819885
MG Discrepancy due to finite box and discretization:     -0.190013 (  -0.01557%)
MG Correction to account for finite box:                  0.006431
MG Remaining discrepancy, due to discretization:         -0.183582 (  -0.01505%)
     Trial step:       0.815300237120
             Q1:  -11747.400733901421
 Quadratic coef:       0.000000003953
 Linear coef   :      -0.000000003137
           Qmin:  -11747.400733902858
Quadratic minimum step length (  0.323558668598) accepted
    Initial Ne1:    7234.00000000
      Final Ne1:    7234.00000000

=================== Penalty functional idempotency correction ==================
 RMS occupancy error at iteration   1:  0.000000 (step -0.5000 Ne1=   7234.0000)
            Final RMS occupancy error   :  0.000000 (Ne1=   7234.0000)
               Final occupancy bounds   : [ -0.0000,  1.0000]
================================================================================

    9        -1.174740073390E+04     9.6086E-09     8.6961E-09    -1.7462E-09

Reusing previously generated solute cavity.
MG BCs: +ve charge blocks (gridpoints):     29032 (   19190167).
MG BCs: -ve charge blocks (gridpoints):      8456 (    1051219).
MG BCs:     Elided blocks (gridpoints):    171608 (  176055079).
MG BCs: Computational effort saved:  99.9809%.
MG BCs: Charge after coarse-graining:           -9.0009403.
MG DL_MG: Calling solver with defect correction order = 8
MG DL_MG: Solver finished
MG Hartree energy from (\int phi*rho dr):              1220.009923
MG Hartree energy from (\int eps (grad phi)^2 dr):     1219.819909
MG Discrepancy due to finite box and discretization:     -0.190013 (  -0.01557%)
MG Correction to account for finite box:                  0.006431
MG Remaining discrepancy, due to discretization:         -0.183582 (  -0.01505%)
      ideal mu1:      -0.481306757996
   10        -1.174740073390E+04     5.8208E-09     5.2680E-09    -4.6566E-10
Finished density kernel iterations (  10)

Writing density kernel to file "complex_33541.dkn" ... done


>>> Density kernel optimised for the current NGWF basis:
     ~~~~~~~~~~~~~~~~~~~~~~~~~~~~~~~~~~~~~~~~~~~~~~~~~~~~~~~~~~~
     Total energy                =  -1.17474007339027E+04  Eh
     Estimated bandgap           =   9.3558E-02  Eh
     RMS occupancy error         =   3.1333E-16
     [H,K] commutator            =   5.2680E-09
     Occupancy bounds            = [  0.000:  1.000]
     ~~~~~~~~~~~~~~~~~~~~~~~~~~~~~~~~~~~~~~~~~~~~~~~~~~~~~~~~~~~




################################################################################
########################### NGWF CG iteration  004 #############################
################################################################################
****** Reciprocal space K.E. preconditioning with k_zero =  3.5000 a0^-1 *******

>>> Checking for convergence of NGWFs: 
           ........................................................
           |         *** NGWF optimisation converged ***          |
           | RMS NGWF gradient =    0.00000190534032              |
           | Criteria satisfied:                                  |
           | -> RMS NGWF gradient lower than set threshold.       |
           ========================================================

Reusing previously generated solute cavity.
MG BCs: +ve charge blocks (gridpoints):     29032 (   19190167).
MG BCs: -ve charge blocks (gridpoints):      8456 (    1051219).
MG BCs:     Elided blocks (gridpoints):    171608 (  176055079).
MG BCs: Computational effort saved:  99.9809%.
MG BCs: Charge after coarse-graining:           -9.0009403.
MG DL_MG: Calling solver with defect correction order = 8
MG DL_MG: Solver finished
MG Hartree energy from (\int phi*rho dr):              1220.009923
MG Hartree energy from (\int eps (grad phi)^2 dr):     1219.819909
MG Discrepancy due to finite box and discretization:     -0.190013 (  -0.01557%)
MG Correction to account for finite box:                  0.006431
MG Remaining discrepancy, due to discretization:         -0.183582 (  -0.01505%)

================================================================================
           ---------------- ENERGY COMPONENTS (Eh) ----------------
           | Kinetic                    :     8576.94422219919943 |
           | Pseudo. (local,OBC,corr'd) :    -5073.41221217452039 |
           | Pseudopotential (non-local):     1410.35483003085665 |
           | Hartree (molecular)        :     1220.00992274005034 |
           | Exchange-correlation       :    -3377.07059014304468 |
           | Ion-ion (open BC)          :   836434.70559318852611 |
           | Dispersion Correction      :       -3.27269347330047 |
           | Smeared ion non-self corr. :  -836386.39744018972851 |
           | Smeared ion self corr.     :   -14549.92364409075344 |
           | Solvent cavitation energy  :        2.35267458919552 |
           | Solute-solvent dis-rep en. :       -1.69139657903739 |
           | Total                      :   -11747.40073390257567 |
           --------------------------------------------------------
           ------ LOCAL ENERGY COMPONENTS FROM MATRIX TRACES ------
           | Pseudopotential (local)    :    -5073.41221217452221 |
           | Hartree                    :    -2004.52933654258072 |
           --------------------------------------------------------
           Integrated density           :     7233.99999999901684
           Integrated density tr(KS)    :     7234.00000000000000
================================================================================


                        <<<<< CALCULATION SUMMARY >>>>>                         
|ITER|    RMS GRADIENT   |     TOTAL ENERGY    |   step   |     Epredicted              
   0     0.00004160863555 -11747.33113932888955   0.637712 -11747.39147582079568        
   1     0.00000933347281 -11747.40029363648500   0.076635 -11747.40065847390542        
   2     0.00000419150221 -11747.40071790956426   0.014592 -11747.40073191941519        
   3     0.00000190534032 -11747.40073390270118  <-- CG                                 

=================== Finished the calculation in solvent ========================
= Adjusting the following parameters: 
= read_denskern: F
= read_tightbox_ngwfs: F
= maxit_pen: 0 (restored to user-specified value)
= restart read filename prefix: ""
= restart write filename prefix: ""
================================================================================

================================================================================
IS: Calculation in solvent completed (NGWFs converged).      

Individual components of total energy in solvent:     hartree           kcal/mol
- Usual non-electrostatic DFT terms:    -12968.07193465290948    -8137587.822781
- Electrostatic fixed charge energy:      1220.00992274005034      765567.768361
- Apolar cavitation energy:                  2.35267458919552        1476.325562
- Apolar dispersion-repulsion energy:       -1.69139657903739       -1061.367355
 -------------------------------------------------------------------------------
- Total energy in solvent:              -11747.40073390270118    -7371605.096212

Components of total energy in solvent:                hartree           kcal/mol
- Usual non-electrostatic DFT terms:    -12968.07193465290948    -8137587.822781
- Electrostatic energy:                   1220.00992274005034      765567.768361
- Apolar energy terms:                       0.66127801015813         414.958207
 -------------------------------------------------------------------------------
- Total energy in solvent:              -11747.40073390270118    -7371605.096212

Calculation of free energy of solvation:              hartree           kcal/mol
- Total energy in solvent:         (+)  -11747.40073390270118    -7371605.096212
- Total energy in vacuum:          (-)  -11743.36817971698474    -7369074.630311
 -------------------------------------------------------------------------------
- Total free energy of solvation:           -4.03255418571644       -2530.465901

Components of polar term in f.e. of solvation:        hartree           kcal/mol
- Electrostatic:                            -4.83240656673797       -3032.380837
- Change in nonelectrostatic DFT terms:      0.13857437086335          86.956729
 -------------------------------------------------------------------------------
- Polar term in f.e. of solvation:          -4.69383219587462       -2945.424109

Components of free energy of solvation:               hartree           kcal/mol
- Polar term in f.e. of solvation: (+)      -4.69383219587462       -2945.424109
- Apolar (cavitation, dis., rep.): (+)       0.66127801015813         414.958207
 -------------------------------------------------------------------------------
- Total free energy of solvation:           -4.03255418571649       -2530.465901
================================================================================


------------------------------ TIMING INFORMATION ------------------------------
AVERAGE TIME:   31497.253s on     60 node(s)                                    
TOTAL TIME:     31497.253s on     60 node(s)                                    
================= AVERAGE TIMINGS FROM ALL NODES (CUMULATIVE) ==================
|| TAG                                    #calls    cpu time   %total  Gflops ||
|| work_imbalance                       :     1        0.00s   0.000%  ------ ||
|| sparse_set_to_garbage                :   182        0.03s   0.000%  ------ ||
|| parallel_prepare_fd_halos_request    :  1953        0.03s   0.000%  ------ ||
|| ngwfs_initialise_from_radial         :     1        0.11s   0.000%  ------ ||
|| basis_extract_function_from_box      :  3600        0.15s   0.000%  ------ ||
|| parallel_prepare_fd_halos_alloc      :  1953        0.60s   0.002%  ------ ||
|| parallel_prepare_fd_halos_satisfy    :  1953        0.64s   0.002%  ------ ||
|| pseudopotentials_nonlocal_mat        :    31        1.94s   0.006%  ------ ||
|| density_init_guess_real              :     1        3.41s   0.011%  ------ ||
|| restart_ngwfs_tightbox_input         :     1        4.13s   0.013%  ------ ||
|| restart_kernel_read                  :     1        4.38s   0.014%  ------ ||
|| openbc_locps_radial                  :     1        5.74s   0.018%  ------ ||
|| parallel_prepare_fd_halos_comms_imbal:  1953       11.39s   0.036%  ------ ||
|| parallel_prepare_fd_halos_clear      :  1953       19.17s   0.061%  ------ ||
|| sparse_init                          :     2       22.76s   0.072%  ------ ||
|| parallel_prepare_fd_halos_comms_wait :  1953       28.19s   0.089%  ------ ||
|| projectors_func_ovlp_box             :    31       30.87s   0.098%  ------ ||
|| function_ops_brappd_ketppd           :    31       35.09s   0.111%  ------ ||
|| palser_mano_kernel_optimise          :     1       37.89s   0.120%  ------ ||
|| basis_copy_function_to_box           : 58704       40.89s   0.130%  ------ ||
|| projectors_init_fftbox_recip         :   143       41.04s   0.130%  ------ ||
|| ngwf_gradient_coeffs                 :    16       47.64s   0.151%  ------ ||
|| fourier_apply_box_pair               :  5196       53.43s   0.170% 563.113 ||
|| parallel_prepare_fd_halos            :  1953       60.04s   0.191%  ------ ||
|| pseudo_make_structure_factor         :     2       62.72s   0.199%  ------ ||
|| sparse_embed_hotelling_invert_embed  :    31       76.98s   0.244%  ------ ||
|| restart_kernel_write                 :    17      108.77s   0.345%  ------ ||
|| finite_difference_derivative         :  1953      151.40s   0.481%  ------ ||
|| integrals_kinetic                    :    31      160.15s   0.508%  ------ ||
|| projectors_gradient_batch            :   112      161.42s   0.512%  ------ ||
|| basis_dot_function_with_box          : 8.941M     171.12s   0.543%  ------ ||
|| fourier_apply_cell_backward          :  1303      176.89s   0.562% 101.749 ||
|| sparse_trace                         :  5605      201.92s   0.641%  ------ ||
|| fourier_apply_cell_forward           :  1301      234.99s   0.746%  76.473 ||
|| openbc_locps_on_grid                 :     2      267.84s   0.850%  ------ ||
|| kernel_purify                        :   496      291.78s   0.926%  ------ ||
|| lnv_gradient_norm                    :   160      412.09s   1.308%  ------ ||
|| basis_add_function_to_box            : 18.63M     420.49s   1.335%  ------ ||
|| xc_energy_potential                  :   325      476.12s   1.512%  ------ ||
|| hamiltonian_energy_components        :     4      499.44s   1.586%  ------ ||
|| kernel_fix                           :   160      561.68s   1.783%  ------ ||
|| ngwf_gradient_build_batch            :   112      775.34s   2.462%  ------ ||
|| integrals_locpot_mat_els_batch       :  1183      783.95s   2.489%  ------ ||
|| ngwf_gradient_batch                  :   112     1087.16s   3.452%  ------ ||
|| restart_ngwfs_tightbox_output        :    14     1099.96s   3.492%  ------ ||
|| density_batch_row_sums               :  2268     1165.86s   3.701%  ------ ||
|| ngwf_gradient_lnv                    :    16     1232.59s   3.913%  ------ ||
|| cell_grid_deposit_box_real           : 37637     1421.42s   4.513%  ------ ||
|| cell_grid_extract_box_real           : 41150     1607.31s   5.103%  ------ ||
|| sparse_product                       :  6835     1852.55s   5.882%  ------ ||
|| density_fftbox_deposit_to_cell       : 35640     2183.83s   6.933%  ------ ||
|| density_fftbox_interpolate_multiply  : 35640     3587.91s  11.391%  ------ ||
|| potential_apply_to_ngwf_batch        :  1183     3776.21s  11.989%  ------ ||
|| fourier_apply_box                    : 122.5k    4439.22s  14.094% 774.478 ||
|| multigrid_prepare_bound_cond         :   325     4571.94s  14.515%  ------ ||
|| integrals_locpot_dbl_grid            :   169     4579.90s  14.541%  ------ ||
|| density_batch_interp_deposit         :  2268     6757.34s  21.454%  ------ ||
|| dl_mg_solver_calls                   :   325     7388.16s  23.457%  ------ ||
|| density_on_dbl_grid                  :   324     8307.14s  26.374%  ------ ||
|| multigrid_calculate_hartree          :   325    12168.32s  38.633%  ------ ||
|| hamiltonian_lhxc_calculate           :   320    20882.03s  66.298%  ------ ||
|| lnv_denskernel_optimise_cg           :    16    26300.71s  83.502%  ------ ||
|| ngwf_cg_optimise                     :     2    30533.11s  96.939%  ------ ||
|| total_time                           :     1    31497.25s 100.000%  ------ ||
================================================================================
Overhead of generating timer report: 
- 0 ms averaging over threads,
- 15 ms ensuring consistency across MPI ranks,
- 0 ms printing in order.

Job completed: 18-07-2020 15:52 (+0100)

Application 41120694 resources: utime ~6596724s, stime ~217098s, Rss ~3847220, inblocks ~290505292, outblocks ~66483610
