 +---------------------------------------------------------------+
 |                                                               |
 |        ####### #     # ####### ####### ####### ######         |
 |        #     # ##    # #          #    #       #     #        |
 |        #     # # #   # #          #    #       #     #        |
 |        #     # #  #  # #####      #    #####   ######         |
 |        #     # #   # # #          #    #       #              |
 |        #     # #    ## #          #    #       #              |
 |        ####### #     # #######    #    ####### #              |
 |                                                               |
 |        Linear-Scaling Ab Initio Total Energy Program          |
 |                                                               |
 |          Release for academic collaborators of ODG            |
 |                                             Version 5.3.2.6.  |
 |                                                               |
 +---------------------------------------------------------------+
 |                                                               |
 |  Authors:                                                     |
 |  Jacek Dziedzic, Peter D. Haynes, Nicholas D. M. Hine,        |
 |  Arash. A. Mostofi, Mike C. Payne and Chris-Kriton Skylaris   |
 |                                                               |
 |  Contributors:                                                |
 |  J. Aarons, L. Andrinopoulos, P. W. Avraam, R. A. Bell,       |
 |  A. Bhandari, G. A. Bramley, R. J. Charlton, S. J. Clark,     |
 |  R. J. Clements, G. C. Constantinescu, F. Corsetti,           |
 |  N. Corsini, O. Dieguez, S. M. M. Dubois, K. K. B. Duff,      |
 |  J. M. Escartin, A. Greco, H. Helal, Q. O. Hill, L. P. Lee,   |
 |  J.-H. Li, E. B. Linscott, G. Moynihan, D. D. O`Regan,        |
 |  O. K. Okan, M. J. S. Phipps, C. J. Pickard,                  |
 |  J. C. A. Prentice, M. I. J. Probert, L. E. Ratcliff,         |
 |  M. Robinson, A. Ruiz Serrano, J. S. Spencer, E. W. Tait,     |
 |  G. Teobaldi, D. Turban, V. Vitale, K. A. Wilkinson,          |
 |  C. Weber, J. C. Womack, N. Yeung and T. J. Zuehlsdorff       |
 |                                                               |
 |                                   Copyright (c) 2004-2019     |
 |                                                               |
 |  Please cite:                                                 |
 |  "Introducing ONETEP: Linear-scaling density functional       |
 |   simulations on parallel computers".                         |
 |   C.-K. Skylaris, P. D. Haynes, A. A. Mostofi, M. C. Payne.   |
 |   J. Chem. Phys. 122 084119 (2005).                           |
 |                                                               |
 |          in all publications arising from your use of ONETEP. |
 |                                                               |
 +---------------------------------------------------------------+
 |                                                               |
 |   ONETEP is based on developments described in the following  |
 |   publications:                                               |
 |                                                               |
 |  "Nonorthogonal generalized Wannier function pseudopotential  |
 |   plane-wave method".                                         |
 |   C.-K. Skylaris, A. A. Mostofi, P. D. Haynes, O. Dieguez,    |
 |   M. C. Payne.                                                |
 |   Phys. Rev. B 66 035119 (2002).                              |
 |                                                               |
 |  "Preconditioned iterative minimization for linear-scaling    |
 |   electronic structure calculations".                         |
 |   A. A. Mostofi, P. D. Haynes, C.-K. Skylaris, M. C. Payne.   |
 |   J. Chem. Phys. 119(17), pp.8842-8848 (2003).                |
 |                                                               |
 |  "Total-energy calculations on a real space grid with         |
 |   localized functions and a plane-wave basis".                |
 |   A. A. Mostofi, C.-K. Skylaris, P. D. Haynes, M. C. Payne.   |
 |   Comput. Phys. Commun. 147, pp.788-802 (2002).               |
 |                                                               |
 |  "Accurate kinetic energy evaluation in electronic structure  |
 |   calculations with localized functions on real space grids"  |
 |   C.-K. Skylaris, A. A. Mostofi, P. D. Haynes, C. J. Pickard, |
 |   M. C. Payne.                                                |
 |   Comput. Phys. Commun. 140, pp.315-322 (2001).               |
 |                                                               |
 |  "Accurate ionic forces and geometry optimization in linear-  |
 |   scaling density-functional theory with local orbitals"      |
 |   N. D. M. Hine, M. Robinson, P. D. Haynes, C.-K. Skylaris,   |
 |   M. C. Payne, and A. A. Mostofi.                             |
 |   Phys. Rev. B 83 195102 (2011).                              |
 |                                                               |
 +---------------------------------------------------------------+

Job started: 11-07-2020 01:17 (+0100)
 
Reading parameters from file "complex_13781.dat" ...... done

If your calculation crashes here, before "Checking processes and threads..."
is displayed, then your stack size is insufficient.
If so, use "ulimit -s unlimited" at runtime.
You can disable this check with "check_stack_size F".

Checking processes and threads...
   Determining the default number of threads...
      No default threads set at compilation time: defaulting to 1.
      OpenMP library call suggests 4 threads.
      Hybrid MPI-OpenMP compilation detected.
      Number of MPI processes > 1.
      OMP_NUM_THREADS environment variable present and
      its value matches the one obtained from the OpenMP library call.
      Using this value as default.
      Default threads: 4
      Default applies to threads_max and threads_num_fftboxes.
      Settings in the input file override this default.
   ... done

   Running with 60 MPI processes.
   There are 6 MPI processes running on the same node as the root process.
   Each MPI process is using: 
               1 threads for simulation cell FFTs.
               1 threads for parallel FFT box operations.
               4 threads for loops over batched FFT box operations.
               4 threads in other parallel regions.
... done

Basic input checks...... done

Reading geometry and species blocks from file "complex_13781.dat" ...
  <species_atomic_set> block not found: NGWF initialisation set to SOLVE
IS: Dielectric excluded regions:
    - NONE.
    
  Number of PPD points along a3 set to 1.  This is 
  the default value, it may have been provided also in the input file.
... done
 Writing xyz coordinates to file "complex_13781.xyz" ... done


--------------------------------------------------------------------------------
---------------------------------- INPUT FILE ----------------------------------
--------------------------------------------------------------------------------

cutoff_energy       : 800 eV                                                    
xc_functional PBE                                                               
task SINGLEPOINT                                                                
write_xyz true                                                                  
output_detail VERBOSE                                                           
ngwf_threshold_orig : 0.000002                                                  
kernel_cutoff       : 1000                                                      
k_zero              : 3.5                                                       
elec_cg_max 0                                                                   
occ_mix 1.0                                                                     
dispersion 1                                                                    
maxit_ngwf_cg 40                                                                
minit_lnv 10                                                                    
maxit_lnv 10                                                                    
write_denskern T                                                                
write_tightbox_ngwfs T                                                          
charge 9                                                                        
is_implicit_solvent T                                                           
is_auto_solvation T                                                             
is_include_apolar T                                                             
is_smeared_ion_rep T                                                            
is_solvent_surf_tension 4.7624E-5 Ha/bohr**2                                    
is_apolar_scaling_factor 0.281075                                               
is_solvation_beta 1.3                                                           
is_density_threshold 0.00035                                                    
is_bulk_permittivity 78.54                                                      
is_dielectric_model fix_initial                                                 
is_smeared_ion_width 0.8                                                        
mg_defco_fd_order 8                                                             
is_bc_coarseness 10                                                             
is_bc_surface_coarseness 1                                                      
fine_grid_scale 2.0                                                             
%block species                                                                  
N   N   7 4 8.0                                                                 
H   H   1 1 8.0                                                                 
C   C   6 4 8.0                                                                 
S   S  16 9 8.0                                                                 
O   O   8 4 8.0                                                                 
Cl  Cl  17 9 8.0                                                                
%endblock species                                                               
%block species_pot                                                              
N   N_00.recpot                                                                 
H   H_04.recpot                                                                 
C   C_01.recpot                                                                 
S   S_00.recpot                                                                 
O   O_02.recpot                                                                 
Cl  chlorine.recpot                                                             
%endblock species_pot                                                           
%block lattice_cart                                                             
137.793   0.000   0.000                                                         
0.000 143.498   0.000                                                           
0.000   0.000   162.326                                                         
%endblock lattice_cart                                                          
%block positions_abs                                                            
     Hash =   000007281052762025527958
%endblock positions_abs                                                         

--------------------------------------------------------------------------------
-------------------------------- END INPUT FILE --------------------------------
--------------------------------------------------------------------------------


 
 ESDF WARNING(1): "kernelcutoff" (esdf_physical) has no units. Assume "bohr".
 ESDF WARNING(2): "kzero" (esdf_physical) has no units. Assume "1/bohr".
 ESDF WARNING(3
 ): "issmearedionwidth" (esdf_physical) has no units. Assume "bohr".
<<<<<<<<<<<<<<<<<<<<<<<<<<<<<<<<< Full system >>>>>>>>>>>>>>>>>>>>>>>>>>>>>>>>>>
WARNING in pseudopotentials_read_species: string "LDA" found in pseudopotential
file "chlorine.recpot", yet xc_functional = "PBE".
 
<<<<<<<<<<<<<<<<<<<<<<<<< Pseudopotential information >>>>>>>>>>>>>>>>>>>>>>>>>>
File: N_00.recpot [ 2001 points up to Gmax=  52.9 (1/bohr)]
  Atomic number:  7;  ionic charge:  5.000000
    Shell 1: l = 0; rc = 1.48 bohr
File: H_04.recpot [ 2001 points up to Gmax=  52.9 (1/bohr)]
  Atomic number:  1;  ionic charge:  1.000000
    Local potential
File: C_01.recpot [ 2001 points up to Gmax=  52.9 (1/bohr)]
  Atomic number:  6;  ionic charge:  4.000000
    Shell 1: l = 0; rc = 1.48 bohr
File: S_00.recpot [ 2001 points up to Gmax=  52.9 (1/bohr)]
  Atomic number: 16;  ionic charge:  6.000000
    Shell 1: l = 0; rc = 1.90 bohr
    Shell 2: l = 2; rc = 1.84 bohr
File: O_02.recpot [ 2001 points up to Gmax=  52.9 (1/bohr)]
  Atomic number:  8;  ionic charge:  6.000000
    Shell 1: l = 0; rc = 1.31 bohr
File: chlorine.recpot [ 2001 points up to Gmax=  52.9 (1/bohr)]
  Atomic number: 17;  ionic charge:  7.000000
    Shell 1: l = 0; rc = 1.72 bohr
    Shell 2: l = 2; rc = 1.78 bohr
<<<<<<<<<<<<<<<<<<<<<<<<<<<<<<<<<<<<<<<<>>>>>>>>>>>>>>>>>>>>>>>>>>>>>>>>>>>>>>>>

-------------------------- Atom counting information ---------------------------
Symbol    Natoms    Nngwfs    Nprojs
  N        236       944       236
  H       1316      1316         0
  C        816      3264       816
  S          6        54        36
  O        240       960       240
  Cl         1         9         6
.......   ......    ......    ......
Totals:   2615      6547      1334
--------------------------------------------------------------------------------

=============================== PSINC grid sizes ===============================
                      Simulation cell:  273 x 286 x 320
                              FFT-box:   99 x  99 x  99
                                  PPD:    7 x  11 x   1
Grid space d1=  0.504736263736a0 (KE cutoff=  29.81776Eh = 811.38248eV)
Grid space d2=  0.501741258741a0 (KE cutoff=  30.17480Eh = 821.09803eV)
Grid space d3=  0.507268750000a0 (KE cutoff=  29.52078Eh = 803.30122eV)
================================================================================

********************* Fourier parallelisation information **********************
       Coarse grid (whole simulation cell) dimensions:    273   286   320
          Real-space ('12') slabs/node (min max mean):      5     6     5
         Recip-space ('23') slabs/node (min max mean):      2     3     2
********************************************************************************

********************* Fourier parallelisation information **********************
       Double grid (whole simulation cell) dimensions:    546   572   640
          Real-space ('12') slabs/node (min max mean):     10    11    10
         Recip-space ('23') slabs/node (min max mean):      4     5     4
********************************************************************************
ONETEP fine grid is 546 x 572 x 640 gridpoints, 137.7930 x 143.4980 x 162.3260 bohr.
FD multigrid is     545 x 569 x 633 gridpoints, 137.5406 x 142.7454 x 160.5506 bohr.


Calculating local pseudopotential in open BC on a radial grid ...
Discrepancy between calculated realspace psloc and -Z/x on [5a0,256.765a0]:
max |rel. diff| # avg |rel. diff| #  avg rel. diff #  f # pseudopotential file
 0.000264355666    0.000005356805   0.000000075547   55  'N_00.recpot'
 0.000427657517    0.000018087302  -0.000000066616   55  'H_04.recpot'
 0.000358839426    0.000016594043   0.000000139912   55  'C_01.recpot'
 0.000443229003    0.000019135969   0.000000483695   55  'S_00.recpot'
 0.000720897146    0.000029350350   0.000000143497   55  'O_02.recpot'
 0.000693253128    0.000030986455   0.000000348575   55  'chlorine.recpot'
... done

Atom SCF Calculation for N  : Z (AE atom) =   7 : Z (PS atom) =   5
Config String:
Orbitals (num,occ):  2     2.00 3.00
Orbitals   (num,l):  2        0    1
Real-space Grid (nr,dr,rmax): 1203    0.0066555740    8.0000000000
Spherical Bessel Basis (nsws,lmax,cutoff):   47    1  176.3951722778
Confining potential (l,width,scale):  0    3.0000000000  100.0000000000
Confining potential (l,width,scale):  1    3.0000000000  100.0000000000
  1         -4.7312375307   -3.4155304497    7.0523828109   -1.9351020946
  2         -9.7309464766   -2.0532547791    8.2966052865   -2.2494486027
  3         -9.6627394379   -2.1124926340    8.2327997121   -2.2369778124
  4         -9.6814993499   -2.1215521045    8.2229805960   -2.2365178421
  5         -9.6843326483   -2.1250939529    8.2191374534   -2.2362718126
  6         -9.6859628709   -2.1267894855    8.2172963573   -2.2362066344
  7         -9.6867347035   -2.1276425665    8.2163697352   -2.2361903369
  8         -9.6870802100   -2.1280764625    8.2158983890   -2.2361891460
  9         -9.6872290423   -2.1282977424    8.2156580222   -2.2361920435
 10         -9.6872901988   -2.1284107021    8.2155353368   -2.2361953393
 11         -9.6873135296   -2.1284684031    8.2154726809   -2.2361979819
 12         -9.6873212476   -2.1284978948    8.2154406648   -2.2361998431
 13         -9.6873229586   -2.1285129774    8.2154242957   -2.2362010676
 14         -9.6873226456   -2.1285206957    8.2154159216   -2.2362018403
 15         -9.6873218534   -2.1285246479    8.2154116349   -2.2362023142
 16         -9.6873212599   -2.1285262679    8.2154098784   -2.2362025420
 17         -9.6873207834   -2.1285272564    8.2154088068   -2.2362026955
 18         -9.6873204210   -2.1285278596    8.2154081529   -2.2362027982
 19         -9.6873201550   -2.1285282280    8.2154077538   -2.2362028667
 20         -9.6873199645   -2.1285284529    8.2154075102   -2.2362029121
 21         -9.6873198305   -2.1285285903    8.2154073614   -2.2362029421
 22         -9.6873197377   -2.1285286742    8.2154072705   -2.2362029618
Atom SCF converged after  22 iterations to a total energy of     -9.68731974

Atom SCF Calculation for H  : Z (AE atom) =   1 : Z (PS atom) =   1
Config String:
Orbitals (num,occ):  1     1.00
Orbitals   (num,l):  1        0
Real-space Grid (nr,dr,rmax): 1203    0.0066555740    8.0000000000
Spherical Bessel Basis (nsws,lmax,cutoff):   47    0  176.3951722778
Confining potential (l,width,scale):  0    3.0000000000  100.0000000000
  1         -0.3194257691   -0.2393854593    0.2820953124   -0.2424203209
  2         -0.3951823392   -0.2377116493    0.2886404059   -0.2475147891
  3         -0.4317044583   -0.2352244387    0.2921333887   -0.2514046172
  4         -0.4470703708   -0.2341892222    0.2934391879   -0.2531009782
  5         -0.4532132900   -0.2338556667    0.2938388426   -0.2537313520
  6         -0.4556579251   -0.2337612552    0.2939448584   -0.2539550462
  7         -0.4566418315   -0.2337377355    0.2939680120   -0.2540342273
  8         -0.4570437922   -0.2337331116    0.2939708287   -0.2540627372
  9         -0.4572102946   -0.2337328328    0.2939698291   -0.2540732650
 10         -0.4572800424   -0.2337332404    0.2939687193   -0.2540772588
 11         -0.4573095100   -0.2337335791    0.2939680317   -0.2540788122
 12         -0.4573220379   -0.2337337762    0.2939676699   -0.2540794294
 13         -0.4573273880   -0.2337338775    0.2939674931   -0.2540796787
 14         -0.4573296803   -0.2337339266    0.2939674099   -0.2540797808
 15         -0.4573306647   -0.2337339495    0.2939673718   -0.2540798230
 16         -0.4573310882   -0.2337339601    0.2939673545   -0.2540798406
 17         -0.4573312706   -0.2337339649    0.2939673467   -0.2540798479
 18         -0.4573313493   -0.2337339670    0.2939673433   -0.2540798510
Atom SCF converged after  18 iterations to a total energy of     -0.45733135

Atom SCF Calculation for C  : Z (AE atom) =   6 : Z (PS atom) =   4
Config String:
Orbitals (num,occ):  2     2.00 2.00
Orbitals   (num,l):  2        0    1
Real-space Grid (nr,dr,rmax): 1203    0.0066555740    8.0000000000
Spherical Bessel Basis (nsws,lmax,cutoff):   47    1  176.3951722778
Confining potential (l,width,scale):  0    3.0000000000  100.0000000000
Confining potential (l,width,scale):  1    3.0000000000  100.0000000000
  1         -5.2976922011   -1.3069684169    4.5135249990   -1.4493313817
  2         -5.3721716256   -1.3429755895    4.4750154450   -1.4361613026
  3         -5.3809959565   -1.3617365618    4.4541655428   -1.4305930207
  4         -5.3918938866   -1.3667928461    4.4484735100   -1.4294652294
  5         -5.3956096428   -1.3688539142    4.4461376126   -1.4290734646
  6         -5.3968271862   -1.3696852393    4.4451910874   -1.4289366866
  7         -5.3972028401   -1.3700178062    4.4448112275   -1.4288900460
  8         -5.3973067903   -1.3701500158    4.4446598370   -1.4288749220
  9         -5.3973286940   -1.3702023868    4.4445997329   -1.4288704293
 10         -5.3973289850   -1.3702230869    4.4445759233   -1.4288693188
 11         -5.3973254264   -1.3702312560    4.4445665049   -1.4288691775
 12         -5.3973224003   -1.3702344755    4.4445627836   -1.4288692549
 13         -5.3973208708   -1.3702354890    4.4445616088   -1.4288693270
 14         -5.3973198783   -1.3702360102    4.4445610034   -1.4288693814
 15         -5.3973192535   -1.3702362780    4.4445606917   -1.4288694190
 16         -5.3973188684   -1.3702364155    4.4445605313   -1.4288694437
 17         -5.3973186349   -1.3702364860    4.4445604489   -1.4288694595
 18         -5.3973184951   -1.3702365221    4.4445604065   -1.4288694693
 19         -5.3973184122   -1.3702365405    4.4445603848   -1.4288694753
Atom SCF converged after  19 iterations to a total energy of     -5.39731841

Atom SCF Calculation for S  : Z (AE atom) =  16 : Z (PS atom) =   6
Config String:
Orbitals (num,occ):  3     2.00 4.00 0.00
Orbitals   (num,l):  3        0    1    2
Real-space Grid (nr,dr,rmax): 1203    0.0066555740    8.0000000000
Spherical Bessel Basis (nsws,lmax,cutoff):   47    2  176.3951722778
Confining potential (l,width,scale):  0    3.0000000000  100.0000000000
Confining potential (l,width,scale):  1    3.0000000000  100.0000000000
Confining potential (l,width,scale):  2    3.0000000000  100.0000000000
  1        -12.4735062396   -1.0328741412   10.1554312477   -2.4512393157
  2         -9.9458301913   -2.4607392455    8.3041325857   -2.0306994528
  3        -10.1450417646   -2.2931184565    8.4831893826   -2.0812538287
  4        -10.1528335592   -2.2733105793    8.5050388867   -2.0896035179
  5        -10.1571940363   -2.2633716629    8.5160794258   -2.0939370707
  6        -10.1594380571   -2.2584938667    8.5215163935   -2.0961289008
  7        -10.1605856507   -2.2561081821    8.5241804044   -2.0972291378
  8        -10.1611799191   -2.2549395235    8.5254868240   -2.0977806248
  9        -10.1614918752   -2.2543658586    8.5261285885   -2.0980571586
 10        -10.1616572884   -2.2540839121    8.5264441898   -2.0981959233
 11        -10.1617455602   -2.2539453058    8.5265994231   -2.0982656006
 12        -10.1617928447   -2.2538772062    8.5266757320   -2.0983006047
 13        -10.1618182292   -2.2538437891    8.5267131983   -2.0983181961
 14        -10.1618318741   -2.2538274201    8.5267315620   -2.0983270391
 15        -10.1618392144   -2.2538194197    8.5267405433   -2.0983314852
 16        -10.1618431651   -2.2538155200    8.5267449245   -2.0983337210
 17        -10.1618452923   -2.2538136252    8.5267470551   -2.0983348455
 18        -10.1618464380   -2.2538127080    8.5267480875   -2.0983354110
 19        -10.1618470552   -2.2538122659    8.5267485856   -2.0983356955
 20        -10.1618473878   -2.2538120540    8.5267488248   -2.0983358386
 21        -10.1618475670   -2.2538119530    8.5267489389   -2.0983359106
 22        -10.1618476637   -2.2538119053    8.5267489929   -2.0983359468
Atom SCF converged after  22 iterations to a total energy of    -10.16184766

Atom SCF Calculation for O  : Z (AE atom) =   8 : Z (PS atom) =   6
Config String:
Orbitals (num,occ):  2     2.00 4.00
Orbitals   (num,l):  2        0    1
Real-space Grid (nr,dr,rmax): 1203    0.0066555740    8.0000000000
Spherical Bessel Basis (nsws,lmax,cutoff):   47    1  176.3951722778
Confining potential (l,width,scale):  0    3.0000000000  100.0000000000
Confining potential (l,width,scale):  1    3.0000000000  100.0000000000
  1         -1.8735052164   -7.5539365035   10.1554312477   -2.4512393157
  2        -16.0318313751   -3.1285771268   13.6395848164   -3.2358799643
  3        -15.9524020423   -3.0762819706   13.6967272503   -3.2536856837
  4        -15.8521515939   -3.0781493909   13.6951909330   -3.2561700440
  5        -15.8357139793   -3.0748501933   13.6988803334   -3.2580493133
  6        -15.8246052853   -3.0740779781   13.6997881576   -3.2588327446
  7        -15.8189019501   -3.0737449687   13.7001869911   -3.2592378801
  8        -15.8159785510   -3.0736026016   13.7003615168   -3.2594475790
  9        -15.8144776168   -3.0735437994   13.7004360379   -3.2595560735
 10        -15.8137058024   -3.0735207882   13.7004667348   -3.2596122456
 11        -15.8133083127   -3.0735125946   13.7004786868   -3.2596413656
 12        -15.8131032938   -3.0735102195   13.7004828997   -3.2596564858
 13        -15.8129973902   -3.0735099286   13.7004840891   -3.2596643505
 14        -15.8129426040   -3.0735102506   13.7004842061   -3.2596684489
 15        -15.8129142203   -3.0735106556   13.7004840157   -3.2596705887
 16        -15.8128994940   -3.0735109855   13.7004837906   -3.2596717080
 17        -15.8128918425   -3.0735112169   13.7004836103   -3.2596722946
 18        -15.8128878614   -3.0735113674   13.7004834848   -3.2596726026
 19        -15.8128857871   -3.0735114608   13.7004834035   -3.2596727646
 20        -15.8128847048   -3.0735115170   13.7004833533   -3.2596728500
 21        -15.8128841394   -3.0735115501   13.7004833231   -3.2596728951
 22        -15.8128838436   -3.0735115693   13.7004833054   -3.2596729190
 23        -15.8128836887   -3.0735115802   13.7004832951   -3.2596729316
 24        -15.8128836074   -3.0735115864   13.7004832893   -3.2596729383
Atom SCF converged after  24 iterations to a total energy of    -15.81288361

Atom SCF Calculation for Cl : Z (AE atom) =  17 : Z (PS atom) =   7
Config String:
Orbitals (num,occ):  3     2.00 5.00 0.00
Orbitals   (num,l):  3        0    1    2
Real-space Grid (nr,dr,rmax): 1203    0.0066555740    8.0000000000
Spherical Bessel Basis (nsws,lmax,cutoff):   47    2  176.3951722778
Confining potential (l,width,scale):  0    3.0000000000  100.0000000000
Confining potential (l,width,scale):  1    3.0000000000  100.0000000000
Confining potential (l,width,scale):  2    3.0000000000  100.0000000000
  1        -16.8444261800   -2.1962100444   13.8226703094   -2.9941905181
  2        -14.7918510722   -3.2647395528   12.5772031268   -2.7486356845
  3        -15.0408459996   -3.0830885982   12.7711824681   -2.7985322562
  4        -15.0258990028   -3.0805758938   12.7746252245   -2.8028400439
  5        -15.0247989138   -3.0762001284   12.7796720593   -2.8059543251
  6        -15.0249225108   -3.0742888229   12.7818510263   -2.8073220423
  7        -15.0250462958   -3.0731699753   12.7831228196   -2.8081724567
  8        -15.0251282307   -3.0725244678   12.7838557365   -2.8086978828
  9        -15.0251775299   -3.0721537651   12.7842766981   -2.8090219799
 10        -15.0252069190   -3.0719409277   12.7845186566   -2.8092219886
 11        -15.0252248401   -3.0718185631   12.7846580195   -2.8093455898
 12        -15.0252360996   -3.0717481031   12.7847384649   -2.8094221024
 13        -15.0252433539   -3.0717074830   12.7847849814   -2.8094695492
 14        -15.0252481059   -3.0716840518   12.7848119089   -2.8094990225
 15        -15.0252512461   -3.0716705364   12.7848275045   -2.8095173612
 16        -15.0252533273   -3.0716627451   12.7848365368   -2.8095287899
 17        -15.0252547058   -3.0716582588   12.7848417653   -2.8095359231
 18        -15.0252556164   -3.0716556794   12.7848447893   -2.8095403819
 19        -15.0252562158   -3.0716541993   12.7848465363   -2.8095431730
 20        -15.0252566087   -3.0716533521   12.7848475441   -2.8095449225
 21        -15.0252568652   -3.0716528683   12.7848481246   -2.8095460206
 22        -15.0252570320   -3.0716525930   12.7848484583   -2.8095467108
 23        -15.0252571401   -3.0716524369   12.7848486497   -2.8095471451
 24        -15.0252572099   -3.0716523486   12.7848487593   -2.8095474188
Atom SCF converged after  24 iterations to a total energy of    -15.02525721

========================== Calculation in vacuum ==============================
= Adjusting the following parameters: 
= is_implicit_solvent: F
= is_include_apolar: F
= write_denskern: T
= write_tightbox_ngwfs: T
= restart read filename prefix: ""
= restart write filename prefix: "vacuum_"
===============================================================================

Determining parallel strategy ...
... using space-filling curve
... NGWF load balancing: max    110;  min    109;  average    109
... Projector load balancing: max     26;  min     21;  average     22
... done
Calculating direct Ion-Ion energy ...
Ion-Ion Energy        :    834228.63213507598266
======================= Empirical dispersion information =======================
Model : Elstner
WARNING: Unoptimised dispersion parameters used for Cl
Dispersion Correction Energy: -0.32688270E+01 Hartree
================================================================================
Basis initialisation ...... NGWF spheres initialised
... Projector spheres initialised
... NGWF tight boxes initialised
... Tight-boxes gathered
... NGWF basis size (local,global):     926543  56074801
... Nonlocal pseudopotential projector initialisation
... done

========================== Sparse matrix information ===========================
                        Overlap matrix filling:   6.76%
                        Density kernel filling: 100.00%
              NGWF-Proj overlap matrix filling:   1.76%
                    Hamiltonian matrix filling:   7.62%
                  NGWF diagonal matrix filling:   0.05%
                             KS matrix filling: 100.00% 
                           KSKS matrix filling: 100.00% 
================================================================================

Sparse matrix initialisation ... done

Generating smeared ion density ... done
Smeared ion self correction:     -14549.923644
Smeared ion non-self correction: -834180.150700
NGWF initialisation ...... done
============ Calculation of NGWF S^-1 using Hotelling algorithm ================ 
         Iteration  |  Frobenius norm and Maximum abs value    (of I-S*S_n^-1)   
               1       0.78851998E+02     0.98355734E+00
               2       0.77080403E+02     0.96753264E+00
               3       0.74182327E+02     0.93665928E+00
               4       0.70011196E+02     0.87915532E+00
               5       0.64761627E+02     0.77934834E+00
               6       0.58812637E+02     0.70620558E+00
               7       0.52765793E+02     0.67092366E+00
               8       0.47174689E+02     0.64862033E+00
               9       0.41218754E+02     0.61061085E+00
              10       0.33174901E+02     0.54275581E+00
              11       0.22735031E+02     0.44575803E+00
              12       0.11982256E+02     0.31224047E+00
              13       0.41620060E+01     0.15623378E+00
              14       0.72809472E+00     0.43375087E-01
              15       0.43763445E-01     0.43983767E-02
              16       0.42110133E-03     0.58427018E-04
              17       0.75770773E-07     0.13121370E-07
              18       0.10626864E-12     0.66613381E-14
================================================================================
Calculating local pseudopotential in open BC on the fine real space grid ...
... done

MG BCs: +ve charge blocks (gridpoints):     20309 (   15980391).
MG BCs: -ve charge blocks (gridpoints):      8028 (    1082972).
MG BCs:     Elided blocks (gridpoints):    180331 (  179233102).
MG BCs: Computational effort saved:  99.9856%.
MG BCs: Charge after coarse-graining:           -9.0002223.
MG DL_MG: Calling solver with defect correction order = 8
MG DL_MG: Solver finished
MG Hartree energy from (\int phi*rho dr):              1475.751922
MG Hartree energy from (\int eps (grad phi)^2 dr):     1475.136144
MG Discrepancy due to finite box and discretization:     -0.615778 (  -0.04173%)
MG Correction to account for finite box:                  0.462472
MG Remaining discrepancy, due to discretization:         -0.153306 (  -0.01039%)
Up spin density kernel initialisation ... 
======= Optimisation of K by Palser-Manolopoulos canonical purification ======== 
         Iteration  |  Band structure energy |    c_n   
               1       -2590.56526779795058    0.5270417
               2       -2767.75845997390661    0.5171480
               3       -2949.69906271673335    0.5152507
               4       -3102.08103522076271    0.5282952
               5       -3196.26473476764386    0.5635928
               6       -3235.85993026575215    0.6088377
               7       -3249.26452716723907    0.6208430
               8       -3255.05300301081797    0.6193247
               9       -3257.86447408684671    0.6361766
              10       -3259.01628764878296    0.6670061
              11       -3259.45655628005352    0.6930017
              12       -3259.64461764783164    0.6941240
              13       -3259.74418059565278    0.6699904
              14       -3259.80587630109312    0.6467384
              15       -3259.84124734158559    0.6612230
              16       -3259.85677665254389    0.7156773
              17       -3259.86251312828472    0.7452293
              18       -3259.86524408461264    0.7327316
              19       -3259.86712381075995    0.7118446
              20       -3259.86847195202881    0.6929072
              21       -3259.86937325001873    0.6764042
              22       -3259.86993923624050    0.6613311
              23       -3259.87028498814880    0.6453114
              24       -3259.87050468358666    0.6251371
              25       -3259.87066154100194    0.5979267
              26       -3259.87078794355148    0.5635489
              27       -3259.87088720174052    0.5286147
              28       -3259.87094333222103    0.5061982
              29       -3259.87095736546098    0.5003032
              30       -3259.87095807562855    0.5000016
              31       -3259.87095807735386    0.5000016
Termination criterion satisfied: band energy change below threshold.
Final occupancy bounds: [    0.00000000000000:    1.00000000000000]
Closest occupancy to 0.5:     1.00000000000000
================================================================================
... done

Writing density kernel to file "complex_13781.vacuum_dkn" ... done

>>> Optimising kernel for current NGWFs:
   Initial electron number for spin 1:    7234.00000000
     Final electron number for spin 1:    7234.00000000

=================== Penalty functional idempotency correction ==================
 RMS occupancy error at iteration   1:  0.000000 (step -0.5000 Ne1=   7234.0000)
            Final RMS occupancy error   :  0.000000 (Ne1=   7234.0000)
               Final occupancy bounds   : [  0.0000,  1.0000]
================================================================================

................................................................................
<<<<<<<<<<<<<< LNV (Original version) density kernel optimisation >>>>>>>>>>>>>>
~~~~~~~~~~~~~~~~~~~~~~~~~~~~~~~~~~~~~~~~~~~~~~~~~~~~~~~~~~~~~~~~~~~~~~~~~~~~~~~~
   iter  |      energy (Eh)       | rms gradient |  commutator  |   dE (Eh)
MG BCs: +ve charge blocks (gridpoints):     30833 (   17113467).
MG BCs: -ve charge blocks (gridpoints):      8329 (    1116050).
MG BCs:     Elided blocks (gridpoints):    169800 (  178066948).
MG BCs: Computational effort saved:  99.9800%.
MG BCs: Charge after coarse-graining:           -9.0009358.
MG DL_MG: Calling solver with defect correction order = 8
MG DL_MG: Solver finished
MG Hartree energy from (\int phi*rho dr):              1430.067602
MG Hartree energy from (\int eps (grad phi)^2 dr):     1429.392506
MG Discrepancy due to finite box and discretization:     -0.675096 (  -0.04721%)
MG Correction to account for finite box:                  0.478883
MG Remaining discrepancy, due to discretization:         -0.196213 (  -0.01372%)
      ideal mu1:      -0.707162484341
             Q0:  -11574.376213764073
             G0:    -144.115033197639
   RMS gradient:       0.001833632518
MG BCs: +ve charge blocks (gridpoints):     30809 (   17196766).
MG BCs: -ve charge blocks (gridpoints):      8264 (    1095513).
MG BCs:     Elided blocks (gridpoints):    169823 (  178004186).
MG BCs: Computational effort saved:  99.9801%.
MG BCs: Charge after coarse-graining:           -9.0009555.
MG DL_MG: Calling solver with defect correction order = 8
MG DL_MG: Solver finished
MG Hartree energy from (\int phi*rho dr):              1456.054148
MG Hartree energy from (\int eps (grad phi)^2 dr):     1455.396005
MG Discrepancy due to finite box and discretization:     -0.658143 (  -0.04520%)
MG Correction to account for finite box:                  0.477861
MG Remaining discrepancy, due to discretization:         -0.180282 (  -0.01238%)
     Trial step:       0.500000000000
             Q1:  -11585.822864308138
 Quadratic coef:      60.610866054754
 Linear coef   :     -72.057516598819
           Qmin:  -11595.792694159265
Quadratic minimum step length (  0.297213689925) accepted
    Initial Ne1:    7234.00000000
      Final Ne1:    7234.00000000

=================== Penalty functional idempotency correction ==================
 RMS occupancy error at iteration   1:  0.003367 (step -0.4886 Ne1=   7234.0000)
 RMS occupancy error at iteration   2:  0.000026 (step -0.5001 Ne1=   7234.0000)
            Final RMS occupancy error   :  0.000000 (Ne1=   7234.0000)
               Final occupancy bounds   : [  0.0000,  1.0000]
================================================================================

    1        -1.157437621376E+04     1.8336E-03     1.6595E-03
MG BCs: +ve charge blocks (gridpoints):     30814 (   17164395).
MG BCs: -ve charge blocks (gridpoints):      8288 (    1103972).
MG BCs:     Elided blocks (gridpoints):    169818 (  178028098).
MG BCs: Computational effort saved:  99.9801%.
MG BCs: Charge after coarse-graining:           -9.0009478.
MG DL_MG: Calling solver with defect correction order = 8
MG DL_MG: Solver finished
MG Hartree energy from (\int phi*rho dr):              1437.639339
MG Hartree energy from (\int eps (grad phi)^2 dr):     1436.975301
MG Discrepancy due to finite box and discretization:     -0.664038 (  -0.04619%)
MG Correction to account for finite box:                  0.478129
MG Remaining discrepancy, due to discretization:         -0.185909 (  -0.01293%)
      ideal mu1:      -0.752147903435
             Q0:  -11596.186701624538
             G0:     -12.161903474244
   RMS gradient:       0.000529122852
MG BCs: +ve charge blocks (gridpoints):     30813 (   17181261).
MG BCs: -ve charge blocks (gridpoints):      8281 (    1098923).
MG BCs:     Elided blocks (gridpoints):    169819 (  178016281).
MG BCs: Computational effort saved:  99.9801%.
MG BCs: Charge after coarse-graining:           -9.0009513.
MG DL_MG: Calling solver with defect correction order = 8
MG DL_MG: Solver finished
MG Hartree energy from (\int phi*rho dr):              1442.966304
MG Hartree energy from (\int eps (grad phi)^2 dr):     1442.306444
MG Discrepancy due to finite box and discretization:     -0.659860 (  -0.04573%)
MG Correction to account for finite box:                  0.477107
MG Remaining discrepancy, due to discretization:         -0.182753 (  -0.01267%)
     Trial step:       0.385495583584
             Q1:  -11599.029160153004
 Quadratic coef:       1.845901548828
 Linear coef   :      -4.688360077295
           Qmin:  -11599.163664321753
Quadratic minimum step length (  0.489555389667) accepted
    Initial Ne1:    7233.99989899
      Final Ne1:    7234.00000000

=================== Penalty functional idempotency correction ==================
 RMS occupancy error at iteration   1:  0.001789 (step -0.4931 Ne1=   7234.0000)
 RMS occupancy error at iteration   2:  0.000011 (step -0.5001 Ne1=   7234.0000)
            Final RMS occupancy error   :  0.000000 (Ne1=   7234.0000)
               Final occupancy bounds   : [  0.0000,  1.0000]
================================================================================

    2        -1.159618670162E+04     5.2912E-04     4.7887E-04    -2.1810E+01
MG BCs: +ve charge blocks (gridpoints):     30814 (   17185708).
MG BCs: -ve charge blocks (gridpoints):      8276 (    1097562).
MG BCs:     Elided blocks (gridpoints):    169817 (  178013195).
MG BCs: Computational effort saved:  99.9801%.
MG BCs: Charge after coarse-graining:           -9.0009524.
MG DL_MG: Calling solver with defect correction order = 8
MG DL_MG: Solver finished
MG Hartree energy from (\int phi*rho dr):              1444.453494
MG Hartree energy from (\int eps (grad phi)^2 dr):     1443.794681
MG Discrepancy due to finite box and discretization:     -0.658812 (  -0.04561%)
MG Correction to account for finite box:                  0.476850
MG Remaining discrepancy, due to discretization:         -0.181962 (  -0.01260%)
      ideal mu1:      -0.775956422960
             Q0:  -11599.200375434244
             G0:      -1.937791885407
   RMS gradient:       0.000211279853
MG BCs: +ve charge blocks (gridpoints):     30820 (   17185169).
MG BCs: -ve charge blocks (gridpoints):      8276 (    1098601).
MG BCs:     Elided blocks (gridpoints):    169812 (  178012695).
MG BCs: Computational effort saved:  99.9801%.
MG BCs: Charge after coarse-graining:           -9.0009520.
MG DL_MG: Calling solver with defect correction order = 8
MG DL_MG: Solver finished
MG Hartree energy from (\int phi*rho dr):              1442.139054
MG Hartree energy from (\int eps (grad phi)^2 dr):     1441.480864
MG Discrepancy due to finite box and discretization:     -0.658191 (  -0.04564%)
MG Correction to account for finite box:                  0.476425
MG Remaining discrepancy, due to discretization:         -0.181766 (  -0.01260%)
     Trial step:       0.434420810547
             Q1:  -11599.695271039614
 Quadratic coef:       0.346921516160
 Linear coef   :      -0.841817121530
           Qmin:  -11599.711050063152
Quadratic minimum step length (  0.527068600869) accepted
    Initial Ne1:    7233.99993556
      Final Ne1:    7234.00000000

=================== Penalty functional idempotency correction ==================
 RMS occupancy error at iteration   1:  0.000635 (step -0.4971 Ne1=   7234.0000)
 RMS occupancy error at iteration   2:  0.000003 (step -0.5000 Ne1=   7234.0000)
            Final RMS occupancy error   :  0.000000 (Ne1=   7234.0000)
               Final occupancy bounds   : [  0.0000,  1.0000]
================================================================================

    3        -1.159920037543E+04     2.1128E-04     1.9121E-04    -3.0137E+00
MG BCs: +ve charge blocks (gridpoints):     30821 (   17185066).
MG BCs: -ve charge blocks (gridpoints):      8280 (    1098730).
MG BCs:     Elided blocks (gridpoints):    169810 (  178012669).
MG BCs: Computational effort saved:  99.9801%.
MG BCs: Charge after coarse-graining:           -9.0009521.
MG DL_MG: Calling solver with defect correction order = 8
MG DL_MG: Solver finished
MG Hartree energy from (\int phi*rho dr):              1441.654932
MG Hartree energy from (\int eps (grad phi)^2 dr):     1440.996862
MG Discrepancy due to finite box and discretization:     -0.658070 (  -0.04565%)
MG Correction to account for finite box:                  0.476336
MG Remaining discrepancy, due to discretization:         -0.181734 (  -0.01261%)
      ideal mu1:      -0.776472074400
             Q0:  -11599.715781288221
             G0:      -0.511763113151
   RMS gradient:       0.000108715864
MG BCs: +ve charge blocks (gridpoints):     30813 (   17186048).
MG BCs: -ve charge blocks (gridpoints):      8281 (    1098481).
MG BCs:     Elided blocks (gridpoints):    169818 (  178011936).
MG BCs: Computational effort saved:  99.9801%.
MG BCs: Charge after coarse-graining:           -9.0009521.
MG DL_MG: Calling solver with defect correction order = 8
MG DL_MG: Solver finished
MG Hartree energy from (\int phi*rho dr):              1442.879846
MG Hartree energy from (\int eps (grad phi)^2 dr):     1442.221881
MG Discrepancy due to finite box and discretization:     -0.657965 (  -0.04560%)
MG Correction to account for finite box:                  0.476117
MG Remaining discrepancy, due to discretization:         -0.181847 (  -0.01260%)
     Trial step:       0.478507647591
             Q1:  -11599.844191077515
 Quadratic coef:       0.116472774105
 Linear coef   :      -0.244882563398
           Qmin:  -11599.844496926526
Quadratic minimum step length (  0.503028197996) accepted
    Initial Ne1:    7233.99998376
      Final Ne1:    7234.00000000

=================== Penalty functional idempotency correction ==================
 RMS occupancy error at iteration   1:  0.000291 (step -0.4956 Ne1=   7234.0000)
 RMS occupancy error at iteration   2:  0.000003 (step -0.5000 Ne1=   7234.0000)
            Final RMS occupancy error   :  0.000000 (Ne1=   7234.0000)
               Final occupancy bounds   : [  0.0000,  1.0000]
================================================================================

    4        -1.159971578129E+04     1.0872E-04     9.8391E-05    -5.1541E-01
MG BCs: +ve charge blocks (gridpoints):     30813 (   17186128).
MG BCs: -ve charge blocks (gridpoints):      8280 (    1098450).
MG BCs:     Elided blocks (gridpoints):    169818 (  178011887).
MG BCs: Computational effort saved:  99.9801%.
MG BCs: Charge after coarse-graining:           -9.0009521.
MG DL_MG: Calling solver with defect correction order = 8
MG DL_MG: Solver finished
MG Hartree energy from (\int phi*rho dr):              1442.943238
MG Hartree energy from (\int eps (grad phi)^2 dr):     1442.285278
MG Discrepancy due to finite box and discretization:     -0.657960 (  -0.04560%)
MG Correction to account for finite box:                  0.476107
MG Remaining discrepancy, due to discretization:         -0.181853 (  -0.01260%)
      ideal mu1:      -0.776667558763
             Q0:  -11599.845101347775
             G0:      -0.204537693995
   RMS gradient:       0.000068934083
MG BCs: +ve charge blocks (gridpoints):     30811 (   17186331).
MG BCs: -ve charge blocks (gridpoints):      8276 (    1098276).
MG BCs:     Elided blocks (gridpoints):    169820 (  178011858).
MG BCs: Computational effort saved:  99.9801%.
MG BCs: Charge after coarse-graining:           -9.0009521.
MG DL_MG: Calling solver with defect correction order = 8
MG DL_MG: Solver finished
MG Hartree energy from (\int phi*rho dr):              1443.424986
MG Hartree energy from (\int eps (grad phi)^2 dr):     1442.766843
MG Discrepancy due to finite box and discretization:     -0.658143 (  -0.04560%)
MG Correction to account for finite box:                  0.476129
MG Remaining discrepancy, due to discretization:         -0.182014 (  -0.01261%)
     Trial step:       0.490614756907
             Q1:  -11599.913458007853
 Quadratic coef:       0.031992550939
 Linear coef   :      -0.100349211018
           Qmin:  -11599.923791260397
Quadratic minimum step length (  0.769441671948) accepted
    Initial Ne1:    7233.99998993
      Final Ne1:    7234.00000000

=================== Penalty functional idempotency correction ==================
 RMS occupancy error at iteration   1:  0.000632 (step -0.4630 Ne1=   7234.0000)
 RMS occupancy error at iteration   2:  0.000019 (step -0.4999 Ne1=   7234.0000)
            Final RMS occupancy error   :  0.000000 (Ne1=   7234.0000)
               Final occupancy bounds   : [  0.0000,  1.0000]
================================================================================

    5        -1.159984510135E+04     6.8934E-05     6.2388E-05    -1.2932E-01
MG BCs: +ve charge blocks (gridpoints):     30809 (   17186537).
MG BCs: -ve charge blocks (gridpoints):      8277 (    1098136).
MG BCs:     Elided blocks (gridpoints):    169822 (  178011792).
MG BCs: Computational effort saved:  99.9801%.
MG BCs: Charge after coarse-graining:           -9.0009521.
MG DL_MG: Calling solver with defect correction order = 8
MG DL_MG: Solver finished
MG Hartree energy from (\int phi*rho dr):              1443.695809
MG Hartree energy from (\int eps (grad phi)^2 dr):     1443.037556
MG Discrepancy due to finite box and discretization:     -0.658252 (  -0.04559%)
MG Correction to account for finite box:                  0.476148
MG Remaining discrepancy, due to discretization:         -0.182105 (  -0.01261%)
      ideal mu1:      -0.776443230561
             Q0:  -11599.921969817136
             G0:      -0.236589739234
   RMS gradient:       0.000075466921
MG BCs: +ve charge blocks (gridpoints):     30811 (   17185731).
MG BCs: -ve charge blocks (gridpoints):      8275 (    1098657).
MG BCs:     Elided blocks (gridpoints):    169820 (  178012077).
MG BCs: Computational effort saved:  99.9801%.
MG BCs: Charge after coarse-graining:           -9.0009519.
MG DL_MG: Calling solver with defect correction order = 8
MG DL_MG: Solver finished
MG Hartree energy from (\int phi*rho dr):              1442.256141
MG Hartree energy from (\int eps (grad phi)^2 dr):     1441.597669
MG Discrepancy due to finite box and discretization:     -0.658472 (  -0.04566%)
MG Correction to account for finite box:                  0.476368
MG Remaining discrepancy, due to discretization:         -0.182104 (  -0.01263%)
     Trial step:       0.614409829704
             Q1:  -11600.026215383550
 Quadratic coef:       0.041117494979
 Linear coef   :      -0.145363061392
           Qmin:  -11600.050445661958
Quadratic minimum step length (  1.086064385023) accepted
    Initial Ne1:    7233.99997882
      Final Ne1:    7234.00000000

=================== Penalty functional idempotency correction ==================
 RMS occupancy error at iteration   1:  0.005368 (step -0.2842 Ne1=   7234.0000)
 RMS occupancy error at iteration   2:  0.000510 (step -0.4762 Ne1=   7234.0000)
 RMS occupancy error at iteration   3:  0.000017 (step -0.5005 Ne1=   7234.0000)
            Final RMS occupancy error   :  0.000000 (Ne1=   7234.0000)
               Final occupancy bounds   : [  0.0000,  1.0000]
================================================================================

    6        -1.159992196982E+04     7.5467E-05     6.8300E-05    -7.6868E-02
MG BCs: +ve charge blocks (gridpoints):     30814 (   17185394).
MG BCs: -ve charge blocks (gridpoints):      8277 (    1098962).
MG BCs:     Elided blocks (gridpoints):    169818 (  178012109).
MG BCs: Computational effort saved:  99.9801%.
MG BCs: Charge after coarse-graining:           -9.0009516.
MG DL_MG: Calling solver with defect correction order = 8
MG DL_MG: Solver finished
MG Hartree energy from (\int phi*rho dr):              1441.190391
MG Hartree energy from (\int eps (grad phi)^2 dr):     1440.531787
MG Discrepancy due to finite box and discretization:     -0.658604 (  -0.04570%)
MG Correction to account for finite box:                  0.476496
MG Remaining discrepancy, due to discretization:         -0.182108 (  -0.01264%)
      ideal mu1:      -0.775613688956
             Q0:  -11600.022261517937
             G0:      -0.414309966326
   RMS gradient:       0.000098315128
MG BCs: +ve charge blocks (gridpoints):     30810 (   17187274).
MG BCs: -ve charge blocks (gridpoints):      8275 (    1097921).
MG BCs:     Elided blocks (gridpoints):    169821 (  178011270).
MG BCs: Computational effort saved:  99.9801%.
MG BCs: Charge after coarse-graining:           -9.0009524.
MG DL_MG: Calling solver with defect correction order = 8
MG DL_MG: Solver finished
MG Hartree energy from (\int phi*rho dr):              1443.644847
MG Hartree energy from (\int eps (grad phi)^2 dr):     1442.986455
MG Discrepancy due to finite box and discretization:     -0.658392 (  -0.04561%)
MG Correction to account for finite box:                  0.476585
MG Remaining discrepancy, due to discretization:         -0.181806 (  -0.01259%)
     Trial step:       0.816877367693
             Q1:  -11600.147913113120
 Quadratic coef:       0.212788839519
 Linear coef   :      -0.338440434702
           Qmin:  -11600.156833810473
Quadratic minimum step length (  0.649621314833) accepted
    Initial Ne1:    7233.99978774
      Final Ne1:    7234.00000000

=================== Penalty functional idempotency correction ==================
 RMS occupancy error at iteration   1:  0.000222 (step -0.4856 Ne1=   7234.0000)
 RMS occupancy error at iteration   2:  0.000002 (step -0.5000 Ne1=   7234.0000)
            Final RMS occupancy error   :  0.000000 (Ne1=   7234.0000)
               Final occupancy bounds   : [  0.0000,  1.0000]
================================================================================

    7        -1.160002226152E+04     9.8315E-05     8.8978E-05    -1.0029E-01
MG BCs: +ve charge blocks (gridpoints):     30810 (   17186833).
MG BCs: -ve charge blocks (gridpoints):      8278 (    1098148).
MG BCs:     Elided blocks (gridpoints):    169821 (  178011484).
MG BCs: Computational effort saved:  99.9801%.
MG BCs: Charge after coarse-graining:           -9.0009523.
MG DL_MG: Calling solver with defect correction order = 8
MG DL_MG: Solver finished
MG Hartree energy from (\int phi*rho dr):              1443.140548
MG Hartree energy from (\int eps (grad phi)^2 dr):     1442.482117
MG Discrepancy due to finite box and discretization:     -0.658431 (  -0.04562%)
MG Correction to account for finite box:                  0.476565
MG Remaining discrepancy, due to discretization:         -0.181867 (  -0.01260%)
      ideal mu1:      -0.776589422227
             Q0:  -11600.157128561987
             G0:      -0.268749837377
   RMS gradient:       0.000079112540
MG BCs: +ve charge blocks (gridpoints):     30813 (   17186632).
MG BCs: -ve charge blocks (gridpoints):      8276 (    1098132).
MG BCs:     Elided blocks (gridpoints):    169818 (  178011701).
MG BCs: Computational effort saved:  99.9801%.
MG BCs: Charge after coarse-graining:           -9.0009524.
MG DL_MG: Calling solver with defect correction order = 8
MG DL_MG: Solver finished
MG Hartree energy from (\int phi*rho dr):              1443.006978
MG Hartree energy from (\int eps (grad phi)^2 dr):     1442.348305
MG Discrepancy due to finite box and discretization:     -0.658673 (  -0.04565%)
MG Correction to account for finite box:                  0.476956
MG Remaining discrepancy, due to discretization:         -0.181717 (  -0.01259%)
     Trial step:       0.728464789580
             Q1:  -11600.249899807037
 Quadratic coef:       0.103003548684
 Linear coef   :      -0.195774793735
           Qmin:  -11600.250153924588
Quadratic minimum step length (  0.692282187097) accepted
    Initial Ne1:    7233.99985298
      Final Ne1:    7234.00000000

=================== Penalty functional idempotency correction ==================
 RMS occupancy error at iteration   1:  0.000918 (step -0.4464 Ne1=   7234.0000)
 RMS occupancy error at iteration   2:  0.000025 (step -0.4993 Ne1=   7234.0000)
            Final RMS occupancy error   :  0.000000 (Ne1=   7234.0000)
               Final occupancy bounds   : [ -0.0000,  1.0000]
================================================================================

    8        -1.160015712856E+04     7.9113E-05     7.1599E-05    -1.3487E-01
MG BCs: +ve charge blocks (gridpoints):     30813 (   17186579).
MG BCs: -ve charge blocks (gridpoints):      8277 (    1098172).
MG BCs:     Elided blocks (gridpoints):    169818 (  178011714).
MG BCs: Computational effort saved:  99.9801%.
MG BCs: Charge after coarse-graining:           -9.0009524.
MG DL_MG: Calling solver with defect correction order = 8
MG DL_MG: Solver finished
MG Hartree energy from (\int phi*rho dr):              1443.014269
MG Hartree energy from (\int eps (grad phi)^2 dr):     1442.355609
MG Discrepancy due to finite box and discretization:     -0.658660 (  -0.04564%)
MG Correction to account for finite box:                  0.476936
MG Remaining discrepancy, due to discretization:         -0.181724 (  -0.01259%)
      ideal mu1:      -0.775970205313
             Q0:  -11600.251017702860
             G0:      -0.173894610624
   RMS gradient:       0.000063178429
MG BCs: +ve charge blocks (gridpoints):     30814 (   17185968).
MG BCs: -ve charge blocks (gridpoints):      8279 (    1098538).
MG BCs:     Elided blocks (gridpoints):    169817 (  178011959).
MG BCs: Computational effort saved:  99.9801%.
MG BCs: Charge after coarse-graining:           -9.0009522.
MG DL_MG: Calling solver with defect correction order = 8
MG DL_MG: Solver finished
MG Hartree energy from (\int phi*rho dr):              1442.192200
MG Hartree energy from (\int eps (grad phi)^2 dr):     1441.533245
MG Discrepancy due to finite box and discretization:     -0.658955 (  -0.04569%)
MG Correction to account for finite box:                  0.477262
MG Remaining discrepancy, due to discretization:         -0.181693 (  -0.01260%)
     Trial step:       0.710143082592
             Q1:  -11600.311009957804
 Quadratic coef:       0.063497799891
 Linear coef   :      -0.123490054834
           Qmin:  -11600.311058340762
Quadratic minimum step length (  0.690540525503) accepted
    Initial Ne1:    7234.00013648
      Final Ne1:    7234.00000000

=================== Penalty functional idempotency correction ==================
 RMS occupancy error at iteration   1:  0.001574 (step -0.4190 Ne1=   7234.0000)
 RMS occupancy error at iteration   2:  0.000047 (step -0.4992 Ne1=   7234.0000)
 RMS occupancy error at iteration   3:  0.000000 (step -0.5000 Ne1=   7234.0000)
            Final RMS occupancy error   :  0.000000 (Ne1=   7234.0000)
               Final occupancy bounds   : [  0.0000,  1.0000]
================================================================================

    9        -1.160025101770E+04     6.3178E-05     5.7178E-05    -9.3889E-02
MG BCs: +ve charge blocks (gridpoints):     30815 (   17185969).
MG BCs: -ve charge blocks (gridpoints):      8278 (    1098539).
MG BCs:     Elided blocks (gridpoints):    169816 (  178011957).
MG BCs: Computational effort saved:  99.9801%.
MG BCs: Charge after coarse-graining:           -9.0009522.
MG DL_MG: Calling solver with defect correction order = 8
MG DL_MG: Solver finished
MG Hartree energy from (\int phi*rho dr):              1442.216512
MG Hartree energy from (\int eps (grad phi)^2 dr):     1441.557553
MG Discrepancy due to finite box and discretization:     -0.658959 (  -0.04569%)
MG Correction to account for finite box:                  0.477266
MG Remaining discrepancy, due to discretization:         -0.181693 (  -0.01260%)
      ideal mu1:      -0.775235165560
   10        -1.160031304086E+04     4.9935E-05     4.5193E-05    -6.2023E-02
Finished density kernel iterations (  10)

Writing density kernel to file "complex_13781.vacuum_dkn" ... done


>>> Density kernel optimised for the current NGWF basis:
     ~~~~~~~~~~~~~~~~~~~~~~~~~~~~~~~~~~~~~~~~~~~~~~~~~~~~~~~~~~~
     Total energy                =  -1.16003130408573E+04  Eh
     Estimated bandgap           =  -4.6222E-01  Eh
     RMS occupancy error         =   3.9254E-12
     [H,K] commutator            =   4.5193E-05
     Occupancy bounds            = [  0.000:  1.000]
     ~~~~~~~~~~~~~~~~~~~~~~~~~~~~~~~~~~~~~~~~~~~~~~~~~~~~~~~~~~~




################################################################################
########################### NGWF CG iteration  001 #############################
################################################################################
****** Reciprocal space K.E. preconditioning with k_zero =  3.5000 a0^-1 *******

>>> Checking for convergence of NGWFs:   NOT CONVERGED
  ========================================================================
         NGWF RMS gradient =  1.5942E-03 >  2.0000E-06  | above tolerance
  ========================================================================

>>> Improving NGWFs using line search:
============ Calculation of NGWF S^-1 using Hotelling algorithm ================ 
         Iteration  |  Frobenius norm and Maximum abs value    (of I-S*S_n^-1)   
               1       0.19897510E+00     0.51801323E-02
               2       0.92537599E-03     0.40128498E-04
               3       0.34780094E-07     0.24996046E-08
               4       0.12706728E-12     0.62172489E-14
================================================================================
MG BCs: +ve charge blocks (gridpoints):     30321 (   17133935).
MG BCs: -ve charge blocks (gridpoints):      8286 (    1098202).
MG BCs:     Elided blocks (gridpoints):    170317 (  178064328).
MG BCs: Computational effort saved:  99.9803%.
MG BCs: Charge after coarse-graining:           -9.0009550.
MG DL_MG: Calling solver with defect correction order = 8
MG DL_MG: Solver finished
MG Hartree energy from (\int phi*rho dr):              1410.207917
MG Hartree energy from (\int eps (grad phi)^2 dr):     1409.549786
MG Discrepancy due to finite box and discretization:     -0.658131 (  -0.04667%)
MG Correction to account for finite box:                  0.477140
MG Remaining discrepancy, due to discretization:         -0.180990 (  -0.01283%)
============ Calculation of NGWF S^-1 using Hotelling algorithm ================ 
         Iteration  |  Frobenius norm and Maximum abs value    (of I-S*S_n^-1)   
               1       0.18535166E+01     0.41650685E-01
               2       0.71587635E-01     0.23082547E-02
               3       0.14735839E-03     0.84805054E-05
               4       0.11854694E-08     0.12580181E-09
               5       0.11138270E-12     0.44408921E-14
================================================================================
------------------------------- NGWF line search -------------------------------
RMS gradient                =       0.00159418299143
Trial step length           =               0.122474
Gradient along search dir.  =       -277.77606397011
Functional at step 0        =  -11600.31304085731972
Functional at step 1        =  -11631.72938829823397
Functional predicted        =  -11711.42419461484315
Selected quadratic step     =               0.800005
--------------------------- NGWF line search finished --------------------------
                                               
Writing NGWFs to file "complex_13781.vacuum_tightbox_ngwfs"....  done

>>> Optimising kernel for current NGWFs:
   Initial electron number for spin 1:    7268.53420797
     Final electron number for spin 1:    7234.00000000

=================== Penalty functional idempotency correction ==================
 RMS occupancy error at iteration   1:  0.004271 (step -0.4859 Ne1=   7234.0000)
 RMS occupancy error at iteration   2:  0.000072 (step -0.5003 Ne1=   7234.0000)
            Final RMS occupancy error   :  0.000000 (Ne1=   7234.0000)
               Final occupancy bounds   : [  0.0000,  1.0000]
================================================================================

................................................................................
<<<<<<<<<<<<<< LNV (Original version) density kernel optimisation >>>>>>>>>>>>>>
~~~~~~~~~~~~~~~~~~~~~~~~~~~~~~~~~~~~~~~~~~~~~~~~~~~~~~~~~~~~~~~~~~~~~~~~~~~~~~~~
   iter  |      energy (Eh)       | rms gradient |  commutator  |   dE (Eh)
MG BCs: +ve charge blocks (gridpoints):     24736 (   16853039).
MG BCs: -ve charge blocks (gridpoints):      8410 (    1082026).
MG BCs:     Elided blocks (gridpoints):    175904 (  178361400).
MG BCs: Computational effort saved:  99.9831%.
MG BCs: Charge after coarse-graining:           -9.0006588.
MG DL_MG: Calling solver with defect correction order = 8
MG DL_MG: Solver finished
MG Hartree energy from (\int phi*rho dr):              1255.342987
MG Hartree energy from (\int eps (grad phi)^2 dr):     1254.684787
MG Discrepancy due to finite box and discretization:     -0.658200 (  -0.05243%)
MG Correction to account for finite box:                  0.476554
MG Remaining discrepancy, due to discretization:         -0.181646 (  -0.01447%)
      ideal mu1:      -0.715357556671
             Q0:  -11710.625658558565
             G0:     -10.029329125895
   RMS gradient:       0.000483719506
MG BCs: +ve charge blocks (gridpoints):     24812 (   16867294).
MG BCs: -ve charge blocks (gridpoints):      8394 (    1078678).
MG BCs:     Elided blocks (gridpoints):    175828 (  178350493).
MG BCs: Computational effort saved:  99.9831%.
MG BCs: Charge after coarse-graining:           -9.0006546.
MG DL_MG: Calling solver with defect correction order = 8
MG DL_MG: Solver finished
MG Hartree energy from (\int phi*rho dr):              1270.318659
MG Hartree energy from (\int eps (grad phi)^2 dr):     1269.655878
MG Discrepancy due to finite box and discretization:     -0.662780 (  -0.05217%)
MG Correction to account for finite box:                  0.475317
MG Remaining discrepancy, due to discretization:         -0.187463 (  -0.01476%)
     Trial step:       0.700273216277
             Q1:  -11710.182661251165
 Quadratic coef:       7.466267871492
 Linear coef   :      -7.023270564093
           Qmin:  -11712.277297980880
Quadratic minimum step length (  0.329361894815) accepted
    Initial Ne1:    7233.99956097
      Final Ne1:    7234.00000000

=================== Penalty functional idempotency correction ==================
 RMS occupancy error at iteration   1:  0.000357 (step -0.4986 Ne1=   7234.0000)
 RMS occupancy error at iteration   2:  0.000000 (step -0.5000 Ne1=   7234.0000)
            Final RMS occupancy error   :  0.000000 (Ne1=   7234.0000)
               Final occupancy bounds   : [  0.0000,  1.0000]
================================================================================

    1        -1.171062565856E+04     4.8372E-04     4.3778E-04
MG BCs: +ve charge blocks (gridpoints):     24770 (   16859988).
MG BCs: -ve charge blocks (gridpoints):      8397 (    1080419).
MG BCs:     Elided blocks (gridpoints):    175870 (  178356058).
MG BCs: Computational effort saved:  99.9831%.
MG BCs: Charge after coarse-graining:           -9.0006567.
MG DL_MG: Calling solver with defect correction order = 8
MG DL_MG: Solver finished
MG Hartree energy from (\int phi*rho dr):              1261.469125
MG Hartree energy from (\int eps (grad phi)^2 dr):     1260.808874
MG Discrepancy due to finite box and discretization:     -0.660251 (  -0.05234%)
MG Correction to account for finite box:                  0.475943
MG Remaining discrepancy, due to discretization:         -0.184308 (  -0.01461%)
      ideal mu1:      -0.721155884930
             Q0:  -11712.253639369155
             G0:      -1.003843891587
   RMS gradient:       0.000153605694
MG BCs: +ve charge blocks (gridpoints):     24772 (   16859713).
MG BCs: -ve charge blocks (gridpoints):      8395 (    1081152).
MG BCs:     Elided blocks (gridpoints):    175868 (  178355600).
MG BCs: Computational effort saved:  99.9831%.
MG BCs: Charge after coarse-graining:           -9.0006567.
MG DL_MG: Calling solver with defect correction order = 8
MG DL_MG: Solver finished
MG Hartree energy from (\int phi*rho dr):              1262.577376
MG Hartree energy from (\int eps (grad phi)^2 dr):     1261.916935
MG Discrepancy due to finite box and discretization:     -0.660441 (  -0.05231%)
MG Correction to account for finite box:                  0.475756
MG Remaining discrepancy, due to discretization:         -0.184685 (  -0.01463%)
     Trial step:       0.480253384581
             Q1:  -11712.465205896297
 Quadratic coef:       0.270532899385
 Linear coef   :      -0.482099426526
           Qmin:  -11712.468419029581
Quadratic minimum step length (  0.427914464044) accepted
    Initial Ne1:    7233.99994247
      Final Ne1:    7234.00000000

=================== Penalty functional idempotency correction ==================
 RMS occupancy error at iteration   1:  0.000148 (step -0.4993 Ne1=   7234.0000)
            Final RMS occupancy error   :  0.000000 (Ne1=   7234.0000)
               Final occupancy bounds   : [ -0.0000,  1.0000]
================================================================================

    2        -1.171225363937E+04     1.5361E-04     1.3902E-04    -1.6280E+00
MG BCs: +ve charge blocks (gridpoints):     24769 (   16859770).
MG BCs: -ve charge blocks (gridpoints):      8394 (    1081068).
MG BCs:     Elided blocks (gridpoints):    175871 (  178355627).
MG BCs: Computational effort saved:  99.9831%.
MG BCs: Charge after coarse-graining:           -9.0006567.
MG DL_MG: Calling solver with defect correction order = 8
MG DL_MG: Solver finished
MG Hartree energy from (\int phi*rho dr):              1262.456549
MG Hartree energy from (\int eps (grad phi)^2 dr):     1261.796129
MG Discrepancy due to finite box and discretization:     -0.660419 (  -0.05231%)
MG Correction to account for finite box:                  0.475777
MG Remaining discrepancy, due to discretization:         -0.184642 (  -0.01463%)
      ideal mu1:      -0.722182679023
             Q0:  -11712.468868706492
             G0:      -0.169508235444
   RMS gradient:       0.000062819732
MG BCs: +ve charge blocks (gridpoints):     24773 (   16859104).
MG BCs: -ve charge blocks (gridpoints):      8395 (    1081486).
MG BCs:     Elided blocks (gridpoints):    175867 (  178355875).
MG BCs: Computational effort saved:  99.9831%.
MG BCs: Charge after coarse-graining:           -9.0006567.
MG DL_MG: Calling solver with defect correction order = 8
MG DL_MG: Solver finished
MG Hartree energy from (\int phi*rho dr):              1262.011656
MG Hartree energy from (\int eps (grad phi)^2 dr):     1261.351431
MG Discrepancy due to finite box and discretization:     -0.660225 (  -0.05232%)
MG Correction to account for finite box:                  0.475599
MG Remaining discrepancy, due to discretization:         -0.184626 (  -0.01463%)
     Trial step:       0.453329206723
             Q1:  -11712.522201872547
 Quadratic coef:       0.023509867851
 Linear coef   :      -0.076843033907
           Qmin:  -11712.531659912906
Quadratic minimum step length (  0.740863194627) accepted
    Initial Ne1:    7234.00137486
      Final Ne1:    7234.00000000

=================== Penalty functional idempotency correction ==================
 RMS occupancy error at iteration   1:  0.000150 (step -0.4942 Ne1=   7234.0000)
 RMS occupancy error at iteration   2:  0.000001 (step -0.5000 Ne1=   7234.0000)
            Final RMS occupancy error   :  0.000000 (Ne1=   7234.0000)
               Final occupancy bounds   : [  0.0000,  1.0000]
================================================================================

    3        -1.171246886871E+04     6.2820E-05     5.6854E-05    -2.1523E-01
MG BCs: +ve charge blocks (gridpoints):     24771 (   16858753).
MG BCs: -ve charge blocks (gridpoints):      8397 (    1081721).
MG BCs:     Elided blocks (gridpoints):    175869 (  178355991).
MG BCs: Computational effort saved:  99.9831%.
MG BCs: Charge after coarse-graining:           -9.0006568.
MG DL_MG: Calling solver with defect correction order = 8
MG DL_MG: Solver finished
MG Hartree energy from (\int phi*rho dr):              1261.729467
MG Hartree energy from (\int eps (grad phi)^2 dr):     1261.069370
MG Discrepancy due to finite box and discretization:     -0.660098 (  -0.05232%)
MG Correction to account for finite box:                  0.475482
MG Remaining discrepancy, due to discretization:         -0.184616 (  -0.01463%)
      ideal mu1:      -0.721427818831
             Q0:  -11712.531718415557
             G0:      -0.070244491802
   RMS gradient:       0.000040447212
MG BCs: +ve charge blocks (gridpoints):     24771 (   16858651).
MG BCs: -ve charge blocks (gridpoints):      8398 (    1081796).
MG BCs:     Elided blocks (gridpoints):    175869 (  178356018).
MG BCs: Computational effort saved:  99.9831%.
MG BCs: Charge after coarse-graining:           -9.0006567.
MG DL_MG: Calling solver with defect correction order = 8
MG DL_MG: Solver finished
MG Hartree energy from (\int phi*rho dr):              1261.684313
MG Hartree energy from (\int eps (grad phi)^2 dr):     1261.024551
MG Discrepancy due to finite box and discretization:     -0.659762 (  -0.05229%)
MG Correction to account for finite box:                  0.475279
MG Remaining discrepancy, due to discretization:         -0.184483 (  -0.01462%)
     Trial step:       0.579529916666
             Q1:  -11712.556934726425
 Quadratic coef:       0.015492473613
 Linear coef   :      -0.040708784480
           Qmin:  -11712.558460515871
Quadratic minimum step length (  0.761400634511) accepted
    Initial Ne1:    7234.00058559
      Final Ne1:    7234.00000000

=================== Penalty functional idempotency correction ==================
 RMS occupancy error at iteration   1:  0.000270 (step -0.4848 Ne1=   7234.0000)
 RMS occupancy error at iteration   2:  0.000002 (step -0.5000 Ne1=   7234.0000)
            Final RMS occupancy error   :  0.000000 (Ne1=   7234.0000)
               Final occupancy bounds   : [  0.0000,  1.0000]
================================================================================

    4        -1.171253171842E+04     4.0447E-05     3.6606E-05    -6.2850E-02
MG BCs: +ve charge blocks (gridpoints):     24771 (   16858610).
MG BCs: -ve charge blocks (gridpoints):      8399 (    1081813).
MG BCs:     Elided blocks (gridpoints):    175869 (  178356042).
MG BCs: Computational effort saved:  99.9831%.
MG BCs: Charge after coarse-graining:           -9.0006567.
MG DL_MG: Calling solver with defect correction order = 8
MG DL_MG: Solver finished
MG Hartree energy from (\int phi*rho dr):              1261.671238
MG Hartree energy from (\int eps (grad phi)^2 dr):     1261.011585
MG Discrepancy due to finite box and discretization:     -0.659653 (  -0.05228%)
MG Correction to account for finite box:                  0.475212
MG Remaining discrepancy, due to discretization:         -0.184442 (  -0.01462%)
      ideal mu1:      -0.721786003728
             Q0:  -11712.558377729962
             G0:      -0.070569852537
   RMS gradient:       0.000040631014
MG BCs: +ve charge blocks (gridpoints):     24769 (   16859808).
MG BCs: -ve charge blocks (gridpoints):      8395 (    1081329).
MG BCs:     Elided blocks (gridpoints):    175871 (  178355328).
MG BCs: Computational effort saved:  99.9831%.
MG BCs: Charge after coarse-graining:           -9.0006565.
MG DL_MG: Calling solver with defect correction order = 8
MG DL_MG: Solver finished
MG Hartree energy from (\int phi*rho dr):              1262.472612
MG Hartree energy from (\int eps (grad phi)^2 dr):     1261.813544
MG Discrepancy due to finite box and discretization:     -0.659068 (  -0.05220%)
MG Correction to account for finite box:                  0.474709
MG Remaining discrepancy, due to discretization:         -0.184359 (  -0.01460%)
     Trial step:       0.664269859520
             Q1:  -11712.588218094083
 Quadratic coef:       0.017037061911
 Linear coef   :      -0.046877426031
           Qmin:  -11712.590623505126
Quadratic minimum step length (  0.913868288076) accepted
    Initial Ne1:    7234.00070869
      Final Ne1:    7234.00000000

=================== Penalty functional idempotency correction ==================
 RMS occupancy error at iteration   1:  0.001142 (step -0.4398 Ne1=   7234.0000)
 RMS occupancy error at iteration   2:  0.000015 (step -0.4999 Ne1=   7234.0000)
            Final RMS occupancy error   :  0.000000 (Ne1=   7234.0000)
               Final occupancy bounds   : [  0.0000,  1.0000]
================================================================================

    5        -1.171255837773E+04     4.0631E-05     3.6772E-05    -2.6659E-02
MG BCs: +ve charge blocks (gridpoints):     24769 (   16860281).
MG BCs: -ve charge blocks (gridpoints):      8394 (    1081164).
MG BCs:     Elided blocks (gridpoints):    175871 (  178355020).
MG BCs: Computational effort saved:  99.9831%.
MG BCs: Charge after coarse-graining:           -9.0006564.
MG DL_MG: Calling solver with defect correction order = 8
MG DL_MG: Solver finished
MG Hartree energy from (\int phi*rho dr):              1262.776796
MG Hartree energy from (\int eps (grad phi)^2 dr):     1262.117937
MG Discrepancy due to finite box and discretization:     -0.658859 (  -0.05218%)
MG Correction to account for finite box:                  0.474531
MG Remaining discrepancy, due to discretization:         -0.184328 (  -0.01460%)
      ideal mu1:      -0.723081738126
             Q0:  -11712.590130458120
             G0:      -0.076131022635
   RMS gradient:       0.000042099005
MG BCs: +ve charge blocks (gridpoints):     24769 (   16860284).
MG BCs: -ve charge blocks (gridpoints):      8392 (    1081233).
MG BCs:     Elided blocks (gridpoints):    175871 (  178354948).
MG BCs: Computational effort saved:  99.9831%.
MG BCs: Charge after coarse-graining:           -9.0006564.
MG DL_MG: Calling solver with defect correction order = 8
MG DL_MG: Solver finished
MG Hartree energy from (\int phi*rho dr):              1262.600280
MG Hartree energy from (\int eps (grad phi)^2 dr):     1261.942107
MG Discrepancy due to finite box and discretization:     -0.658173 (  -0.05213%)
MG Correction to account for finite box:                  0.473825
MG Remaining discrepancy, due to discretization:         -0.184347 (  -0.01460%)
     Trial step:       0.779137445731
             Q1:  -11712.624217644683
 Quadratic coef:       0.025229343953
 Linear coef   :      -0.059316530517
           Qmin:  -11712.624995126014
Quadratic minimum step length (  0.915912244123) accepted
    Initial Ne1:    7234.00075917
      Final Ne1:    7234.00000000

=================== Penalty functional idempotency correction ==================
 RMS occupancy error at iteration   1:  0.002942 (step -0.3714 Ne1=   7234.0000)
 RMS occupancy error at iteration   2:  0.000054 (step -0.4997 Ne1=   7234.0000)
 RMS occupancy error at iteration   3:  0.000000 (step -0.5000 Ne1=   7234.0000)
            Final RMS occupancy error   :  0.000000 (Ne1=   7234.0000)
               Final occupancy bounds   : [  0.0000,  1.0000]
================================================================================

    6        -1.171259013046E+04     4.2099E-05     3.8101E-05    -3.1753E-02
MG BCs: +ve charge blocks (gridpoints):     24769 (   16860282).
MG BCs: -ve charge blocks (gridpoints):      8391 (    1081257).
MG BCs:     Elided blocks (gridpoints):    175871 (  178354926).
MG BCs: Computational effort saved:  99.9831%.
MG BCs: Charge after coarse-graining:           -9.0006564.
MG DL_MG: Calling solver with defect correction order = 8
MG DL_MG: Solver finished
MG Hartree energy from (\int phi*rho dr):              1262.572515
MG Hartree energy from (\int eps (grad phi)^2 dr):     1261.914412
MG Discrepancy due to finite box and discretization:     -0.658103 (  -0.05212%)
MG Correction to account for finite box:                  0.473753
MG Remaining discrepancy, due to discretization:         -0.184350 (  -0.01460%)
      ideal mu1:      -0.722959522911
             Q0:  -11712.626111954800
             G0:      -0.068807520799
[...]
MG Hartree energy from (\int phi*rho dr):              1219.547332
MG Hartree energy from (\int eps (grad phi)^2 dr):     1219.357369
MG Discrepancy due to finite box and discretization:     -0.189963 (  -0.01558%)
MG Correction to account for finite box:                  0.006352
MG Remaining discrepancy, due to discretization:         -0.183611 (  -0.01506%)
             Q2:  -11747.507026363863
  Cubic LS coeff:       0.748258543570
Predicted energy:  -11747.507026363877
Cubic minimum step length accepted
    Initial Ne1:    7234.00000000
      Final Ne1:    7234.00000000

=================== Penalty functional idempotency correction ==================
 RMS occupancy error at iteration   1:  0.000000 (step -0.5000 Ne1=   7234.0000)
            Final RMS occupancy error   :  0.000000 (Ne1=   7234.0000)
               Final occupancy bounds   : [ -0.0000,  1.0000]
================================================================================

    7        -1.174750702636E+04     6.7284E-09     6.0894E-09    -9.3132E-10

Reusing previously generated solute cavity.
MG BCs: +ve charge blocks (gridpoints):     28987 (   19030916).
MG BCs: -ve charge blocks (gridpoints):      8399 (    1050699).
MG BCs:     Elided blocks (gridpoints):    171653 (  176214850).
MG BCs: Computational effort saved:  99.9810%.
MG BCs: Charge after coarse-graining:           -9.0009374.
MG DL_MG: Calling solver with defect correction order = 8
MG DL_MG: Solver finished
MG Hartree energy from (\int phi*rho dr):              1219.547334
MG Hartree energy from (\int eps (grad phi)^2 dr):     1219.357371
MG Discrepancy due to finite box and discretization:     -0.189963 (  -0.01558%)
MG Correction to account for finite box:                  0.006352
MG Remaining discrepancy, due to discretization:         -0.183611 (  -0.01506%)
      ideal mu1:      -0.481176072132
             Q0:  -11747.507026363863
             G0:      -0.000000001594
   RMS gradient:       0.000000005246

Reusing previously generated solute cavity.
MG BCs: +ve charge blocks (gridpoints):     28987 (   19030916).
MG BCs: -ve charge blocks (gridpoints):      8399 (    1050699).
MG BCs:     Elided blocks (gridpoints):    171653 (  176214850).
MG BCs: Computational effort saved:  99.9810%.
MG BCs: Charge after coarse-graining:           -9.0009374.
MG DL_MG: Calling solver with defect correction order = 8
MG DL_MG: Solver finished
MG Hartree energy from (\int phi*rho dr):              1219.547316
MG Hartree energy from (\int eps (grad phi)^2 dr):     1219.357353
MG Discrepancy due to finite box and discretization:     -0.189963 (  -0.01558%)
MG Correction to account for finite box:                  0.006352
MG Remaining discrepancy, due to discretization:         -0.183611 (  -0.01506%)
     Trial step:       0.551612835229
             Q1:  -11747.507026364212
 Quadratic coef:       0.000000000529
 Linear coef   :      -0.000000000879
           Qmin:  -11747.507026364228
Quadratic minimum step length (  0.458194924659) accepted
    Initial Ne1:    7234.00000000
      Final Ne1:    7234.00000000

=================== Penalty functional idempotency correction ==================
 RMS occupancy error at iteration   1:  0.000000 (step -0.5000 Ne1=   7234.0000)
            Final RMS occupancy error   :  0.000000 (Ne1=   7234.0000)
               Final occupancy bounds   : [ -0.0000,  1.0000]
================================================================================

    8        -1.174750702636E+04     5.2459E-09     4.7477E-09    -1.7462E-09

Reusing previously generated solute cavity.
MG BCs: +ve charge blocks (gridpoints):     28987 (   19030916).
MG BCs: -ve charge blocks (gridpoints):      8399 (    1050699).
MG BCs:     Elided blocks (gridpoints):    171653 (  176214850).
MG BCs: Computational effort saved:  99.9810%.
MG BCs: Charge after coarse-graining:           -9.0009374.
MG DL_MG: Calling solver with defect correction order = 8
MG DL_MG: Solver finished
MG Hartree energy from (\int phi*rho dr):              1219.547319
MG Hartree energy from (\int eps (grad phi)^2 dr):     1219.357356
MG Discrepancy due to finite box and discretization:     -0.189963 (  -0.01558%)
MG Correction to account for finite box:                  0.006352
MG Remaining discrepancy, due to discretization:         -0.183611 (  -0.01506%)
      ideal mu1:      -0.481176056234
             Q0:  -11747.507026364212
             G0:      -0.000000000804
   RMS gradient:       0.000000003241

Reusing previously generated solute cavity.
MG BCs: +ve charge blocks (gridpoints):     28987 (   19030916).
MG BCs: -ve charge blocks (gridpoints):      8399 (    1050699).
MG BCs:     Elided blocks (gridpoints):    171653 (  176214850).
MG BCs: Computational effort saved:  99.9810%.
MG BCs: Charge after coarse-graining:           -9.0009374.
MG DL_MG: Calling solver with defect correction order = 8
MG DL_MG: Solver finished
MG Hartree energy from (\int phi*rho dr):              1219.547317
MG Hartree energy from (\int eps (grad phi)^2 dr):     1219.357354
MG Discrepancy due to finite box and discretization:     -0.189963 (  -0.01558%)
MG Correction to account for finite box:                  0.006352
MG Remaining discrepancy, due to discretization:         -0.183611 (  -0.01506%)
     Trial step:       0.502738700996
             Q1:  -11747.507026364212
 Quadratic coef:       0.000000000404
 Linear coef   :      -0.000000000404
           Qmin:  -11747.507026364314
Quadratic minimum step length (  0.251501690149) accepted
    Initial Ne1:    7234.00000000
      Final Ne1:    7234.00000000

=================== Penalty functional idempotency correction ==================
 RMS occupancy error at iteration   1:  0.000000 (step -0.5000 Ne1=   7234.0000)
            Final RMS occupancy error   :  0.000000 (Ne1=   7234.0000)
               Final occupancy bounds   : [ -0.0000,  1.0000]
================================================================================

    9        -1.174750702636E+04     3.2410E-09     2.9332E-09    -3.4925E-10

Reusing previously generated solute cavity.
MG BCs: +ve charge blocks (gridpoints):     28987 (   19030916).
MG BCs: -ve charge blocks (gridpoints):      8399 (    1050699).
MG BCs:     Elided blocks (gridpoints):    171653 (  176214850).
MG BCs: Computational effort saved:  99.9810%.
MG BCs: Charge after coarse-graining:           -9.0009374.
MG DL_MG: Calling solver with defect correction order = 8
MG DL_MG: Solver finished
MG Hartree energy from (\int phi*rho dr):              1219.547318
MG Hartree energy from (\int eps (grad phi)^2 dr):     1219.357355
MG Discrepancy due to finite box and discretization:     -0.189963 (  -0.01558%)
MG Correction to account for finite box:                  0.006352
MG Remaining discrepancy, due to discretization:         -0.183611 (  -0.01506%)
      ideal mu1:      -0.481176054797
   10        -1.174750702636E+04     2.6728E-09     2.4190E-09    -1.1642E-10
Finished density kernel iterations (  10)

Writing density kernel to file "complex_13781.dkn" ... done


>>> Density kernel optimised for the current NGWF basis:
     ~~~~~~~~~~~~~~~~~~~~~~~~~~~~~~~~~~~~~~~~~~~~~~~~~~~~~~~~~~~
     Total energy                =  -1.17475070263643E+04  Eh
     Estimated bandgap           =   9.7683E-02  Eh
     RMS occupancy error         =   3.0553E-16
     [H,K] commutator            =   2.4190E-09
     Occupancy bounds            = [ -0.000:  1.000]
     ~~~~~~~~~~~~~~~~~~~~~~~~~~~~~~~~~~~~~~~~~~~~~~~~~~~~~~~~~~~




################################################################################
########################### NGWF CG iteration  004 #############################
################################################################################
****** Reciprocal space K.E. preconditioning with k_zero =  3.5000 a0^-1 *******

>>> Checking for convergence of NGWFs: 
           ........................................................
           |         *** NGWF optimisation converged ***          |
           | RMS NGWF gradient =    0.00000196107050              |
           | Criteria satisfied:                                  |
           | -> RMS NGWF gradient lower than set threshold.       |
           ========================================================

Reusing previously generated solute cavity.
MG BCs: +ve charge blocks (gridpoints):     28987 (   19030916).
MG BCs: -ve charge blocks (gridpoints):      8399 (    1050699).
MG BCs:     Elided blocks (gridpoints):    171653 (  176214850).
MG BCs: Computational effort saved:  99.9810%.
MG BCs: Charge after coarse-graining:           -9.0009374.
MG DL_MG: Calling solver with defect correction order = 8
MG DL_MG: Solver finished
MG Hartree energy from (\int phi*rho dr):              1219.547318
MG Hartree energy from (\int eps (grad phi)^2 dr):     1219.357355
MG Discrepancy due to finite box and discretization:     -0.189963 (  -0.01558%)
MG Correction to account for finite box:                  0.006352
MG Remaining discrepancy, due to discretization:         -0.183611 (  -0.01506%)

================================================================================
           ---------------- ENERGY COMPONENTS (Eh) ----------------
           | Kinetic                    :     8579.10885706825866 |
           | Pseudo. (local,OBC,corr'd) :    -5074.75423602624960 |
           | Pseudopotential (non-local):     1410.20704337176494 |
           | Hartree (molecular)        :     1219.54731785664990 |
           | Exchange-correlation       :    -3377.56146304598451 |
           | Ion-ion (open BC)          :   834228.63213507598266 |
           | Dispersion Correction      :       -3.26882699985866 |
           | Smeared ion non-self corr. :  -834180.15070038451813 |
           | Smeared ion self corr.     :   -14549.92364409075344 |
           | Solvent cavitation energy  :        2.33564283728145 |
           | Solute-solvent dis-rep en. :       -1.67915202679257 |
           | Total                      :   -11747.50702636421192 |
           --------------------------------------------------------
           ------ LOCAL ENERGY COMPONENTS FROM MATRIX TRACES ------
           | Pseudopotential (local)    :    -5074.75423602625688 |
           | Hartree                    :    -2004.06878858851928 |
           --------------------------------------------------------
           Integrated density           :     7233.99999999897955
           Integrated density tr(KS)    :     7234.00000000000000
================================================================================


                        <<<<< CALCULATION SUMMARY >>>>>                         
|ITER|    RMS GRADIENT   |     TOTAL ENERGY    |   step   |     Epredicted              
   0     0.00004014764571 -11747.44339812209364   0.625577 -11747.49850291469556        
   1     0.00000991159870 -11747.50646424700972   0.087464 -11747.50693382279860        
   2     0.00000437913383 -11747.50700716127176   0.016041 -11747.50702397273017        
   3     0.00000196107050 -11747.50702636432834  <-- CG                                 

=================== Finished the calculation in solvent ========================
= Adjusting the following parameters: 
= read_denskern: F
= read_tightbox_ngwfs: F
= maxit_pen: 0 (restored to user-specified value)
= restart read filename prefix: ""
= restart write filename prefix: ""
================================================================================

================================================================================
IS: Calculation in solvent completed (NGWFs converged).      

Individual components of total energy in solvent:     hartree           kcal/mol
- Usual non-electrostatic DFT terms:    -12967.71083503146656    -8137361.229352
- Electrostatic fixed charge energy:      1219.54731785664990      765277.479421
- Apolar cavitation energy:                  2.33564283728145        1465.637977
- Apolar dispersion-repulsion energy:       -1.67915202679257       -1053.683782
 -------------------------------------------------------------------------------
- Total energy in solvent:              -11747.50702636432834    -7371671.795737

Components of total energy in solvent:                hartree           kcal/mol
- Usual non-electrostatic DFT terms:    -12967.71083503146656    -8137361.229352
- Electrostatic energy:                   1219.54731785664990      765277.479421
- Apolar energy terms:                       0.65649081048888         411.954194
 -------------------------------------------------------------------------------
- Total energy in solvent:              -11747.50702636432834    -7371671.795737

Calculation of free energy of solvation:              hartree           kcal/mol
- Total energy in solvent:         (+)  -11747.50702636432834    -7371671.795737
- Total energy in vacuum:          (-)  -11743.62748873746023    -7369237.349174
 -------------------------------------------------------------------------------
- Total free energy of solvation:           -3.87953762686811       -2434.446563

Components of polar term in f.e. of solvation:        hartree           kcal/mol
- Electrostatic:                            -4.72994119519558       -2968.082847
- Change in nonelectrostatic DFT terms:      0.19391275783892         121.682090
 -------------------------------------------------------------------------------
- Polar term in f.e. of solvation:          -4.53602843735666       -2846.400757

Components of free energy of solvation:               hartree           kcal/mol
- Polar term in f.e. of solvation: (+)      -4.53602843735666       -2846.400757
- Apolar (cavitation, dis., rep.): (+)       0.65649081048888         411.954194
 -------------------------------------------------------------------------------
- Total free energy of solvation:           -3.87953762686778       -2434.446563
================================================================================


------------------------------ TIMING INFORMATION ------------------------------
AVERAGE TIME:   29838.312s on     60 node(s)                                    
TOTAL TIME:     29838.313s on     60 node(s)                                    
================= AVERAGE TIMINGS FROM ALL NODES (CUMULATIVE) ==================
|| TAG                                    #calls    cpu time   %total  Gflops ||
|| sparse_set_to_garbage                :   164        0.03s   0.000%  ------ ||
|| parallel_prepare_fd_halos_request    :  1827        0.03s   0.000%  ------ ||
|| ngwfs_initialise_from_radial         :     1        0.11s   0.000%  ------ ||
|| basis_extract_function_from_box      :  3382        0.14s   0.000%  ------ ||
|| work_imbalance                       :     1        0.34s   0.001%  ------ ||
|| parallel_prepare_fd_halos_alloc      :  1827        0.57s   0.002%  ------ ||
|| parallel_prepare_fd_halos_satisfy    :  1827        0.60s   0.002%  ------ ||
|| pseudopotentials_nonlocal_mat        :    28        1.93s   0.006%  ------ ||
|| density_init_guess_real              :     1        3.56s   0.012%  ------ ||
|| openbc_locps_radial                  :     1        5.78s   0.019%  ------ ||
|| restart_ngwfs_tightbox_input         :     1        8.18s   0.027%  ------ ||
|| restart_kernel_read                  :     1        9.58s   0.032%  ------ ||
|| parallel_prepare_fd_halos_comms_imbal:  1827       10.40s   0.035%  ------ ||
|| parallel_prepare_fd_halos_clear      :  1827       17.95s   0.060%  ------ ||
|| sparse_init                          :     2       22.15s   0.074%  ------ ||
|| parallel_prepare_fd_halos_comms_wait :  1827       26.69s   0.089%  ------ ||
|| projectors_func_ovlp_box             :    28       27.39s   0.092%  ------ ||
|| function_ops_brappd_ketppd           :    28       27.96s   0.094%  ------ ||
|| basis_copy_function_to_box           : 54885       38.10s   0.128%  ------ ||
|| projectors_init_fftbox_recip         :   133       38.37s   0.129%  ------ ||
|| palser_mano_kernel_optimise          :     1       41.62s   0.140%  ------ ||
|| ngwf_gradient_coeffs                 :    15       45.87s   0.154%  ------ ||
|| fourier_apply_box_pair               :  4813       49.47s   0.166% 563.334 ||
|| parallel_prepare_fd_halos            :  1827       56.26s   0.189%  ------ ||
|| pseudo_make_structure_factor         :     2       56.54s   0.189%  ------ ||
|| sparse_embed_hotelling_invert_embed  :    28       72.76s   0.244%  ------ ||
|| restart_kernel_write                 :    16       93.45s   0.313%  ------ ||
|| finite_difference_derivative         :  1827      139.89s   0.469%  ------ ||
|| integrals_kinetic                    :    28      140.49s   0.471%  ------ ||
|| projectors_gradient_batch            :   105      151.00s   0.506%  ------ ||
|| basis_dot_function_with_box          : 8.422M     160.21s   0.537%  ------ ||
|| fourier_apply_cell_backward          :  1219      166.28s   0.557% 101.259 ||
|| sparse_trace                         :  5191      194.67s   0.652%  ------ ||
|| fourier_apply_cell_forward           :  1217      219.29s   0.735%  76.658 ||
|| openbc_locps_on_grid                 :     2      274.00s   0.918%  ------ ||
|| kernel_purify                        :   464      277.23s   0.929%  ------ ||
|| basis_add_function_to_box            : 17.52M     395.08s   1.324%  ------ ||
|| lnv_gradient_norm                    :   150      404.24s   1.355%  ------ ||
|| xc_energy_potential                  :   304      445.71s   1.494%  ------ ||
|| hamiltonian_energy_components        :     4      491.59s   1.648%  ------ ||
|| kernel_fix                           :   150      523.92s   1.756%  ------ ||
|| integrals_locpot_mat_els_batch       :  1113      718.87s   2.409%  ------ ||
|| ngwf_gradient_build_batch            :   105      728.88s   2.443%  ------ ||
|| ngwf_gradient_batch                  :   105     1028.93s   3.448%  ------ ||
|| density_batch_row_sums               :  2121     1053.09s   3.529%  ------ ||
|| ngwf_gradient_lnv                    :    15     1173.29s   3.932%  ------ ||
|| cell_grid_deposit_box_real           : 35201     1259.54s   4.221%  ------ ||
|| restart_ngwfs_tightbox_output        :    13     1398.23s   4.686%  ------ ||
|| cell_grid_extract_box_real           : 38596     1494.51s   5.009%  ------ ||
|| sparse_product                       :  6383     1758.53s   5.894%  ------ ||
|| density_fftbox_deposit_to_cell       : 33330     1890.62s   6.336%  ------ ||
|| density_fftbox_interpolate_multiply  : 33330     3416.60s  11.450%  ------ ||
|| potential_apply_to_ngwf_batch        :  1113     3467.03s  11.619%  ------ ||
|| integrals_locpot_dbl_grid            :   159     4203.70s  14.088%  ------ ||
|| fourier_apply_box                    : 114.7k    4233.96s  14.190% 760.882 ||
|| multigrid_prepare_bound_cond         :   304     4254.56s  14.259%  ------ ||
|| density_batch_interp_deposit         :  2121     6181.66s  20.717%  ------ ||
|| dl_mg_solver_calls                   :   304     7067.26s  23.685%  ------ ||
|| density_on_dbl_grid                  :   303     7592.29s  25.445%  ------ ||
|| multigrid_calculate_hartree          :   304    11513.82s  38.587%  ------ ||
|| hamiltonian_lhxc_calculate           :   299    19470.05s  65.252%  ------ ||
|| lnv_denskernel_optimise_cg           :    15    24542.83s  82.253%  ------ ||
|| ngwf_cg_optimise                     :     2    28831.65s  96.626%  ------ ||
|| total_time                           :     1    29838.31s 100.000%  ------ ||
================================================================================
Overhead of generating timer report: 
- 0 ms averaging over threads,
- 14 ms ensuring consistency across MPI ranks,
- 0 ms printing in order.

Job completed: 11-07-2020 09:34 (+0100)

Application 41050310 resources: utime ~6168832s, stime ~206344s, Rss ~3830180, inblocks ~287560652, outblocks ~62002131
