 +---------------------------------------------------------------+
 |                                                               |
 |        ####### #     # ####### ####### ####### ######         |
 |        #     # ##    # #          #    #       #     #        |
 |        #     # # #   # #          #    #       #     #        |
 |        #     # #  #  # #####      #    #####   ######         |
 |        #     # #   # # #          #    #       #              |
 |        #     # #    ## #          #    #       #              |
 |        ####### #     # #######    #    ####### #              |
 |                                                               |
 |        Linear-Scaling Ab Initio Total Energy Program          |
 |                                                               |
 |          Release for academic collaborators of ODG            |
 |                                             Version 5.3.2.6.  |
 |                                                               |
 +---------------------------------------------------------------+
 |                                                               |
 |  Authors:                                                     |
 |  Jacek Dziedzic, Peter D. Haynes, Nicholas D. M. Hine,        |
 |  Arash. A. Mostofi, Mike C. Payne and Chris-Kriton Skylaris   |
 |                                                               |
 |  Contributors:                                                |
 |  J. Aarons, L. Andrinopoulos, P. W. Avraam, R. A. Bell,       |
 |  A. Bhandari, G. A. Bramley, R. J. Charlton, S. J. Clark,     |
 |  R. J. Clements, G. C. Constantinescu, F. Corsetti,           |
 |  N. Corsini, O. Dieguez, S. M. M. Dubois, K. K. B. Duff,      |
 |  J. M. Escartin, A. Greco, H. Helal, Q. O. Hill, L. P. Lee,   |
 |  J.-H. Li, E. B. Linscott, G. Moynihan, D. D. O`Regan,        |
 |  O. K. Okan, M. J. S. Phipps, C. J. Pickard,                  |
 |  J. C. A. Prentice, M. I. J. Probert, L. E. Ratcliff,         |
 |  M. Robinson, A. Ruiz Serrano, J. S. Spencer, E. W. Tait,     |
 |  G. Teobaldi, D. Turban, V. Vitale, K. A. Wilkinson,          |
 |  C. Weber, J. C. Womack, N. Yeung and T. J. Zuehlsdorff       |
 |                                                               |
 |                                   Copyright (c) 2004-2019     |
 |                                                               |
 |  Please cite:                                                 |
 |  "Introducing ONETEP: Linear-scaling density functional       |
 |   simulations on parallel computers".                         |
 |   C.-K. Skylaris, P. D. Haynes, A. A. Mostofi, M. C. Payne.   |
 |   J. Chem. Phys. 122 084119 (2005).                           |
 |                                                               |
 |          in all publications arising from your use of ONETEP. |
 |                                                               |
 +---------------------------------------------------------------+
 |                                                               |
 |   ONETEP is based on developments described in the following  |
 |   publications:                                               |
 |                                                               |
 |  "Nonorthogonal generalized Wannier function pseudopotential  |
 |   plane-wave method".                                         |
 |   C.-K. Skylaris, A. A. Mostofi, P. D. Haynes, O. Dieguez,    |
 |   M. C. Payne.                                                |
 |   Phys. Rev. B 66 035119 (2002).                              |
 |                                                               |
 |  "Preconditioned iterative minimization for linear-scaling    |
 |   electronic structure calculations".                         |
 |   A. A. Mostofi, P. D. Haynes, C.-K. Skylaris, M. C. Payne.   |
 |   J. Chem. Phys. 119(17), pp.8842-8848 (2003).                |
 |                                                               |
 |  "Total-energy calculations on a real space grid with         |
 |   localized functions and a plane-wave basis".                |
 |   A. A. Mostofi, C.-K. Skylaris, P. D. Haynes, M. C. Payne.   |
 |   Comput. Phys. Commun. 147, pp.788-802 (2002).               |
 |                                                               |
 |  "Accurate kinetic energy evaluation in electronic structure  |
 |   calculations with localized functions on real space grids"  |
 |   C.-K. Skylaris, A. A. Mostofi, P. D. Haynes, C. J. Pickard, |
 |   M. C. Payne.                                                |
 |   Comput. Phys. Commun. 140, pp.315-322 (2001).               |
 |                                                               |
 |  "Accurate ionic forces and geometry optimization in linear-  |
 |   scaling density-functional theory with local orbitals"      |
 |   N. D. M. Hine, M. Robinson, P. D. Haynes, C.-K. Skylaris,   |
 |   M. C. Payne, and A. A. Mostofi.                             |
 |   Phys. Rev. B 83 195102 (2011).                              |
 |                                                               |
 +---------------------------------------------------------------+

Job started: 18-07-2020 07:07 (+0100)
 
Reading parameters from file "complex_34301.dat" ...... done

If your calculation crashes here, before "Checking processes and threads..."
is displayed, then your stack size is insufficient.
If so, use "ulimit -s unlimited" at runtime.
You can disable this check with "check_stack_size F".

Checking processes and threads...
   Determining the default number of threads...
      No default threads set at compilation time: defaulting to 1.
      OpenMP library call suggests 4 threads.
      Hybrid MPI-OpenMP compilation detected.
      Number of MPI processes > 1.
      OMP_NUM_THREADS environment variable present and
      its value matches the one obtained from the OpenMP library call.
      Using this value as default.
      Default threads: 4
      Default applies to threads_max and threads_num_fftboxes.
      Settings in the input file override this default.
   ... done

   Running with 60 MPI processes.
   There are 6 MPI processes running on the same node as the root process.
   Each MPI process is using: 
               1 threads for simulation cell FFTs.
               1 threads for parallel FFT box operations.
               4 threads for loops over batched FFT box operations.
               4 threads in other parallel regions.
... done

Basic input checks...... done

Reading geometry and species blocks from file "complex_34301.dat" ...
  <species_atomic_set> block not found: NGWF initialisation set to SOLVE
IS: Dielectric excluded regions:
    - NONE.
    
  Number of PPD points along a3 set to 1.  This is 
  the default value, it may have been provided also in the input file.
... done
 Writing xyz coordinates to file "complex_34301.xyz" ... done


--------------------------------------------------------------------------------
---------------------------------- INPUT FILE ----------------------------------
--------------------------------------------------------------------------------

cutoff_energy       : 800 eV                                                    
xc_functional PBE                                                               
task SINGLEPOINT                                                                
write_xyz true                                                                  
output_detail VERBOSE                                                           
ngwf_threshold_orig : 0.000002                                                  
kernel_cutoff       : 1000                                                      
k_zero              : 3.5                                                       
elec_cg_max 0                                                                   
occ_mix 1.0                                                                     
dispersion 1                                                                    
maxit_ngwf_cg 40                                                                
minit_lnv 10                                                                    
maxit_lnv 10                                                                    
write_denskern T                                                                
write_tightbox_ngwfs T                                                          
charge 9                                                                        
is_implicit_solvent T                                                           
is_auto_solvation T                                                             
is_include_apolar T                                                             
is_smeared_ion_rep T                                                            
is_solvent_surf_tension 4.7624E-5 Ha/bohr**2                                    
is_apolar_scaling_factor 0.281075                                               
is_solvation_beta 1.3                                                           
is_density_threshold 0.00035                                                    
is_bulk_permittivity 78.54                                                      
is_dielectric_model fix_initial                                                 
is_smeared_ion_width 0.8                                                        
mg_defco_fd_order 8                                                             
is_bc_coarseness 10                                                             
is_bc_surface_coarseness 1                                                      
fine_grid_scale 2.0                                                             
%block species                                                                  
N   N   7 4 8.0                                                                 
H   H   1 1 8.0                                                                 
C   C   6 4 8.0                                                                 
S   S  16 9 8.0                                                                 
O   O   8 4 8.0                                                                 
Cl  Cl  17 9 8.0                                                                
%endblock species                                                               
%block species_pot                                                              
N   N_00.recpot                                                                 
H   H_04.recpot                                                                 
C   C_01.recpot                                                                 
S   S_00.recpot                                                                 
O   O_02.recpot                                                                 
Cl  chlorine.recpot                                                             
%endblock species_pot                                                           
%block lattice_cart                                                             
137.793   0.000   0.000                                                         
0.000 143.498   0.000                                                           
0.000   0.000   162.326                                                         
%endblock lattice_cart                                                          
%block positions_abs                                                            
     Hash =  -000001526889333142409521
%endblock positions_abs                                                         

--------------------------------------------------------------------------------
-------------------------------- END INPUT FILE --------------------------------
--------------------------------------------------------------------------------


 
 ESDF WARNING(1): "kernelcutoff" (esdf_physical) has no units. Assume "bohr".
 ESDF WARNING(2): "kzero" (esdf_physical) has no units. Assume "1/bohr".
 ESDF WARNING(3
 ): "issmearedionwidth" (esdf_physical) has no units. Assume "bohr".
<<<<<<<<<<<<<<<<<<<<<<<<<<<<<<<<< Full system >>>>>>>>>>>>>>>>>>>>>>>>>>>>>>>>>>
WARNING in pseudopotentials_read_species: string "LDA" found in pseudopotential
file "chlorine.recpot", yet xc_functional = "PBE".
 
<<<<<<<<<<<<<<<<<<<<<<<<< Pseudopotential information >>>>>>>>>>>>>>>>>>>>>>>>>>
File: N_00.recpot [ 2001 points up to Gmax=  52.9 (1/bohr)]
  Atomic number:  7;  ionic charge:  5.000000
    Shell 1: l = 0; rc = 1.48 bohr
File: H_04.recpot [ 2001 points up to Gmax=  52.9 (1/bohr)]
  Atomic number:  1;  ionic charge:  1.000000
    Local potential
File: C_01.recpot [ 2001 points up to Gmax=  52.9 (1/bohr)]
  Atomic number:  6;  ionic charge:  4.000000
    Shell 1: l = 0; rc = 1.48 bohr
File: S_00.recpot [ 2001 points up to Gmax=  52.9 (1/bohr)]
  Atomic number: 16;  ionic charge:  6.000000
    Shell 1: l = 0; rc = 1.90 bohr
    Shell 2: l = 2; rc = 1.84 bohr
File: O_02.recpot [ 2001 points up to Gmax=  52.9 (1/bohr)]
  Atomic number:  8;  ionic charge:  6.000000
    Shell 1: l = 0; rc = 1.31 bohr
File: chlorine.recpot [ 2001 points up to Gmax=  52.9 (1/bohr)]
  Atomic number: 17;  ionic charge:  7.000000
    Shell 1: l = 0; rc = 1.72 bohr
    Shell 2: l = 2; rc = 1.78 bohr
<<<<<<<<<<<<<<<<<<<<<<<<<<<<<<<<<<<<<<<<>>>>>>>>>>>>>>>>>>>>>>>>>>>>>>>>>>>>>>>>

-------------------------- Atom counting information ---------------------------
Symbol    Natoms    Nngwfs    Nprojs
  N        236       944       236
  H       1316      1316         0
  C        816      3264       816
  S          6        54        36
  O        240       960       240
  Cl         1         9         6
.......   ......    ......    ......
Totals:   2615      6547      1334
--------------------------------------------------------------------------------

=============================== PSINC grid sizes ===============================
                      Simulation cell:  273 x 286 x 320
                              FFT-box:   99 x  99 x  99
                                  PPD:    7 x  11 x   1
Grid space d1=  0.504736263736a0 (KE cutoff=  29.81776Eh = 811.38248eV)
Grid space d2=  0.501741258741a0 (KE cutoff=  30.17480Eh = 821.09803eV)
Grid space d3=  0.507268750000a0 (KE cutoff=  29.52078Eh = 803.30122eV)
================================================================================

********************* Fourier parallelisation information **********************
       Coarse grid (whole simulation cell) dimensions:    273   286   320
          Real-space ('12') slabs/node (min max mean):      5     6     5
         Recip-space ('23') slabs/node (min max mean):      2     3     2
********************************************************************************

********************* Fourier parallelisation information **********************
       Double grid (whole simulation cell) dimensions:    546   572   640
          Real-space ('12') slabs/node (min max mean):     10    11    10
         Recip-space ('23') slabs/node (min max mean):      4     5     4
********************************************************************************
ONETEP fine grid is 546 x 572 x 640 gridpoints, 137.7930 x 143.4980 x 162.3260 bohr.
FD multigrid is     545 x 569 x 633 gridpoints, 137.5406 x 142.7454 x 160.5506 bohr.


Calculating local pseudopotential in open BC on a radial grid ...
Discrepancy between calculated realspace psloc and -Z/x on [5a0,256.765a0]:
max |rel. diff| # avg |rel. diff| #  avg rel. diff #  f # pseudopotential file
 0.000264355666    0.000005356805   0.000000075547   55  'N_00.recpot'
 0.000427657517    0.000018087302  -0.000000066616   55  'H_04.recpot'
 0.000358839426    0.000016594043   0.000000139912   55  'C_01.recpot'
 0.000443229003    0.000019135969   0.000000483695   55  'S_00.recpot'
 0.000720897146    0.000029350350   0.000000143497   55  'O_02.recpot'
 0.000693253128    0.000030986455   0.000000348575   55  'chlorine.recpot'
... done

Atom SCF Calculation for N  : Z (AE atom) =   7 : Z (PS atom) =   5
Config String:
Orbitals (num,occ):  2     2.00 3.00
Orbitals   (num,l):  2        0    1
Real-space Grid (nr,dr,rmax): 1203    0.0066555740    8.0000000000
Spherical Bessel Basis (nsws,lmax,cutoff):   47    1  176.3951722778
Confining potential (l,width,scale):  0    3.0000000000  100.0000000000
Confining potential (l,width,scale):  1    3.0000000000  100.0000000000
  1         -4.7312375307   -3.4155304497    7.0523828109   -1.9351020946
  2         -9.7309464766   -2.0532547791    8.2966052865   -2.2494486027
  3         -9.6627394379   -2.1124926340    8.2327997121   -2.2369778124
  4         -9.6814993499   -2.1215521045    8.2229805960   -2.2365178421
  5         -9.6843326483   -2.1250939529    8.2191374534   -2.2362718126
  6         -9.6859628709   -2.1267894855    8.2172963573   -2.2362066344
  7         -9.6867347035   -2.1276425665    8.2163697352   -2.2361903369
  8         -9.6870802100   -2.1280764625    8.2158983890   -2.2361891460
  9         -9.6872290423   -2.1282977424    8.2156580222   -2.2361920435
 10         -9.6872901988   -2.1284107021    8.2155353368   -2.2361953393
 11         -9.6873135296   -2.1284684031    8.2154726809   -2.2361979819
 12         -9.6873212476   -2.1284978948    8.2154406648   -2.2361998431
 13         -9.6873229586   -2.1285129774    8.2154242957   -2.2362010676
 14         -9.6873226456   -2.1285206957    8.2154159216   -2.2362018403
 15         -9.6873218534   -2.1285246479    8.2154116349   -2.2362023142
 16         -9.6873212599   -2.1285262679    8.2154098784   -2.2362025420
 17         -9.6873207834   -2.1285272564    8.2154088068   -2.2362026955
 18         -9.6873204210   -2.1285278596    8.2154081529   -2.2362027982
 19         -9.6873201550   -2.1285282280    8.2154077538   -2.2362028667
 20         -9.6873199645   -2.1285284529    8.2154075102   -2.2362029121
 21         -9.6873198305   -2.1285285903    8.2154073614   -2.2362029421
 22         -9.6873197377   -2.1285286742    8.2154072705   -2.2362029618
Atom SCF converged after  22 iterations to a total energy of     -9.68731974

Atom SCF Calculation for H  : Z (AE atom) =   1 : Z (PS atom) =   1
Config String:
Orbitals (num,occ):  1     1.00
Orbitals   (num,l):  1        0
Real-space Grid (nr,dr,rmax): 1203    0.0066555740    8.0000000000
Spherical Bessel Basis (nsws,lmax,cutoff):   47    0  176.3951722778
Confining potential (l,width,scale):  0    3.0000000000  100.0000000000
  1         -0.3194257691   -0.2393854593    0.2820953124   -0.2424203209
  2         -0.3951823392   -0.2377116493    0.2886404059   -0.2475147891
  3         -0.4317044583   -0.2352244387    0.2921333887   -0.2514046172
  4         -0.4470703708   -0.2341892222    0.2934391879   -0.2531009782
  5         -0.4532132900   -0.2338556667    0.2938388426   -0.2537313520
  6         -0.4556579251   -0.2337612552    0.2939448584   -0.2539550462
  7         -0.4566418315   -0.2337377355    0.2939680120   -0.2540342273
  8         -0.4570437922   -0.2337331116    0.2939708287   -0.2540627372
  9         -0.4572102946   -0.2337328328    0.2939698291   -0.2540732650
 10         -0.4572800424   -0.2337332404    0.2939687193   -0.2540772588
 11         -0.4573095100   -0.2337335791    0.2939680317   -0.2540788122
 12         -0.4573220379   -0.2337337762    0.2939676699   -0.2540794294
 13         -0.4573273880   -0.2337338775    0.2939674931   -0.2540796787
 14         -0.4573296803   -0.2337339266    0.2939674099   -0.2540797808
 15         -0.4573306647   -0.2337339495    0.2939673718   -0.2540798230
 16         -0.4573310882   -0.2337339601    0.2939673545   -0.2540798406
 17         -0.4573312706   -0.2337339649    0.2939673467   -0.2540798479
 18         -0.4573313493   -0.2337339670    0.2939673433   -0.2540798510
Atom SCF converged after  18 iterations to a total energy of     -0.45733135

Atom SCF Calculation for C  : Z (AE atom) =   6 : Z (PS atom) =   4
Config String:
Orbitals (num,occ):  2     2.00 2.00
Orbitals   (num,l):  2        0    1
Real-space Grid (nr,dr,rmax): 1203    0.0066555740    8.0000000000
Spherical Bessel Basis (nsws,lmax,cutoff):   47    1  176.3951722778
Confining potential (l,width,scale):  0    3.0000000000  100.0000000000
Confining potential (l,width,scale):  1    3.0000000000  100.0000000000
  1         -5.2976922011   -1.3069684169    4.5135249990   -1.4493313817
  2         -5.3721716256   -1.3429755895    4.4750154450   -1.4361613026
  3         -5.3809959565   -1.3617365618    4.4541655428   -1.4305930207
  4         -5.3918938866   -1.3667928461    4.4484735100   -1.4294652294
  5         -5.3956096428   -1.3688539142    4.4461376126   -1.4290734646
  6         -5.3968271862   -1.3696852393    4.4451910874   -1.4289366866
  7         -5.3972028401   -1.3700178062    4.4448112275   -1.4288900460
  8         -5.3973067903   -1.3701500158    4.4446598370   -1.4288749220
  9         -5.3973286940   -1.3702023868    4.4445997329   -1.4288704293
 10         -5.3973289850   -1.3702230869    4.4445759233   -1.4288693188
 11         -5.3973254264   -1.3702312560    4.4445665049   -1.4288691775
 12         -5.3973224003   -1.3702344755    4.4445627836   -1.4288692549
 13         -5.3973208708   -1.3702354890    4.4445616088   -1.4288693270
 14         -5.3973198783   -1.3702360102    4.4445610034   -1.4288693814
 15         -5.3973192535   -1.3702362780    4.4445606917   -1.4288694190
 16         -5.3973188684   -1.3702364155    4.4445605313   -1.4288694437
 17         -5.3973186349   -1.3702364860    4.4445604489   -1.4288694595
 18         -5.3973184951   -1.3702365221    4.4445604065   -1.4288694693
 19         -5.3973184122   -1.3702365405    4.4445603848   -1.4288694753
Atom SCF converged after  19 iterations to a total energy of     -5.39731841

Atom SCF Calculation for S  : Z (AE atom) =  16 : Z (PS atom) =   6
Config String:
Orbitals (num,occ):  3     2.00 4.00 0.00
Orbitals   (num,l):  3        0    1    2
Real-space Grid (nr,dr,rmax): 1203    0.0066555740    8.0000000000
Spherical Bessel Basis (nsws,lmax,cutoff):   47    2  176.3951722778
Confining potential (l,width,scale):  0    3.0000000000  100.0000000000
Confining potential (l,width,scale):  1    3.0000000000  100.0000000000
Confining potential (l,width,scale):  2    3.0000000000  100.0000000000
  1        -12.4735062396   -1.0328741412   10.1554312477   -2.4512393157
  2         -9.9458301913   -2.4607392455    8.3041325857   -2.0306994528
  3        -10.1450417646   -2.2931184565    8.4831893826   -2.0812538287
  4        -10.1528335592   -2.2733105793    8.5050388867   -2.0896035179
  5        -10.1571940363   -2.2633716629    8.5160794258   -2.0939370707
  6        -10.1594380571   -2.2584938667    8.5215163935   -2.0961289008
  7        -10.1605856507   -2.2561081821    8.5241804044   -2.0972291378
  8        -10.1611799191   -2.2549395235    8.5254868240   -2.0977806248
  9        -10.1614918752   -2.2543658586    8.5261285885   -2.0980571586
 10        -10.1616572884   -2.2540839121    8.5264441898   -2.0981959233
 11        -10.1617455602   -2.2539453058    8.5265994231   -2.0982656006
 12        -10.1617928447   -2.2538772062    8.5266757320   -2.0983006047
 13        -10.1618182292   -2.2538437891    8.5267131983   -2.0983181961
 14        -10.1618318741   -2.2538274201    8.5267315620   -2.0983270391
 15        -10.1618392144   -2.2538194197    8.5267405433   -2.0983314852
 16        -10.1618431651   -2.2538155200    8.5267449245   -2.0983337210
 17        -10.1618452923   -2.2538136252    8.5267470551   -2.0983348455
 18        -10.1618464380   -2.2538127080    8.5267480875   -2.0983354110
 19        -10.1618470552   -2.2538122659    8.5267485856   -2.0983356955
 20        -10.1618473878   -2.2538120540    8.5267488248   -2.0983358386
 21        -10.1618475670   -2.2538119530    8.5267489389   -2.0983359106
 22        -10.1618476637   -2.2538119053    8.5267489929   -2.0983359468
Atom SCF converged after  22 iterations to a total energy of    -10.16184766

Atom SCF Calculation for O  : Z (AE atom) =   8 : Z (PS atom) =   6
Config String:
Orbitals (num,occ):  2     2.00 4.00
Orbitals   (num,l):  2        0    1
Real-space Grid (nr,dr,rmax): 1203    0.0066555740    8.0000000000
Spherical Bessel Basis (nsws,lmax,cutoff):   47    1  176.3951722778
Confining potential (l,width,scale):  0    3.0000000000  100.0000000000
Confining potential (l,width,scale):  1    3.0000000000  100.0000000000
  1         -1.8735052164   -7.5539365035   10.1554312477   -2.4512393157
  2        -16.0318313751   -3.1285771268   13.6395848164   -3.2358799643
  3        -15.9524020423   -3.0762819706   13.6967272503   -3.2536856837
  4        -15.8521515939   -3.0781493909   13.6951909330   -3.2561700440
  5        -15.8357139793   -3.0748501933   13.6988803334   -3.2580493133
  6        -15.8246052853   -3.0740779781   13.6997881576   -3.2588327446
  7        -15.8189019501   -3.0737449687   13.7001869911   -3.2592378801
  8        -15.8159785510   -3.0736026016   13.7003615168   -3.2594475790
  9        -15.8144776168   -3.0735437994   13.7004360379   -3.2595560735
 10        -15.8137058024   -3.0735207882   13.7004667348   -3.2596122456
 11        -15.8133083127   -3.0735125946   13.7004786868   -3.2596413656
 12        -15.8131032938   -3.0735102195   13.7004828997   -3.2596564858
 13        -15.8129973902   -3.0735099286   13.7004840891   -3.2596643505
 14        -15.8129426040   -3.0735102506   13.7004842061   -3.2596684489
 15        -15.8129142203   -3.0735106556   13.7004840157   -3.2596705887
 16        -15.8128994940   -3.0735109855   13.7004837906   -3.2596717080
 17        -15.8128918425   -3.0735112169   13.7004836103   -3.2596722946
 18        -15.8128878614   -3.0735113674   13.7004834848   -3.2596726026
 19        -15.8128857871   -3.0735114608   13.7004834035   -3.2596727646
 20        -15.8128847048   -3.0735115170   13.7004833533   -3.2596728500
 21        -15.8128841394   -3.0735115501   13.7004833231   -3.2596728951
 22        -15.8128838436   -3.0735115693   13.7004833054   -3.2596729190
 23        -15.8128836887   -3.0735115802   13.7004832951   -3.2596729316
 24        -15.8128836074   -3.0735115864   13.7004832893   -3.2596729383
Atom SCF converged after  24 iterations to a total energy of    -15.81288361

Atom SCF Calculation for Cl : Z (AE atom) =  17 : Z (PS atom) =   7
Config String:
Orbitals (num,occ):  3     2.00 5.00 0.00
Orbitals   (num,l):  3        0    1    2
Real-space Grid (nr,dr,rmax): 1203    0.0066555740    8.0000000000
Spherical Bessel Basis (nsws,lmax,cutoff):   47    2  176.3951722778
Confining potential (l,width,scale):  0    3.0000000000  100.0000000000
Confining potential (l,width,scale):  1    3.0000000000  100.0000000000
Confining potential (l,width,scale):  2    3.0000000000  100.0000000000
  1        -16.8444261800   -2.1962100444   13.8226703094   -2.9941905181
  2        -14.7918510722   -3.2647395528   12.5772031268   -2.7486356845
  3        -15.0408459996   -3.0830885982   12.7711824681   -2.7985322562
  4        -15.0258990028   -3.0805758938   12.7746252245   -2.8028400439
  5        -15.0247989138   -3.0762001284   12.7796720593   -2.8059543251
  6        -15.0249225108   -3.0742888229   12.7818510263   -2.8073220423
  7        -15.0250462958   -3.0731699753   12.7831228196   -2.8081724567
  8        -15.0251282307   -3.0725244678   12.7838557365   -2.8086978828
  9        -15.0251775299   -3.0721537651   12.7842766981   -2.8090219799
 10        -15.0252069190   -3.0719409277   12.7845186566   -2.8092219886
 11        -15.0252248401   -3.0718185631   12.7846580195   -2.8093455898
 12        -15.0252360996   -3.0717481031   12.7847384649   -2.8094221024
 13        -15.0252433539   -3.0717074830   12.7847849814   -2.8094695492
 14        -15.0252481059   -3.0716840518   12.7848119089   -2.8094990225
 15        -15.0252512461   -3.0716705364   12.7848275045   -2.8095173612
 16        -15.0252533273   -3.0716627451   12.7848365368   -2.8095287899
 17        -15.0252547058   -3.0716582588   12.7848417653   -2.8095359231
 18        -15.0252556164   -3.0716556794   12.7848447893   -2.8095403819
 19        -15.0252562158   -3.0716541993   12.7848465363   -2.8095431730
 20        -15.0252566087   -3.0716533521   12.7848475441   -2.8095449225
 21        -15.0252568652   -3.0716528683   12.7848481246   -2.8095460206
 22        -15.0252570320   -3.0716525930   12.7848484583   -2.8095467108
 23        -15.0252571401   -3.0716524369   12.7848486497   -2.8095471451
 24        -15.0252572099   -3.0716523486   12.7848487593   -2.8095474188
Atom SCF converged after  24 iterations to a total energy of    -15.02525721

========================== Calculation in vacuum ==============================
= Adjusting the following parameters: 
= is_implicit_solvent: F
= is_include_apolar: F
= write_denskern: T
= write_tightbox_ngwfs: T
= restart read filename prefix: ""
= restart write filename prefix: "vacuum_"
===============================================================================

Determining parallel strategy ...
... using space-filling curve
... NGWF load balancing: max    110;  min    109;  average    109
... Projector load balancing: max     26;  min     21;  average     22
... done
Calculating direct Ion-Ion energy ...
Ion-Ion Energy        :    834160.73845251603052
======================= Empirical dispersion information =======================
Model : Elstner
WARNING: Unoptimised dispersion parameters used for Cl
Dispersion Correction Energy: -0.32698142E+01 Hartree
================================================================================
Basis initialisation ...... NGWF spheres initialised
... Projector spheres initialised
... NGWF tight boxes initialised
... Tight-boxes gathered
... NGWF basis size (local,global):     935895  56122281
... Nonlocal pseudopotential projector initialisation
... done

========================== Sparse matrix information ===========================
                        Overlap matrix filling:   6.72%
                        Density kernel filling: 100.00%
              NGWF-Proj overlap matrix filling:   1.76%
                    Hamiltonian matrix filling:   7.59%
                  NGWF diagonal matrix filling:   0.05%
                             KS matrix filling: 100.00% 
                           KSKS matrix filling: 100.00% 
================================================================================

Sparse matrix initialisation ... done

Generating smeared ion density ... done
Smeared ion self correction:     -14549.923644
Smeared ion non-self correction: -834112.298769
NGWF initialisation ...... done
============ Calculation of NGWF S^-1 using Hotelling algorithm ================ 
         Iteration  |  Frobenius norm and Maximum abs value    (of I-S*S_n^-1)   
               1       0.78727013E+02     0.98258569E+00
               2       0.76866135E+02     0.96564075E+00
               3       0.73854977E+02     0.93305995E+00
               4       0.69578032E+02     0.87256382E+00
               5       0.64252553E+02     0.76769634E+00
               6       0.58266852E+02     0.70859180E+00
               7       0.52247106E+02     0.67435034E+00
               8       0.46685886E+02     0.64666395E+00
               9       0.40611007E+02     0.60588770E+00
              10       0.32335166E+02     0.53575388E+00
              11       0.21742546E+02     0.42248102E+00
              12       0.11111948E+02     0.26858935E+00
              13       0.36599184E+01     0.12144755E+00
              14       0.57429603E+00     0.28760534E-01
              15       0.26107794E-01     0.19671384E-02
              16       0.12081948E-03     0.12621565E-04
              17       0.43994065E-08     0.65687067E-09
              18       0.94531081E-13     0.62172489E-14
================================================================================
Calculating local pseudopotential in open BC on the fine real space grid ...
... done

MG BCs: +ve charge blocks (gridpoints):     20557 (   16112836).
MG BCs: -ve charge blocks (gridpoints):      8036 (    1082952).
MG BCs:     Elided blocks (gridpoints):    180083 (  179100677).
MG BCs: Computational effort saved:  99.9854%.
MG BCs: Charge after coarse-graining:           -9.0002274.
MG DL_MG: Calling solver with defect correction order = 8
MG DL_MG: Solver finished
MG Hartree energy from (\int phi*rho dr):              1475.714828
MG Hartree energy from (\int eps (grad phi)^2 dr):     1475.099803
MG Discrepancy due to finite box and discretization:     -0.615025 (  -0.04168%)
MG Correction to account for finite box:                  0.461653
MG Remaining discrepancy, due to discretization:         -0.153373 (  -0.01039%)
Up spin density kernel initialisation ... 
======= Optimisation of K by Palser-Manolopoulos canonical purification ======== 
         Iteration  |  Band structure energy |    c_n   
               1       -2593.74873084109277    0.5266453
               2       -2770.94440903108352    0.5168856
               3       -2952.46110459893634    0.5152890
               4       -3103.89371546261464    0.5288689
               5       -3196.89204084881476    0.5649623
               6       -3235.68931585077735    0.6103368
               7       -3248.84211185152026    0.6231262
               8       -3254.54049072964153    0.6232659
               9       -3257.30928047199723    0.6393925
              10       -3258.47011674028363    0.6690212
              11       -3258.92648777647719    0.6972417
              12       -3259.12263901582355    0.7149306
              13       -3259.22018732540801    0.7129284
              14       -3259.27701016166520    0.6891541
              15       -3259.31468863712598    0.6675007
              16       -3259.33738296902220    0.6375555
              17       -3259.35038875634473    0.6045449
              18       -3259.35711302768141    0.6048107
              19       -3259.35969319476953    0.6259611
              20       -3259.36063380571477    0.6120082
              21       -3259.36116748705354    0.5781156
              22       -3259.36154821315176    0.5404724
              23       -3259.36179482212674    0.5114988
              24       -3259.36189544351691    0.5009404
              25       -3259.36190968628216    0.5000060
              26       -3259.36190994955814    0.5000060
Termination criterion satisfied: band energy change below threshold.
Final occupancy bounds: [    0.00000000000195:    0.99999999999810]
Closest occupancy to 0.5:     0.99999999999975
================================================================================
... done

Writing density kernel to file "complex_34301.vacuum_dkn" ... done

>>> Optimising kernel for current NGWFs:
   Initial electron number for spin 1:    7234.00000000
     Final electron number for spin 1:    7234.00000000

=================== Penalty functional idempotency correction ==================
 RMS occupancy error at iteration   1:  0.000000 (step -0.5000 Ne1=   7234.0000)
            Final RMS occupancy error   :  0.000000 (Ne1=   7234.0000)
               Final occupancy bounds   : [ -0.0000,  1.0000]
================================================================================

................................................................................
<<<<<<<<<<<<<< LNV (Original version) density kernel optimisation >>>>>>>>>>>>>>
~~~~~~~~~~~~~~~~~~~~~~~~~~~~~~~~~~~~~~~~~~~~~~~~~~~~~~~~~~~~~~~~~~~~~~~~~~~~~~~~
   iter  |      energy (Eh)       | rms gradient |  commutator  |   dE (Eh)
MG BCs: +ve charge blocks (gridpoints):     30683 (   17251465).
MG BCs: -ve charge blocks (gridpoints):      8389 (    1116215).
MG BCs:     Elided blocks (gridpoints):    169948 (  177928785).
MG BCs: Computational effort saved:  99.9801%.
MG BCs: Charge after coarse-graining:           -9.0009416.
MG DL_MG: Calling solver with defect correction order = 8
MG DL_MG: Solver finished
MG Hartree energy from (\int phi*rho dr):              1430.634382
MG Hartree energy from (\int eps (grad phi)^2 dr):     1429.955969
MG Discrepancy due to finite box and discretization:     -0.678413 (  -0.04742%)
MG Correction to account for finite box:                  0.481310
MG Remaining discrepancy, due to discretization:         -0.197103 (  -0.01378%)
      ideal mu1:      -0.707517305831
             Q0:  -11573.769566582632
             G0:    -145.285218984335
   RMS gradient:       0.001841061835
MG BCs: +ve charge blocks (gridpoints):     30676 (   17333828).
MG BCs: -ve charge blocks (gridpoints):      8283 (    1095837).
MG BCs:     Elided blocks (gridpoints):    169956 (  177866800).
MG BCs: Computational effort saved:  99.9802%.
MG BCs: Charge after coarse-graining:           -9.0009617.
MG DL_MG: Calling solver with defect correction order = 8
MG DL_MG: Solver finished
MG Hartree energy from (\int phi*rho dr):              1455.963276
MG Hartree energy from (\int eps (grad phi)^2 dr):     1455.303386
MG Discrepancy due to finite box and discretization:     -0.659890 (  -0.04532%)
MG Correction to account for finite box:                  0.478949
MG Remaining discrepancy, due to discretization:         -0.180941 (  -0.01243%)
     Trial step:       0.500000000000
             Q1:  -11585.275582427275
 Quadratic coef:      61.136593647525
 Linear coef   :     -72.642609492168
           Qmin:  -11595.348086087068
Quadratic minimum step length (  0.297050445397) accepted
    Initial Ne1:    7234.00000000
      Final Ne1:    7234.00000000

=================== Penalty functional idempotency correction ==================
 RMS occupancy error at iteration   1:  0.003394 (step -0.4885 Ne1=   7234.0000)
 RMS occupancy error at iteration   2:  0.000027 (step -0.5001 Ne1=   7234.0000)
            Final RMS occupancy error   :  0.000000 (Ne1=   7234.0000)
               Final occupancy bounds   : [  0.0000,  1.0000]
================================================================================

    1        -1.157376956658E+04     1.8411E-03     1.6662E-03
MG BCs: +ve charge blocks (gridpoints):     30673 (   17302386).
MG BCs: -ve charge blocks (gridpoints):      8329 (    1104347).
MG BCs:     Elided blocks (gridpoints):    169959 (  177889732).
MG BCs: Computational effort saved:  99.9801%.
MG BCs: Charge after coarse-graining:           -9.0009532.
MG DL_MG: Calling solver with defect correction order = 8
MG DL_MG: Solver finished
MG Hartree energy from (\int phi*rho dr):              1437.731953
MG Hartree energy from (\int eps (grad phi)^2 dr):     1437.065517
MG Discrepancy due to finite box and discretization:     -0.666436 (  -0.04635%)
MG Correction to account for finite box:                  0.479783
MG Remaining discrepancy, due to discretization:         -0.186653 (  -0.01298%)
      ideal mu1:      -0.751424743786
             Q0:  -11595.747742823325
             G0:     -12.244369841483
   RMS gradient:       0.000530888017
MG BCs: +ve charge blocks (gridpoints):     30681 (   17319409).
MG BCs: -ve charge blocks (gridpoints):      8313 (    1099066).
MG BCs:     Elided blocks (gridpoints):    169951 (  177877990).
MG BCs: Computational effort saved:  99.9801%.
MG BCs: Charge after coarse-graining:           -9.0009564.
MG DL_MG: Calling solver with defect correction order = 8
MG DL_MG: Solver finished
MG Hartree energy from (\int phi*rho dr):              1443.011596
MG Hartree energy from (\int eps (grad phi)^2 dr):     1442.349805
MG Discrepancy due to finite box and discretization:     -0.661791 (  -0.04586%)
MG Correction to account for finite box:                  0.478359
MG Remaining discrepancy, due to discretization:         -0.183432 (  -0.01271%)
     Trial step:       0.385389702377
             Q1:  -11598.607578250696
 Quadratic coef:       1.859018621635
 Linear coef   :      -4.718854049006
           Qmin:  -11598.742277584390
Quadratic minimum step length (  0.489128440227) accepted
    Initial Ne1:    7233.99989161
      Final Ne1:    7234.00000000

=================== Penalty functional idempotency correction ==================
 RMS occupancy error at iteration   1:  0.001798 (step -0.4931 Ne1=   7234.0000)
 RMS occupancy error at iteration   2:  0.000011 (step -0.5001 Ne1=   7234.0000)
            Final RMS occupancy error   :  0.000000 (Ne1=   7234.0000)
               Final occupancy bounds   : [  0.0000,  1.0000]
================================================================================

    2        -1.159574774282E+04     5.3089E-04     4.8047E-04    -2.1978E+01
MG BCs: +ve charge blocks (gridpoints):     30683 (   17323850).
MG BCs: -ve charge blocks (gridpoints):      8305 (    1097660).
MG BCs:     Elided blocks (gridpoints):    169949 (  177874955).
MG BCs: Computational effort saved:  99.9801%.
MG BCs: Charge after coarse-graining:           -9.0009574.
MG DL_MG: Calling solver with defect correction order = 8
MG DL_MG: Solver finished
MG Hartree energy from (\int phi*rho dr):              1444.480569
MG Hartree energy from (\int eps (grad phi)^2 dr):     1443.819948
MG Discrepancy due to finite box and discretization:     -0.660621 (  -0.04573%)
MG Correction to account for finite box:                  0.477993
MG Remaining discrepancy, due to discretization:         -0.182628 (  -0.01264%)
      ideal mu1:      -0.774686964653
             Q0:  -11598.779916663538
             G0:      -1.954247214871
   RMS gradient:       0.000212130017
MG BCs: +ve charge blocks (gridpoints):     30682 (   17323292).
MG BCs: -ve charge blocks (gridpoints):      8307 (    1098754).
MG BCs:     Elided blocks (gridpoints):    169950 (  177874419).
MG BCs: Computational effort saved:  99.9801%.
MG BCs: Charge after coarse-graining:           -9.0009570.
MG DL_MG: Calling solver with defect correction order = 8
MG DL_MG: Solver finished
MG Hartree energy from (\int phi*rho dr):              1442.184324
MG Hartree energy from (\int eps (grad phi)^2 dr):     1441.524510
MG Discrepancy due to finite box and discretization:     -0.659814 (  -0.04575%)
MG Correction to account for finite box:                  0.477400
MG Remaining discrepancy, due to discretization:         -0.182414 (  -0.01265%)
     Trial step:       0.434171698759
             Q1:  -11599.277275718749
 Quadratic coef:       0.351119777866
 Linear coef   :      -0.848478833076
           Qmin:  -11599.292502663786
Quadratic minimum step length (  0.524586650397) accepted
    Initial Ne1:    7233.99994753
      Final Ne1:    7234.00000000

=================== Penalty functional idempotency correction ==================
 RMS occupancy error at iteration   1:  0.000633 (step -0.4972 Ne1=   7234.0000)
 RMS occupancy error at iteration   2:  0.000002 (step -0.5000 Ne1=   7234.0000)
            Final RMS occupancy error   :  0.000000 (Ne1=   7234.0000)
               Final occupancy bounds   : [  0.0000,  1.0000]
================================================================================

    3        -1.159877991666E+04     2.1213E-04     1.9198E-04    -3.0322E+00
MG BCs: +ve charge blocks (gridpoints):     30685 (   17323218).
MG BCs: -ve charge blocks (gridpoints):      8306 (    1098949).
MG BCs:     Elided blocks (gridpoints):    169947 (  177874298).
MG BCs: Computational effort saved:  99.9801%.
MG BCs: Charge after coarse-graining:           -9.0009570.
MG DL_MG: Calling solver with defect correction order = 8
MG DL_MG: Solver finished
MG Hartree energy from (\int phi*rho dr):              1441.715589
MG Hartree energy from (\int eps (grad phi)^2 dr):     1441.055932
MG Discrepancy due to finite box and discretization:     -0.659657 (  -0.04575%)
MG Correction to account for finite box:                  0.477278
MG Remaining discrepancy, due to discretization:         -0.182379 (  -0.01265%)
      ideal mu1:      -0.775166524660
             Q0:  -11599.297326095868
             G0:      -0.505333129258
   RMS gradient:       0.000108022113
MG BCs: +ve charge blocks (gridpoints):     30687 (   17324461).
MG BCs: -ve charge blocks (gridpoints):      8308 (    1098671).
MG BCs:     Elided blocks (gridpoints):    169945 (  177873333).
MG BCs: Computational effort saved:  99.9801%.
MG BCs: Charge after coarse-graining:           -9.0009569.
MG DL_MG: Calling solver with defect correction order = 8
MG DL_MG: Solver finished
MG Hartree energy from (\int phi*rho dr):              1442.993207
MG Hartree energy from (\int eps (grad phi)^2 dr):     1442.333665
MG Discrepancy due to finite box and discretization:     -0.659542 (  -0.04571%)
MG Correction to account for finite box:                  0.477049
MG Remaining discrepancy, due to discretization:         -0.182493 (  -0.01265%)
     Trial step:       0.477242786377
             Q1:  -11599.420391397667
 Quadratic coef:       0.118101288857
 Linear coef   :      -0.241166590656
           Qmin:  -11599.420443559300
Quadratic minimum step length (  0.487272479493) accepted
    Initial Ne1:    7233.99998731
      Final Ne1:    7234.00000000

=================== Penalty functional idempotency correction ==================
 RMS occupancy error at iteration   1:  0.000258 (step -0.4975 Ne1=   7234.0000)
 RMS occupancy error at iteration   2:  0.000002 (step -0.5000 Ne1=   7234.0000)
            Final RMS occupancy error   :  0.000000 (Ne1=   7234.0000)
               Final occupancy bounds   : [  0.0000,  1.0000]
================================================================================

    4        -1.159929732610E+04     1.0802E-04     9.7763E-05    -5.1741E-01
MG BCs: +ve charge blocks (gridpoints):     30687 (   17324496).
MG BCs: -ve charge blocks (gridpoints):      8308 (    1098657).
MG BCs:     Elided blocks (gridpoints):    169945 (  177873312).
MG BCs: Computational effort saved:  99.9801%.
MG BCs: Charge after coarse-graining:           -9.0009569.
MG DL_MG: Calling solver with defect correction order = 8
MG DL_MG: Solver finished
MG Hartree energy from (\int phi*rho dr):              1443.020491
MG Hartree energy from (\int eps (grad phi)^2 dr):     1442.360951
MG Discrepancy due to finite box and discretization:     -0.659540 (  -0.04571%)
MG Correction to account for finite box:                  0.477044
MG Remaining discrepancy, due to discretization:         -0.182496 (  -0.01265%)
      ideal mu1:      -0.775628771606
             Q0:  -11599.421058666543
             G0:      -0.175712055095
   RMS gradient:       0.000063868995
MG BCs: +ve charge blocks (gridpoints):     30684 (   17324583).
MG BCs: -ve charge blocks (gridpoints):      8306 (    1098521).
MG BCs:     Elided blocks (gridpoints):    169948 (  177873361).
MG BCs: Computational effort saved:  99.9801%.
MG BCs: Charge after coarse-graining:           -9.0009569.
MG DL_MG: Calling solver with defect correction order = 8
MG DL_MG: Solver finished
MG Hartree energy from (\int phi*rho dr):              1443.426193
MG Hartree energy from (\int eps (grad phi)^2 dr):     1442.766619
MG Discrepancy due to finite box and discretization:     -0.659573 (  -0.04569%)
MG Correction to account for finite box:                  0.476926
MG Remaining discrepancy, due to discretization:         -0.182647 (  -0.01265%)
     Trial step:       0.482231558318
             Q1:  -11599.475007484551
 Quadratic coef:       0.030785080136
 Linear coef   :      -0.084733898144
           Qmin:  -11599.479364779951
Quadratic minimum step length (  0.663655244087) accepted
    Initial Ne1:    7233.99999401
      Final Ne1:    7234.00000000

=================== Penalty functional idempotency correction ==================
 RMS occupancy error at iteration   1:  0.000309 (step -0.4858 Ne1=   7234.0000)
 RMS occupancy error at iteration   2:  0.000005 (step -0.5001 Ne1=   7234.0000)
            Final RMS occupancy error   :  0.000000 (Ne1=   7234.0000)
               Final occupancy bounds   : [  0.0000,  1.0000]
================================================================================

    5        -1.159942105867E+04     6.3869E-05     5.7803E-05    -1.2373E-01
MG BCs: +ve charge blocks (gridpoints):     30686 (   17324721).
MG BCs: -ve charge blocks (gridpoints):      8305 (    1098422).
MG BCs:     Elided blocks (gridpoints):    169946 (  177873322).
MG BCs: Computational effort saved:  99.9801%.
MG BCs: Charge after coarse-graining:           -9.0009569.
MG DL_MG: Calling solver with defect correction order = 8
MG DL_MG: Solver finished
MG Hartree energy from (\int phi*rho dr):              1443.577451
MG Hartree energy from (\int eps (grad phi)^2 dr):     1442.917868
MG Discrepancy due to finite box and discretization:     -0.659583 (  -0.04569%)
MG Correction to account for finite box:                  0.476879
MG Remaining discrepancy, due to discretization:         -0.182704 (  -0.01266%)
      ideal mu1:      -0.775610994897
             Q0:  -11599.479252180783
             G0:      -0.142862551150
   RMS gradient:       0.000057837413
MG BCs: +ve charge blocks (gridpoints):     30687 (   17324202).
MG BCs: -ve charge blocks (gridpoints):      8308 (    1098795).
MG BCs:     Elided blocks (gridpoints):    169945 (  177873468).
MG BCs: Computational effort saved:  99.9801%.
MG BCs: Charge after coarse-graining:           -9.0009566.
MG DL_MG: Calling solver with defect correction order = 8
MG DL_MG: Solver finished
MG Hartree energy from (\int phi*rho dr):              1442.422310
MG Hartree energy from (\int eps (grad phi)^2 dr):     1441.762930
MG Discrepancy due to finite box and discretization:     -0.659380 (  -0.04571%)
MG Correction to account for finite box:                  0.476689
MG Remaining discrepancy, due to discretization:         -0.182691 (  -0.01267%)
     Trial step:       0.565716804190
             Q1:  -11599.543858943740
 Quadratic coef:       0.016212982919
 Linear coef   :      -0.080819745875
           Qmin:  -11599.579971329074
Quadratic minimum step length (  1.410014695663) accepted
    Initial Ne1:    7233.99995639
      Final Ne1:    7234.00000000

=================== Penalty functional idempotency correction ==================
 RMS occupancy error at iteration   1:  0.003026 (step -0.3567 Ne1=   7234.0000)
 RMS occupancy error at iteration   2:  0.000229 (step -0.4935 Ne1=   7234.0000)
 RMS occupancy error at iteration   3:  0.000004 (step -0.5000 Ne1=   7234.0000)
            Final RMS occupancy error   :  0.000000 (Ne1=   7234.0000)
               Final occupancy bounds   : [  0.0000,  1.0000]
================================================================================

    6        -1.159947925218E+04     5.7837E-05     5.2345E-05    -5.8194E-02
MG BCs: +ve charge blocks (gridpoints):     30689 (   17323337).
MG BCs: -ve charge blocks (gridpoints):      8314 (    1099338).
MG BCs:     Elided blocks (gridpoints):    169943 (  177873790).
MG BCs: Computational effort saved:  99.9801%.
MG BCs: Charge after coarse-graining:           -9.0009563.
MG DL_MG: Calling solver with defect correction order = 8
MG DL_MG: Solver finished
MG Hartree energy from (\int phi*rho dr):              1440.684975
MG Hartree energy from (\int eps (grad phi)^2 dr):     1440.025925
MG Discrepancy due to finite box and discretization:     -0.659050 (  -0.04575%)
MG Correction to account for finite box:                  0.476382
MG Remaining discrepancy, due to discretization:         -0.182668 (  -0.01268%)
      ideal mu1:      -0.775568240338
             Q0:  -11599.556017798372
             G0:      -0.371707669557
   RMS gradient:       0.000093123313
MG BCs: +ve charge blocks (gridpoints):     30685 (   17326310).
MG BCs: -ve charge blocks (gridpoints):      8296 (    1097582).
MG BCs:     Elided blocks (gridpoints):    169947 (  177872573).
MG BCs: Computational effort saved:  99.9801%.
MG BCs: Charge after coarse-graining:           -9.0009575.
MG DL_MG: Calling solver with defect correction order = 8
MG DL_MG: Solver finished
MG Hartree energy from (\int phi*rho dr):              1445.110075
MG Hartree energy from (\int eps (grad phi)^2 dr):     1444.451316
MG Discrepancy due to finite box and discretization:     -0.658759 (  -0.04559%)
MG Correction to account for finite box:                  0.476247
MG Remaining discrepancy, due to discretization:         -0.182512 (  -0.01263%)
     Trial step:       0.893123175990
             Q1:  -11599.625278976746
 Quadratic coef:       0.262719556000
 Linear coef   :      -0.331980734375
           Qmin:  -11599.660893135475
Quadratic minimum step length (  0.564289336445) accepted
    Initial Ne1:    7233.99999901
      Final Ne1:    7234.00000000

=================== Penalty functional idempotency correction ==================
 RMS occupancy error at iteration   1:  0.000151 (step -0.4908 Ne1=   7234.0000)
 RMS occupancy error at iteration   2:  0.000001 (step -0.5000 Ne1=   7234.0000)
            Final RMS occupancy error   :  0.000000 (Ne1=   7234.0000)
               Final occupancy bounds   : [  0.0000,  1.0000]
================================================================================

    7        -1.159955601780E+04     9.3123E-05     8.4280E-05    -7.6766E-02
MG BCs: +ve charge blocks (gridpoints):     30686 (   17325219).
MG BCs: -ve charge blocks (gridpoints):      8304 (    1098178).
MG BCs:     Elided blocks (gridpoints):    169946 (  177873068).
MG BCs: Computational effort saved:  99.9801%.
MG BCs: Charge after coarse-graining:           -9.0009571.
MG DL_MG: Calling solver with defect correction order = 8
MG DL_MG: Solver finished
MG Hartree energy from (\int phi*rho dr):              1443.470652
MG Hartree energy from (\int eps (grad phi)^2 dr):     1442.811787
MG Discrepancy due to finite box and discretization:     -0.658865 (  -0.04564%)
MG Correction to account for finite box:                  0.476298
MG Remaining discrepancy, due to discretization:         -0.182567 (  -0.01265%)
      ideal mu1:      -0.776693671230
             Q0:  -11599.661151748616
             G0:      -0.252607447644
   RMS gradient:       0.000076669879
MG BCs: +ve charge blocks (gridpoints):     30687 (   17325228).
MG BCs: -ve charge blocks (gridpoints):      8305 (    1098152).
MG BCs:     Elided blocks (gridpoints):    169945 (  177873085).
MG BCs: Computational effort saved:  99.9801%.
MG BCs: Charge after coarse-graining:           -9.0009573.
MG DL_MG: Calling solver with defect correction order = 8
MG DL_MG: Solver finished
MG Hartree energy from (\int phi*rho dr):              1443.587660
MG Hartree energy from (\int eps (grad phi)^2 dr):     1442.929077
MG Discrepancy due to finite box and discretization:     -0.658582 (  -0.04562%)
MG Correction to account for finite box:                  0.476177
MG Remaining discrepancy, due to discretization:         -0.182405 (  -0.01264%)
     Trial step:       0.709915406470
             Q1:  -11599.774434925173
 Quadratic coef:       0.066046742315
 Linear coef   :      -0.179329918871
           Qmin:  -11599.782880764595
Quadratic minimum step length (  0.963780103194) accepted
    Initial Ne1:    7233.99999875
      Final Ne1:    7234.00000000

=================== Penalty functional idempotency correction ==================
 RMS occupancy error at iteration   1:  0.001717 (step -0.4113 Ne1=   7234.0000)
 RMS occupancy error at iteration   2:  0.000060 (step -0.4984 Ne1=   7234.0000)
 RMS occupancy error at iteration   3:  0.000000 (step -0.5000 Ne1=   7234.0000)
            Final RMS occupancy error   :  0.000000 (Ne1=   7234.0000)
               Final occupancy bounds   : [  0.0000,  1.0000]
================================================================================

    8        -1.159966115175E+04     7.6670E-05     6.9389E-05    -1.0513E-01
MG BCs: +ve charge blocks (gridpoints):     30686 (   17325317).
MG BCs: -ve charge blocks (gridpoints):      8309 (    1098132).
MG BCs:     Elided blocks (gridpoints):    169946 (  177873016).
MG BCs: Computational effort saved:  99.9801%.
MG BCs: Charge after coarse-graining:           -9.0009573.
MG DL_MG: Calling solver with defect correction order = 8
MG DL_MG: Solver finished
MG Hartree energy from (\int phi*rho dr):              1443.632730
MG Hartree energy from (\int eps (grad phi)^2 dr):     1442.974244
MG Discrepancy due to finite box and discretization:     -0.658486 (  -0.04561%)
MG Correction to account for finite box:                  0.476137
MG Remaining discrepancy, due to discretization:         -0.182349 (  -0.01263%)
      ideal mu1:      -0.776660129088
             Q0:  -11599.778170337318
             G0:      -0.342358540248
   RMS gradient:       0.000091047589
MG BCs: +ve charge blocks (gridpoints):     30687 (   17324219).
MG BCs: -ve charge blocks (gridpoints):      8312 (    1098983).
MG BCs:     Elided blocks (gridpoints):    169945 (  177873263).
MG BCs: Computational effort saved:  99.9801%.
MG BCs: Charge after coarse-graining:           -9.0009569.
MG DL_MG: Calling solver with defect correction order = 8
MG DL_MG: Solver finished
MG Hartree energy from (\int phi*rho dr):              1441.579039
MG Hartree energy from (\int eps (grad phi)^2 dr):     1440.920759
MG Discrepancy due to finite box and discretization:     -0.658280 (  -0.04566%)
MG Correction to account for finite box:                  0.476108
MG Remaining discrepancy, due to discretization:         -0.182172 (  -0.01264%)
     Trial step:       0.827165245707
             Q1:  -11599.851792242960
 Quadratic coef:       0.209565180423
 Linear coef   :      -0.283187086065
           Qmin:  -11599.873838574704
Quadratic minimum step length (  0.558877469895) accepted
    Initial Ne1:    7233.99999897
      Final Ne1:    7234.00000000

=================== Penalty functional idempotency correction ==================
 RMS occupancy error at iteration   1:  0.003948 (step -0.3390 Ne1=   7234.0000)
 RMS occupancy error at iteration   2:  0.000194 (step -0.4956 Ne1=   7234.0000)
 RMS occupancy error at iteration   3:  0.000003 (step -0.5000 Ne1=   7234.0000)
            Final RMS occupancy error   :  0.000000 (Ne1=   7234.0000)
               Final occupancy bounds   : [  0.0000,  1.0000]
================================================================================

    9        -1.159977817034E+04     9.1048E-05     8.2401E-05    -1.1702E-01
MG BCs: +ve charge blocks (gridpoints):     30687 (   17324477).
MG BCs: -ve charge blocks (gridpoints):      8310 (    1098692).
MG BCs:     Elided blocks (gridpoints):    169945 (  177873296).
MG BCs: Computational effort saved:  99.9801%.
MG BCs: Charge after coarse-graining:           -9.0009572.
MG DL_MG: Calling solver with defect correction order = 8
MG DL_MG: Solver finished
MG Hartree energy from (\int phi*rho dr):              1442.239248
MG Hartree energy from (\int eps (grad phi)^2 dr):     1441.580962
MG Discrepancy due to finite box and discretization:     -0.658286 (  -0.04564%)
MG Correction to account for finite box:                  0.476069
MG Remaining discrepancy, due to discretization:         -0.182217 (  -0.01263%)
      ideal mu1:      -0.775692510522
   10        -1.159988454900E+04     7.5583E-05     6.8405E-05    -1.0638E-01
Finished density kernel iterations (  10)

Writing density kernel to file "complex_34301.vacuum_dkn" ... done


>>> Density kernel optimised for the current NGWF basis:
     ~~~~~~~~~~~~~~~~~~~~~~~~~~~~~~~~~~~~~~~~~~~~~~~~~~~~~~~~~~~
     Total energy                =  -1.15998845490037E+04  Eh
     Estimated bandgap           =  -4.2518E-01  Eh
     RMS occupancy error         =   1.3944E-09
     [H,K] commutator            =   6.8405E-05
     Occupancy bounds            = [  0.000:  1.000]
     ~~~~~~~~~~~~~~~~~~~~~~~~~~~~~~~~~~~~~~~~~~~~~~~~~~~~~~~~~~~




################################################################################
########################### NGWF CG iteration  001 #############################
################################################################################
****** Reciprocal space K.E. preconditioning with k_zero =  3.5000 a0^-1 *******

>>> Checking for convergence of NGWFs:   NOT CONVERGED
  ========================================================================
         NGWF RMS gradient =  1.5955E-03 >  2.0000E-06  | above tolerance
  ========================================================================

>>> Improving NGWFs using line search:
============ Calculation of NGWF S^-1 using Hotelling algorithm ================ 
         Iteration  |  Frobenius norm and Maximum abs value    (of I-S*S_n^-1)   
               1       0.19960458E+00     0.55480063E-02
               2       0.93190408E-03     0.50257922E-04
               3       0.35748927E-07     0.41081467E-08
               4       0.12923756E-12     0.53290705E-14
================================================================================
MG BCs: +ve charge blocks (gridpoints):     30244 (   17272264).
MG BCs: -ve charge blocks (gridpoints):      8315 (    1098442).
MG BCs:     Elided blocks (gridpoints):    170388 (  177925759).
MG BCs: Computational effort saved:  99.9804%.
MG BCs: Charge after coarse-graining:           -9.0009621.
MG DL_MG: Calling solver with defect correction order = 8
MG DL_MG: Solver finished
MG Hartree energy from (\int phi*rho dr):              1410.258547
MG Hartree energy from (\int eps (grad phi)^2 dr):     1409.601231
MG Discrepancy due to finite box and discretization:     -0.657316 (  -0.04661%)
MG Correction to account for finite box:                  0.475924
MG Remaining discrepancy, due to discretization:         -0.181392 (  -0.01286%)
============ Calculation of NGWF S^-1 using Hotelling algorithm ================ 
         Iteration  |  Frobenius norm and Maximum abs value    (of I-S*S_n^-1)   
               1       0.18549303E+01     0.45435479E-01
               2       0.71720750E-01     0.30079911E-02
               3       0.15029898E-03     0.14812709E-04
               4       0.14269536E-08     0.36908931E-09
               5       0.10967525E-12     0.57731597E-14
================================================================================
------------------------------- NGWF line search -------------------------------
RMS gradient                =       0.00159545510640
Trial step length           =               0.122474
Gradient along search dir.  =       -278.21955643903
Functional at step 0        =  -11599.88454900367651
Functional at step 1        =  -11631.35002320841886
Functional predicted        =  -11711.12908429107301
Selected quadratic step     =               0.799689
--------------------------- NGWF line search finished --------------------------
                                               
Writing NGWFs to file "complex_34301.vacuum_tightbox_ngwfs"....  done

>>> Optimising kernel for current NGWFs:
   Initial electron number for spin 1:    7268.85376981
     Final electron number for spin 1:    7234.00000000

=================== Penalty functional idempotency correction ==================
 RMS occupancy error at iteration   1:  0.004321 (step -0.4857 Ne1=   7234.0000)
 RMS occupancy error at iteration   2:  0.000072 (step -0.5003 Ne1=   7234.0000)
            Final RMS occupancy error   :  0.000000 (Ne1=   7234.0000)
               Final occupancy bounds   : [  0.0000,  1.0000]
================================================================================

................................................................................
<<<<<<<<<<<<<< LNV (Original version) density kernel optimisation >>>>>>>>>>>>>>
~~~~~~~~~~~~~~~~~~~~~~~~~~~~~~~~~~~~~~~~~~~~~~~~~~~~~~~~~~~~~~~~~~~~~~~~~~~~~~~~
   iter  |      energy (Eh)       | rms gradient |  commutator  |   dE (Eh)
MG BCs: +ve charge blocks (gridpoints):     24783 (   17005338).
MG BCs: -ve charge blocks (gridpoints):      8477 (    1082066).
MG BCs:     Elided blocks (gridpoints):    175857 (  178209061).
MG BCs: Computational effort saved:  99.9831%.
MG BCs: Charge after coarse-graining:           -9.0006633.
MG DL_MG: Calling solver with defect correction order = 8
MG DL_MG: Solver finished
MG Hartree energy from (\int phi*rho dr):              1255.620706
MG Hartree energy from (\int eps (grad phi)^2 dr):     1254.964016
MG Discrepancy due to finite box and discretization:     -0.656691 (  -0.05230%)
MG Correction to account for finite box:                  0.475223
MG Remaining discrepancy, due to discretization:         -0.181468 (  -0.01445%)
      ideal mu1:      -0.715555991299
             Q0:  -11710.331946577760
             G0:      -9.755683437293
   RMS gradient:       0.000477074835
MG BCs: +ve charge blocks (gridpoints):     24839 (   17019095).
MG BCs: -ve charge blocks (gridpoints):      8452 (    1078452).
MG BCs:     Elided blocks (gridpoints):    175801 (  178198918).
MG BCs: Computational effort saved:  99.9830%.
MG BCs: Charge after coarse-graining:           -9.0006592.
MG DL_MG: Calling solver with defect correction order = 8
MG DL_MG: Solver finished
MG Hartree energy from (\int phi*rho dr):              1270.179545
MG Hartree energy from (\int eps (grad phi)^2 dr):     1269.517889
MG Discrepancy due to finite box and discretization:     -0.661657 (  -0.05209%)
MG Correction to account for finite box:                  0.474563
MG Remaining discrepancy, due to discretization:         -0.187094 (  -0.01473%)
     Trial step:       0.679914715024
             Q1:  -11710.172341410536
 Quadratic coef:       6.792637891354
 Linear coef   :      -6.633032724131
           Qmin:  -11711.951241019151
Quadratic minimum step length (  0.331969451817) accepted
    Initial Ne1:    7233.99955960
      Final Ne1:    7234.00000000

=================== Penalty functional idempotency correction ==================
 RMS occupancy error at iteration   1:  0.000354 (step -0.4986 Ne1=   7234.0000)
 RMS occupancy error at iteration   2:  0.000000 (step -0.5000 Ne1=   7234.0000)
            Final RMS occupancy error   :  0.000000 (Ne1=   7234.0000)
               Final occupancy bounds   : [  0.0000,  1.0000]
================================================================================

    1        -1.171033194658E+04     4.7707E-04     4.3177E-04
MG BCs: +ve charge blocks (gridpoints):     24811 (   17012186).
MG BCs: -ve charge blocks (gridpoints):      8456 (    1080330).
MG BCs:     Elided blocks (gridpoints):    175829 (  178203949).
MG BCs: Computational effort saved:  99.9831%.
MG BCs: Charge after coarse-graining:           -9.0006612.
MG DL_MG: Calling solver with defect correction order = 8
MG DL_MG: Solver finished
MG Hartree energy from (\int phi*rho dr):              1261.890008
MG Hartree energy from (\int eps (grad phi)^2 dr):     1261.230982
MG Discrepancy due to finite box and discretization:     -0.659026 (  -0.05223%)
MG Correction to account for finite box:                  0.474875
MG Remaining discrepancy, due to discretization:         -0.184150 (  -0.01459%)
      ideal mu1:      -0.721754359808
             Q0:  -11711.929326211684
             G0:      -1.083993939409
   RMS gradient:       0.000159544081
MG BCs: +ve charge blocks (gridpoints):     24816 (   17011613).
MG BCs: -ve charge blocks (gridpoints):      8459 (    1081156).
MG BCs:     Elided blocks (gridpoints):    175824 (  178203696).
MG BCs: Computational effort saved:  99.9830%.
MG BCs: Charge after coarse-graining:           -9.0006611.
MG DL_MG: Calling solver with defect correction order = 8
MG DL_MG: Solver finished
MG Hartree energy from (\int phi*rho dr):              1262.796657
MG Hartree energy from (\int eps (grad phi)^2 dr):     1262.137313
MG Discrepancy due to finite box and discretization:     -0.659344 (  -0.05221%)
MG Correction to account for finite box:                  0.474768
MG Remaining discrepancy, due to discretization:         -0.184577 (  -0.01462%)
     Trial step:       0.475090428475
             Q1:  -11712.167331767036
 Quadratic coef:       0.276989589787
 Linear coef   :      -0.514995145139
           Qmin:  -11712.168703438569
Quadratic minimum step length (  0.441657869443) accepted
    Initial Ne1:    7233.99993446
      Final Ne1:    7234.00000000

=================== Penalty functional idempotency correction ==================
 RMS occupancy error at iteration   1:  0.000177 (step -0.4986 Ne1=   7234.0000)
 RMS occupancy error at iteration   2:  0.000001 (step -0.5000 Ne1=   7234.0000)
            Final RMS occupancy error   :  0.000000 (Ne1=   7234.0000)
               Final occupancy bounds   : [  0.0000,  1.0000]
================================================================================

    2        -1.171192932621E+04     1.5954E-04     1.4439E-04    -1.5974E+00
MG BCs: +ve charge blocks (gridpoints):     24816 (   17011664).
MG BCs: -ve charge blocks (gridpoints):      8459 (    1081093).
MG BCs:     Elided blocks (gridpoints):    175824 (  178203708).
MG BCs: Computational effort saved:  99.9830%.
MG BCs: Charge after coarse-graining:           -9.0006611.
MG DL_MG: Calling solver with defect correction order = 8
MG DL_MG: Solver finished
MG Hartree energy from (\int phi*rho dr):              1262.732879
MG Hartree energy from (\int eps (grad phi)^2 dr):     1262.073558
MG Discrepancy due to finite box and discretization:     -0.659321 (  -0.05221%)
MG Correction to account for finite box:                  0.474775
MG Remaining discrepancy, due to discretization:         -0.184546 (  -0.01461%)
      ideal mu1:      -0.722565328224
             Q0:  -11712.169231551816
             G0:      -0.197359413089
   RMS gradient:       0.000067782087
MG BCs: +ve charge blocks (gridpoints):     24814 (   17010761).
MG BCs: -ve charge blocks (gridpoints):      8465 (    1081615).
MG BCs:     Elided blocks (gridpoints):    175826 (  178204089).
MG BCs: Computational effort saved:  99.9830%.
MG BCs: Charge after coarse-graining:           -9.0006612.
MG DL_MG: Calling solver with defect correction order = 8
MG DL_MG: Solver finished
MG Hartree energy from (\int phi*rho dr):              1262.090465
MG Hartree energy from (\int eps (grad phi)^2 dr):     1261.431277
MG Discrepancy due to finite box and discretization:     -0.659189 (  -0.05223%)
MG Correction to account for finite box:                  0.474665
MG Remaining discrepancy, due to discretization:         -0.184524 (  -0.01462%)
     Trial step:       0.458069237598
             Q1:  -11712.232343383948
 Quadratic coef:       0.027292443754
 Linear coef   :      -0.090404275886
           Qmin:  -11712.244095982904
Quadratic minimum step length (  0.758660860565) accepted
    Initial Ne1:    7233.99997965
      Final Ne1:    7234.00000000

=================== Penalty functional idempotency correction ==================
 RMS occupancy error at iteration   1:  0.000263 (step -0.4867 Ne1=   7234.0000)
 RMS occupancy error at iteration   2:  0.000003 (step -0.5000 Ne1=   7234.0000)
            Final RMS occupancy error   :  0.000000 (Ne1=   7234.0000)
               Final occupancy bounds   : [  0.0000,  1.0000]
================================================================================

    3        -1.171216923155E+04     6.7782E-05     6.1345E-05    -2.3991E-01
MG BCs: +ve charge blocks (gridpoints):     24811 (   17010210).
MG BCs: -ve charge blocks (gridpoints):      8469 (    1081971).
MG BCs:     Elided blocks (gridpoints):    175829 (  178204284).
MG BCs: Computational effort saved:  99.9830%.
MG BCs: Charge after coarse-graining:           -9.0006612.
MG DL_MG: Calling solver with defect correction order = 8
MG DL_MG: Solver finished
MG Hartree energy from (\int phi*rho dr):              1261.669461
MG Hartree energy from (\int eps (grad phi)^2 dr):     1261.010360
MG Discrepancy due to finite box and discretization:     -0.659101 (  -0.05224%)
MG Correction to account for finite box:                  0.474590
MG Remaining discrepancy, due to discretization:         -0.184511 (  -0.01462%)
      ideal mu1:      -0.721145769586
             Q0:  -11712.244029839407
             G0:      -0.091038037708
   RMS gradient:       0.000046090286
MG BCs: +ve charge blocks (gridpoints):     24811 (   17010248).
MG BCs: -ve charge blocks (gridpoints):      8471 (    1081860).
MG BCs:     Elided blocks (gridpoints):    175829 (  178204357).
MG BCs: Computational effort saved:  99.9830%.
MG BCs: Charge after coarse-graining:           -9.0006612.
MG DL_MG: Calling solver with defect correction order = 8
MG DL_MG: Solver finished
MG Hartree energy from (\int phi*rho dr):              1261.714628
MG Hartree energy from (\int eps (grad phi)^2 dr):     1261.055838
MG Discrepancy due to finite box and discretization:     -0.658790 (  -0.05221%)
MG Correction to account for finite box:                  0.474428
MG Remaining discrepancy, due to discretization:         -0.184362 (  -0.01461%)
     Trial step:       0.589507592821
             Q1:  -11712.277312126593
 Quadratic coef:       0.020385327278
 Linear coef   :      -0.053667614465
           Qmin:  -11712.279351970898
Quadratic minimum step length (  0.775986222450) accepted
    Initial Ne1:    7233.99998940
      Final Ne1:    7234.00000000

=================== Penalty functional idempotency correction ==================
 RMS occupancy error at iteration   1:  0.000488 (step -0.4720 Ne1=   7234.0000)
 RMS occupancy error at iteration   2:  0.000005 (step -0.5000 Ne1=   7234.0000)
            Final RMS occupancy error   :  0.000000 (Ne1=   7234.0000)
               Final occupancy bounds   : [  0.0000,  1.0000]
================================================================================

    4        -1.171224402984E+04     4.6090E-05     4.1713E-05    -7.4798E-02
MG BCs: +ve charge blocks (gridpoints):     24811 (   17010254).
MG BCs: -ve charge blocks (gridpoints):      8470 (    1081853).
MG BCs:     Elided blocks (gridpoints):    175829 (  178204358).
MG BCs: Computational effort saved:  99.9830%.
MG BCs: Charge after coarse-graining:           -9.0006612.
MG DL_MG: Calling solver with defect correction order = 8
MG DL_MG: Solver finished
MG Hartree energy from (\int phi*rho dr):              1261.731246
MG Hartree energy from (\int eps (grad phi)^2 dr):     1261.072556
MG Discrepancy due to finite box and discretization:     -0.658690 (  -0.05221%)
MG Correction to account for finite box:                  0.474375
MG Remaining discrepancy, due to discretization:         -0.184315 (  -0.01461%)
      ideal mu1:      -0.721182679821
             Q0:  -11712.279327584431
             G0:      -0.084358458589
   RMS gradient:       0.000044245789
MG BCs: +ve charge blocks (gridpoints):     24810 (   17011920).
MG BCs: -ve charge blocks (gridpoints):      8467 (    1081240).
MG BCs:     Elided blocks (gridpoints):    175830 (  178203305).
MG BCs: Computational effort saved:  99.9830%.
MG BCs: Charge after coarse-graining:           -9.0006609.
MG DL_MG: Calling solver with defect correction order = 8
MG DL_MG: Solver finished
MG Hartree energy from (\int phi*rho dr):              1262.792338
MG Hartree energy from (\int eps (grad phi)^2 dr):     1262.134024
MG Discrepancy due to finite box and discretization:     -0.658314 (  -0.05213%)
MG Correction to account for finite box:                  0.474078
MG Remaining discrepancy, due to discretization:         -0.184237 (  -0.01459%)
     Trial step:       0.676350330864
             Q1:  -11712.309960911516
 Quadratic coef:       0.026422544292
 Linear coef   :      -0.057055871378
           Qmin:  -11712.310128672536
Quadratic minimum step length (  0.730243027665) accepted
    Initial Ne1:    7233.99999125
      Final Ne1:    7234.00000000

=================== Penalty functional idempotency correction ==================
 RMS occupancy error at iteration   1:  0.001090 (step -0.4415 Ne1=   7234.0000)
 RMS occupancy error at iteration   2:  0.000018 (step -0.4998 Ne1=   7234.0000)
            Final RMS occupancy error   :  0.000000 (Ne1=   7234.0000)
               Final occupancy bounds   : [  0.0000,  1.0000]
================================================================================

    5        -1.171227932758E+04     4.4246E-05     4.0044E-05    -3.5298E-02
MG BCs: +ve charge blocks (gridpoints):     24810 (   17012070).
MG BCs: -ve charge blocks (gridpoints):      8468 (    1081188).
MG BCs:     Elided blocks (gridpoints):    175830 (  178203207).
MG BCs: Computational effort saved:  99.9830%.
MG BCs: Charge after coarse-graining:           -9.0006609.
MG DL_MG: Calling solver with defect correction order = 8
MG DL_MG: Solver finished
MG Hartree energy from (\int phi*rho dr):              1262.877741
MG Hartree energy from (\int eps (grad phi)^2 dr):     1262.219452
MG Discrepancy due to finite box and discretization:     -0.658289 (  -0.05213%)
MG Correction to account for finite box:                  0.474059
MG Remaining discrepancy, due to discretization:         -0.184230 (  -0.01459%)
      ideal mu1:      -0.722110898225
             Q0:  -11712.310579902376
             G0:      -0.056944729624
   RMS gradient:       0.000035723619
MG BCs: +ve charge blocks (gridpoints):     24813 (   17011910).
MG BCs: -ve charge blocks (gridpoints):      8469 (    1081314).
MG BCs:     Elided blocks (gridpoints):    175827 (  178203241).
MG BCs: Computational effort saved:  99.9830%.
MG BCs: Charge after coarse-graining:           -9.0006610.
MG DL_MG: Calling solver with defect correction order = 8
MG DL_MG: Solver finished
MG Hartree energy from (\int phi*rho dr):              1262.564671
MG Hartree energy from (\int eps (grad phi)^2 dr):     1261.906701
MG Discrepancy due to finite box and discretization:     -0.657970 (  -0.05211%)
MG Correction to account for finite box:                  0.473701
MG Remaining discrepancy, due to discretization:         -0.184269 (  -0.01459%)
     Trial step:       0.702780273892
             Q1:  -11712.336091353674
 Quadratic coef:       0.014508181384
 Linear coef   :      -0.040019632682
           Qmin:  -11712.338177623924
Quadratic minimum step length (  0.969280975758) accepted
    Initial Ne1:    7234.00006576
      Final Ne1:    7234.00000000

=================== Penalty functional idempotency correction ==================
 RMS occupancy error at iteration   1:  0.001851 (step -0.4083 Ne1=   7234.0000)
 RMS occupancy error at iteration   2:  0.000045 (step -0.4993 Ne1=   7234.0000)
 RMS occupancy error at iteration   3:  0.000000 (step -0.5000 Ne1=   7234.0000)
            Final RMS occupancy error   :  0.000000 (Ne1=   7234.0000)
               Final occupancy bounds   : [  0.0000,  1.0000]
================================================================================

    6        -1.171231057990E+04     3.5724E-05     3.2331E-05    -3.1252E-02
MG BCs: +ve charge blocks (gridpoints):     24813 (   17011894).
MG BCs: -ve charge blocks (gridpoints):      8469 (    1081354).
MG BCs:     Elided blocks (gridpoints):    175827 (  178203217).
MG BCs: Computational effort saved:  99.9830%.
MG BCs: Charge after coarse-graining:           -9.0006609.
MG DL_MG: Calling solver with defect correction order = 8
MG DL_MG: Solver finished
MG Hartree energy from (\int phi*rho dr):              1262.448125
MG Hartree energy from (\int eps (grad phi)^2 dr):     1261.790255
MG Discrepancy due to finite box and discretization:     -0.657870 (  -0.05211%)
MG Correction to account for finite box:                  0.473587
MG Remaining discrepancy, due to discretization:         -0.184283 (  -0.01460%)
      ideal mu1:      -0.721717464204
             Q0:  -11712.338817088632
             G0:      -0.054784370039
   RMS gradient:       0.000035750819
MG BCs: +ve charge blocks (gridpoints):     24808 (   17010472).
[...]

    7        -1.174742044299E+04     1.0708E-08     9.6912E-09    -3.6089E-09

Reusing previously generated solute cavity.
MG BCs: +ve charge blocks (gridpoints):     28949 (   19221841).
MG BCs: -ve charge blocks (gridpoints):      8451 (    1050578).
MG BCs:     Elided blocks (gridpoints):    171691 (  176024046).
MG BCs: Computational effort saved:  99.9809%.
MG BCs: Charge after coarse-graining:           -9.0009344.
MG DL_MG: Calling solver with defect correction order = 8
MG DL_MG: Solver finished
MG Hartree energy from (\int phi*rho dr):              1219.707457
MG Hartree energy from (\int eps (grad phi)^2 dr):     1219.517468
MG Discrepancy due to finite box and discretization:     -0.189990 (  -0.01558%)
MG Correction to account for finite box:                  0.006434
MG Remaining discrepancy, due to discretization:         -0.183556 (  -0.01505%)
      ideal mu1:      -0.481464697319
             Q0:  -11747.420442994451
             G0:      -0.000000005173
   RMS gradient:       0.000000008303

Reusing previously generated solute cavity.
MG BCs: +ve charge blocks (gridpoints):     28949 (   19221841).
MG BCs: -ve charge blocks (gridpoints):      8451 (    1050578).
MG BCs:     Elided blocks (gridpoints):    171691 (  176024046).
MG BCs: Computational effort saved:  99.9809%.
MG BCs: Charge after coarse-graining:           -9.0009344.
MG DL_MG: Calling solver with defect correction order = 8
MG DL_MG: Solver finished
MG Hartree energy from (\int phi*rho dr):              1219.707496
MG Hartree energy from (\int eps (grad phi)^2 dr):     1219.517507
MG Discrepancy due to finite box and discretization:     -0.189990 (  -0.01558%)
MG Correction to account for finite box:                  0.006434
MG Remaining discrepancy, due to discretization:         -0.183556 (  -0.01505%)
     Trial step:       0.313461080474
             Q1:  -11747.420442996197
 Quadratic coef:      -0.000000000126
 Linear coef   :      -0.000000001622
         Quadratic fit unsuccessful: proceeding to cubic fit

Reusing previously generated solute cavity.
MG BCs: +ve charge blocks (gridpoints):     28949 (   19221840).
MG BCs: -ve charge blocks (gridpoints):      8451 (    1050578).
MG BCs:     Elided blocks (gridpoints):    171691 (  176024047).
MG BCs: Computational effort saved:  99.9809%.
MG BCs: Charge after coarse-graining:           -9.0009344.
MG DL_MG: Calling solver with defect correction order = 8
MG DL_MG: Solver finished
MG Hartree energy from (\int phi*rho dr):              1219.707535
MG Hartree energy from (\int eps (grad phi)^2 dr):     1219.517546
MG Discrepancy due to finite box and discretization:     -0.189990 (  -0.01558%)
MG Correction to account for finite box:                  0.006434
MG Remaining discrepancy, due to discretization:         -0.183556 (  -0.01505%)
             Q2:  -11747.420442996779
  Cubic LS coeff:       0.553445174664
Predicted energy:  -11747.420442996858
Cubic minimum step length accepted
    Initial Ne1:    7234.00000000
      Final Ne1:    7234.00000000

=================== Penalty functional idempotency correction ==================
 RMS occupancy error at iteration   1:  0.000000 (step -0.5000 Ne1=   7234.0000)
            Final RMS occupancy error   :  0.000000 (Ne1=   7234.0000)
               Final occupancy bounds   : [  0.0000,  1.0000]
================================================================================

    8        -1.174742044299E+04     8.3033E-09     7.5148E-09    -1.0477E-09

Reusing previously generated solute cavity.
MG BCs: +ve charge blocks (gridpoints):     28949 (   19221841).
MG BCs: -ve charge blocks (gridpoints):      8451 (    1050578).
MG BCs:     Elided blocks (gridpoints):    171691 (  176024046).
MG BCs: Computational effort saved:  99.9809%.
MG BCs: Charge after coarse-graining:           -9.0009344.
MG DL_MG: Calling solver with defect correction order = 8
MG DL_MG: Solver finished
MG Hartree energy from (\int phi*rho dr):              1219.707526
MG Hartree energy from (\int eps (grad phi)^2 dr):     1219.517537
MG Discrepancy due to finite box and discretization:     -0.189990 (  -0.01558%)
MG Correction to account for finite box:                  0.006434
MG Remaining discrepancy, due to discretization:         -0.183556 (  -0.01505%)
      ideal mu1:      -0.481464771094
             Q0:  -11747.420442996779
             G0:      -0.000000002800
   RMS gradient:       0.000000011177

Reusing previously generated solute cavity.
MG BCs: +ve charge blocks (gridpoints):     28949 (   19221840).
MG BCs: -ve charge blocks (gridpoints):      8451 (    1050578).
MG BCs:     Elided blocks (gridpoints):    171691 (  176024047).
MG BCs: Computational effort saved:  99.9809%.
MG BCs: Charge after coarse-graining:           -9.0009344.
MG DL_MG: Calling solver with defect correction order = 8
MG DL_MG: Solver finished
MG Hartree energy from (\int phi*rho dr):              1219.707574
MG Hartree energy from (\int eps (grad phi)^2 dr):     1219.517584
MG Discrepancy due to finite box and discretization:     -0.189990 (  -0.01558%)
MG Correction to account for finite box:                  0.006434
MG Remaining discrepancy, due to discretization:         -0.183556 (  -0.01505%)
     Trial step:       0.416513532113
             Q1:  -11747.420442997362
 Quadratic coef:       0.000000000584
 Linear coef   :      -0.000000001166
           Qmin:  -11747.420442997362
Quadratic minimum step length (  0.415930387268) accepted
    Initial Ne1:    7234.00000000
      Final Ne1:    7234.00000000

=================== Penalty functional idempotency correction ==================
 RMS occupancy error at iteration   1:  0.000000 (step -0.5000 Ne1=   7234.0000)
            Final RMS occupancy error   :  0.000000 (Ne1=   7234.0000)
               Final occupancy bounds   : [ -0.0000,  1.0000]
================================================================================

    9        -1.174742044300E+04     1.1177E-08     1.0116E-08    -2.3283E-09

Reusing previously generated solute cavity.
MG BCs: +ve charge blocks (gridpoints):     28949 (   19221840).
MG BCs: -ve charge blocks (gridpoints):      8451 (    1050578).
MG BCs:     Elided blocks (gridpoints):    171691 (  176024047).
MG BCs: Computational effort saved:  99.9809%.
MG BCs: Charge after coarse-graining:           -9.0009344.
MG DL_MG: Calling solver with defect correction order = 8
MG DL_MG: Solver finished
MG Hartree energy from (\int phi*rho dr):              1219.707574
MG Hartree energy from (\int eps (grad phi)^2 dr):     1219.517584
MG Discrepancy due to finite box and discretization:     -0.189990 (  -0.01558%)
MG Correction to account for finite box:                  0.006434
MG Remaining discrepancy, due to discretization:         -0.183556 (  -0.01505%)
      ideal mu1:      -0.481464811158
   10        -1.174742044300E+04     1.7649E-08     1.5973E-08    -6.9849E-10
Finished density kernel iterations (  10)

Writing density kernel to file "complex_34301.dkn" ... done


>>> Density kernel optimised for the current NGWF basis:
     ~~~~~~~~~~~~~~~~~~~~~~~~~~~~~~~~~~~~~~~~~~~~~~~~~~~~~~~~~~~
     Total energy                =  -1.17474204429975E+04  Eh
     Estimated bandgap           =   7.3833E-02  Eh
     RMS occupancy error         =   6.1726E-16
     [H,K] commutator            =   1.5973E-08
     Occupancy bounds            = [ -0.000:  1.000]
     ~~~~~~~~~~~~~~~~~~~~~~~~~~~~~~~~~~~~~~~~~~~~~~~~~~~~~~~~~~~




################################################################################
########################### NGWF CG iteration  004 #############################
################################################################################
****** Reciprocal space K.E. preconditioning with k_zero =  3.5000 a0^-1 *******

>>> Checking for convergence of NGWFs: 
           ........................................................
           |         *** NGWF optimisation converged ***          |
           | RMS NGWF gradient =    0.00000193118949              |
           | Criteria satisfied:                                  |
           | -> RMS NGWF gradient lower than set threshold.       |
           ========================================================

Reusing previously generated solute cavity.
MG BCs: +ve charge blocks (gridpoints):     28949 (   19221840).
MG BCs: -ve charge blocks (gridpoints):      8451 (    1050578).
MG BCs:     Elided blocks (gridpoints):    171691 (  176024047).
MG BCs: Computational effort saved:  99.9809%.
MG BCs: Charge after coarse-graining:           -9.0009344.
MG DL_MG: Calling solver with defect correction order = 8
MG DL_MG: Solver finished
MG Hartree energy from (\int phi*rho dr):              1219.707574
MG Hartree energy from (\int eps (grad phi)^2 dr):     1219.517584
MG Discrepancy due to finite box and discretization:     -0.189990 (  -0.01558%)
MG Correction to account for finite box:                  0.006434
MG Remaining discrepancy, due to discretization:         -0.183556 (  -0.01505%)

================================================================================
           ---------------- ENERGY COMPONENTS (Eh) ----------------
           | Kinetic                    :     8578.76194200052851 |
           | Pseudo. (local,OBC,corr'd) :    -5074.45615639009611 |
           | Pseudopotential (non-local):     1410.11243982085171 |
           | Hartree (molecular)        :     1219.70757398845558 |
           | Exchange-correlation       :    -3377.45233001027646 |
           | Ion-ion (open BC)          :   834160.73845251603052 |
           | Dispersion Correction      :       -3.26981422828889 |
           | Smeared ion non-self corr. :  -834112.29876857448835 |
           | Smeared ion self corr.     :   -14549.92364409075344 |
           | Solvent cavitation energy  :        2.34763664718621 |
           | Solute-solvent dis-rep en. :       -1.68777467657834 |
           | Total                      :   -11747.42044299733061 |
           --------------------------------------------------------
           ------ LOCAL ENERGY COMPONENTS FROM MATRIX TRACES ------
           | Pseudopotential (local)    :    -5074.45615639010521 |
           | Hartree                    :    -2005.11221175337550 |
           --------------------------------------------------------
           Integrated density           :     7233.99999999898046
           Integrated density tr(KS)    :     7233.99999999999818
================================================================================


                        <<<<< CALCULATION SUMMARY >>>>>                         
|ITER|    RMS GRADIENT   |     TOTAL ENERGY    |   step   |     Epredicted              
   0     0.00004219258758 -11747.34844603587408   0.642584 -11747.41096199939784        
   1     0.00000922084730 -11747.42002467042767   0.074354 -11747.42037015810820        
   2     0.00000420208692 -11747.42042695672717   0.014583 -11747.42044102886757        
   3     0.00000193118949 -11747.42044299747795  <-- CG                                 

=================== Finished the calculation in solvent ========================
= Adjusting the following parameters: 
= read_denskern: F
= read_tightbox_ngwfs: F
= maxit_pen: 0 (restored to user-specified value)
= restart read filename prefix: ""
= restart write filename prefix: ""
================================================================================

================================================================================
IS: Calculation in solvent completed (NGWFs converged).      

Individual components of total energy in solvent:     hartree           kcal/mol
- Usual non-electrostatic DFT terms:    -12967.78787895654023    -8137409.575144
- Electrostatic fixed charge energy:      1219.70757398845558      765378.041659
- Apolar cavitation energy:                  2.34763664718621        1473.164206
- Apolar dispersion-repulsion energy:       -1.68777467657834       -1059.094577
 -------------------------------------------------------------------------------
- Total energy in solvent:              -11747.42044299747795    -7371617.463855

Components of total energy in solvent:                hartree           kcal/mol
- Usual non-electrostatic DFT terms:    -12967.78787895654023    -8137409.575144
- Electrostatic energy:                   1219.70757398845558      765378.041659
- Apolar energy terms:                       0.65986197060786         414.069629
 -------------------------------------------------------------------------------
- Total energy in solvent:              -11747.42044299747795    -7371617.463855

Calculation of free energy of solvation:              hartree           kcal/mol
- Total energy in solvent:         (+)  -11747.42044299747795    -7371617.463855
- Total energy in vacuum:          (-)  -11743.40068316366524    -7369095.026531
 -------------------------------------------------------------------------------
- Total free energy of solvation:           -4.01975983381271       -2522.437324

Components of polar term in f.e. of solvation:        hartree           kcal/mol
- Electrostatic:                            -4.74449377156179       -2977.214727
- Change in nonelectrostatic DFT terms:      0.06487196714261          40.707773
 -------------------------------------------------------------------------------
- Polar term in f.e. of solvation:          -4.67962180441918       -2936.506954

Components of free energy of solvation:               hartree           kcal/mol
- Polar term in f.e. of solvation: (+)      -4.67962180441918       -2936.506954
- Apolar (cavitation, dis., rep.): (+)       0.65986197060786         414.069629
 -------------------------------------------------------------------------------
- Total free energy of solvation:           -4.01975983381132       -2522.437324
================================================================================


------------------------------ TIMING INFORMATION ------------------------------
AVERAGE TIME:   29716.997s on     60 node(s)                                    
TOTAL TIME:     29716.998s on     60 node(s)                                    
================= AVERAGE TIMINGS FROM ALL NODES (CUMULATIVE) ==================
|| TAG                                    #calls    cpu time   %total  Gflops ||
|| work_imbalance                       :     1        0.00s   0.000%  ------ ||
|| sparse_set_to_garbage                :   164        0.03s   0.000%  ------ ||
|| parallel_prepare_fd_halos_request    :  1827        0.03s   0.000%  ------ ||
|| ngwfs_initialise_from_radial         :     1        0.11s   0.000%  ------ ||
|| basis_extract_function_from_box      :  3382        0.14s   0.000%  ------ ||
|| parallel_prepare_fd_halos_alloc      :  1827        0.56s   0.002%  ------ ||
|| parallel_prepare_fd_halos_satisfy    :  1827        0.61s   0.002%  ------ ||
|| pseudopotentials_nonlocal_mat        :    28        2.24s   0.008%  ------ ||
|| openbc_locps_radial                  :     1        5.61s   0.019%  ------ ||
|| restart_ngwfs_tightbox_input         :     1        8.94s   0.030%  ------ ||
|| density_init_guess_real              :     1        9.25s   0.031%  ------ ||
|| restart_kernel_read                  :     1        9.33s   0.031%  ------ ||
|| parallel_prepare_fd_halos_comms_imbal:  1827       10.16s   0.034%  ------ ||
|| parallel_prepare_fd_halos_clear      :  1827       17.88s   0.060%  ------ ||
|| sparse_init                          :     2       23.33s   0.079%  ------ ||
|| parallel_prepare_fd_halos_comms_wait :  1827       26.59s   0.089%  ------ ||
|| projectors_func_ovlp_box             :    28       27.80s   0.094%  ------ ||
|| function_ops_brappd_ketppd           :    28       29.47s   0.099%  ------ ||
|| palser_mano_kernel_optimise          :     1       35.65s   0.120%  ------ ||
|| projectors_init_fftbox_recip         :   133       38.36s   0.129%  ------ ||
|| basis_copy_function_to_box           : 54885       38.72s   0.130%  ------ ||
|| ngwf_gradient_coeffs                 :    15       48.46s   0.163%  ------ ||
|| fourier_apply_box_pair               :  4813       49.68s   0.167% 560.908 ||
|| parallel_prepare_fd_halos            :  1827       55.84s   0.188%  ------ ||
|| pseudo_make_structure_factor         :     2       63.57s   0.214%  ------ ||
|| sparse_embed_hotelling_invert_embed  :    28       77.45s   0.261%  ------ ||
|| restart_kernel_write                 :    16       92.61s   0.312%  ------ ||
|| finite_difference_derivative         :  1827      136.81s   0.460%  ------ ||
|| integrals_kinetic                    :    28      143.55s   0.483%  ------ ||
|| projectors_gradient_batch            :   105      152.09s   0.512%  ------ ||
|| basis_dot_function_with_box          : 8.375M     160.97s   0.542%  ------ ||
|| fourier_apply_cell_backward          :  1219      165.51s   0.557% 101.732 ||
|| sparse_trace                         :  5262      197.31s   0.664%  ------ ||
|| fourier_apply_cell_forward           :  1217      216.70s   0.729%  77.574 ||
|| openbc_locps_on_grid                 :     2      270.38s   0.910%  ------ ||
|| kernel_purify                        :   464      291.25s   0.980%  ------ ||
|| basis_add_function_to_box            : 17.42M     394.19s   1.326%  ------ ||
|| lnv_gradient_norm                    :   150      439.14s   1.478%  ------ ||
|| xc_energy_potential                  :   304      442.29s   1.488%  ------ ||
|| hamiltonian_energy_components        :     4      491.58s   1.654%  ------ ||
|| kernel_fix                           :   150      571.28s   1.922%  ------ ||
|| ngwf_gradient_build_batch            :   105      722.63s   2.432%  ------ ||
|| integrals_locpot_mat_els_batch       :  1113      726.41s   2.444%  ------ ||
|| ngwf_gradient_batch                  :   105     1017.82s   3.425%  ------ ||
|| restart_ngwfs_tightbox_output        :    13     1031.68s   3.472%  ------ ||
|| density_batch_row_sums               :  2121     1079.13s   3.631%  ------ ||
|| ngwf_gradient_lnv                    :    15     1163.46s   3.915%  ------ ||
|| cell_grid_deposit_box_real           : 35201     1303.42s   4.386%  ------ ||
|| cell_grid_extract_box_real           : 38596     1532.04s   5.155%  ------ ||
|| sparse_product                       :  6409     1859.69s   6.258%  ------ ||
|| density_fftbox_deposit_to_cell       : 33330     1974.26s   6.644%  ------ ||
|| density_fftbox_interpolate_multiply  : 33330     3396.27s  11.429%  ------ ||
|| potential_apply_to_ngwf_batch        :  1113     3545.40s  11.931%  ------ ||
|| fourier_apply_box                    : 114.7k    4203.20s  14.144% 766.449 ||
|| multigrid_prepare_bound_cond         :   304     4287.10s  14.426%  ------ ||
|| integrals_locpot_dbl_grid            :   159     4290.14s  14.437%  ------ ||
|| density_batch_interp_deposit         :  2121     6283.40s  21.144%  ------ ||
|| dl_mg_solver_calls                   :   304     6961.12s  23.425%  ------ ||
|| density_on_dbl_grid                  :   303     7707.71s  25.937%  ------ ||
|| multigrid_calculate_hartree          :   304    11437.56s  38.488%  ------ ||
|| hamiltonian_lhxc_calculate           :   299    19520.75s  65.689%  ------ ||
|| lnv_denskernel_optimise_cg           :    15    24795.54s  83.439%  ------ ||
|| ngwf_cg_optimise                     :     2    28727.43s  96.670%  ------ ||
|| total_time                           :     1    29717.00s 100.000%  ------ ||
================================================================================
Overhead of generating timer report: 
- 0 ms averaging over threads,
- 15 ms ensuring consistency across MPI ranks,
- 0 ms printing in order.

Job completed: 18-07-2020 15:22 (+0100)

Application 41120688 resources: utime ~6216794s, stime ~209988s, Rss ~3791256, inblocks ~295840410, outblocks ~62036885
