 +---------------------------------------------------------------+
 |                                                               |
 |        ####### #     # ####### ####### ####### ######         |
 |        #     # ##    # #          #    #       #     #        |
 |        #     # # #   # #          #    #       #     #        |
 |        #     # #  #  # #####      #    #####   ######         |
 |        #     # #   # # #          #    #       #              |
 |        #     # #    ## #          #    #       #              |
 |        ####### #     # #######    #    ####### #              |
 |                                                               |
 |        Linear-Scaling Ab Initio Total Energy Program          |
 |                                                               |
 |          Release for academic collaborators of ODG            |
 |                                             Version 5.3.2.6.  |
 |                                                               |
 +---------------------------------------------------------------+
 |                                                               |
 |  Authors:                                                     |
 |  Jacek Dziedzic, Peter D. Haynes, Nicholas D. M. Hine,        |
 |  Arash. A. Mostofi, Mike C. Payne and Chris-Kriton Skylaris   |
 |                                                               |
 |  Contributors:                                                |
 |  J. Aarons, L. Andrinopoulos, P. W. Avraam, R. A. Bell,       |
 |  A. Bhandari, G. A. Bramley, R. J. Charlton, S. J. Clark,     |
 |  R. J. Clements, G. C. Constantinescu, F. Corsetti,           |
 |  N. Corsini, O. Dieguez, S. M. M. Dubois, K. K. B. Duff,      |
 |  J. M. Escartin, A. Greco, H. Helal, Q. O. Hill, L. P. Lee,   |
 |  J.-H. Li, E. B. Linscott, G. Moynihan, D. D. O`Regan,        |
 |  O. K. Okan, M. J. S. Phipps, C. J. Pickard,                  |
 |  J. C. A. Prentice, M. I. J. Probert, L. E. Ratcliff,         |
 |  M. Robinson, A. Ruiz Serrano, J. S. Spencer, E. W. Tait,     |
 |  G. Teobaldi, D. Turban, V. Vitale, K. A. Wilkinson,          |
 |  C. Weber, J. C. Womack, N. Yeung and T. J. Zuehlsdorff       |
 |                                                               |
 |                                   Copyright (c) 2004-2019     |
 |                                                               |
 |  Please cite:                                                 |
 |  "Introducing ONETEP: Linear-scaling density functional       |
 |   simulations on parallel computers".                         |
 |   C.-K. Skylaris, P. D. Haynes, A. A. Mostofi, M. C. Payne.   |
 |   J. Chem. Phys. 122 084119 (2005).                           |
 |                                                               |
 |          in all publications arising from your use of ONETEP. |
 |                                                               |
 +---------------------------------------------------------------+
 |                                                               |
 |   ONETEP is based on developments described in the following  |
 |   publications:                                               |
 |                                                               |
 |  "Nonorthogonal generalized Wannier function pseudopotential  |
 |   plane-wave method".                                         |
 |   C.-K. Skylaris, A. A. Mostofi, P. D. Haynes, O. Dieguez,    |
 |   M. C. Payne.                                                |
 |   Phys. Rev. B 66 035119 (2002).                              |
 |                                                               |
 |  "Preconditioned iterative minimization for linear-scaling    |
 |   electronic structure calculations".                         |
 |   A. A. Mostofi, P. D. Haynes, C.-K. Skylaris, M. C. Payne.   |
 |   J. Chem. Phys. 119(17), pp.8842-8848 (2003).                |
 |                                                               |
 |  "Total-energy calculations on a real space grid with         |
 |   localized functions and a plane-wave basis".                |
 |   A. A. Mostofi, C.-K. Skylaris, P. D. Haynes, M. C. Payne.   |
 |   Comput. Phys. Commun. 147, pp.788-802 (2002).               |
 |                                                               |
 |  "Accurate kinetic energy evaluation in electronic structure  |
 |   calculations with localized functions on real space grids"  |
 |   C.-K. Skylaris, A. A. Mostofi, P. D. Haynes, C. J. Pickard, |
 |   M. C. Payne.                                                |
 |   Comput. Phys. Commun. 140, pp.315-322 (2001).               |
 |                                                               |
 |  "Accurate ionic forces and geometry optimization in linear-  |
 |   scaling density-functional theory with local orbitals"      |
 |   N. D. M. Hine, M. Robinson, P. D. Haynes, C.-K. Skylaris,   |
 |   M. C. Payne, and A. A. Mostofi.                             |
 |   Phys. Rev. B 83 195102 (2011).                              |
 |                                                               |
 +---------------------------------------------------------------+

Job started: 08-07-2020 02:27 (+0100)
 
Reading parameters from file "complex_11121.dat" ...... done

If your calculation crashes here, before "Checking processes and threads..."
is displayed, then your stack size is insufficient.
If so, use "ulimit -s unlimited" at runtime.
You can disable this check with "check_stack_size F".

Checking processes and threads...
   Determining the default number of threads...
      No default threads set at compilation time: defaulting to 1.
      OpenMP library call suggests 4 threads.
      Hybrid MPI-OpenMP compilation detected.
      Number of MPI processes > 1.
      OMP_NUM_THREADS environment variable present and
      its value matches the one obtained from the OpenMP library call.
      Using this value as default.
      Default threads: 4
      Default applies to threads_max and threads_num_fftboxes.
      Settings in the input file override this default.
   ... done

   Running with 40 MPI processes.
   There are 10 MPI processes running on the same node as the root process.
   Each MPI process is using: 
               1 threads for simulation cell FFTs.
               1 threads for parallel FFT box operations.
               4 threads for loops over batched FFT box operations.
               4 threads in other parallel regions.
... done

Basic input checks...... done

Reading geometry and species blocks from file "complex_11121.dat" ...
  <species_atomic_set> block not found: NGWF initialisation set to SOLVE
IS: Dielectric excluded regions:
    - NONE.
    
  Number of PPD points along a3 set to 1.  This is 
  the default value, it may have been provided also in the input file.
... done
 Writing xyz coordinates to file "complex_11121.xyz" ... done


--------------------------------------------------------------------------------
---------------------------------- INPUT FILE ----------------------------------
--------------------------------------------------------------------------------

cutoff_energy       : 800 eV                                                    
xc_functional PBE                                                               
task SINGLEPOINT                                                                
write_xyz true                                                                  
output_detail VERBOSE                                                           
ngwf_threshold_orig : 0.000002                                                  
kernel_cutoff       : 1000                                                      
k_zero              : 3.5                                                       
elec_cg_max 0                                                                   
occ_mix 1.0                                                                     
dispersion 1                                                                    
maxit_ngwf_cg 40                                                                
minit_lnv 10                                                                    
maxit_lnv 10                                                                    
write_denskern T                                                                
write_tightbox_ngwfs T                                                          
charge 9                                                                        
is_implicit_solvent T                                                           
is_auto_solvation T                                                             
is_include_apolar T                                                             
is_smeared_ion_rep T                                                            
is_solvent_surf_tension 4.7624E-5 Ha/bohr**2                                    
is_apolar_scaling_factor 0.281075                                               
is_solvation_beta 1.3                                                           
is_density_threshold 0.00035                                                    
is_bulk_permittivity 78.54                                                      
is_dielectric_model fix_initial                                                 
is_smeared_ion_width 0.8                                                        
mg_defco_fd_order 8                                                             
is_bc_coarseness 10                                                             
is_bc_surface_coarseness 1                                                      
fine_grid_scale 2.0                                                             
%block species                                                                  
N   N   7 4 8.0                                                                 
H   H   1 1 8.0                                                                 
C   C   6 4 8.0                                                                 
S   S  16 9 8.0                                                                 
O   O   8 4 8.0                                                                 
Cl  Cl  17 9 8.0                                                                
%endblock species                                                               
%block species_pot                                                              
N   N_00.recpot                                                                 
H   H_04.recpot                                                                 
C   C_01.recpot                                                                 
S   S_00.recpot                                                                 
O   O_02.recpot                                                                 
Cl  chlorine.recpot                                                             
%endblock species_pot                                                           
%block lattice_cart                                                             
137.793   0.000   0.000                                                         
0.000 143.498   0.000                                                           
0.000   0.000   162.326                                                         
%endblock lattice_cart                                                          
%block positions_abs                                                            
     Hash =  -000007365737959922585010
%endblock positions_abs                                                         

--------------------------------------------------------------------------------
-------------------------------- END INPUT FILE --------------------------------
--------------------------------------------------------------------------------


 
 ESDF WARNING(1): "kernelcutoff" (esdf_physical) has no units. Assume "bohr".
 ESDF WARNING(2): "kzero" (esdf_physical) has no units. Assume "1/bohr".
 ESDF WARNING(3
 ): "issmearedionwidth" (esdf_physical) has no units. Assume "bohr".
<<<<<<<<<<<<<<<<<<<<<<<<<<<<<<<<< Full system >>>>>>>>>>>>>>>>>>>>>>>>>>>>>>>>>>
WARNING in pseudopotentials_read_species: string "LDA" found in pseudopotential
file "chlorine.recpot", yet xc_functional = "PBE".
 
<<<<<<<<<<<<<<<<<<<<<<<<< Pseudopotential information >>>>>>>>>>>>>>>>>>>>>>>>>>
File: N_00.recpot [ 2001 points up to Gmax=  52.9 (1/bohr)]
  Atomic number:  7;  ionic charge:  5.000000
    Shell 1: l = 0; rc = 1.48 bohr
File: H_04.recpot [ 2001 points up to Gmax=  52.9 (1/bohr)]
  Atomic number:  1;  ionic charge:  1.000000
    Local potential
File: C_01.recpot [ 2001 points up to Gmax=  52.9 (1/bohr)]
  Atomic number:  6;  ionic charge:  4.000000
    Shell 1: l = 0; rc = 1.48 bohr
File: S_00.recpot [ 2001 points up to Gmax=  52.9 (1/bohr)]
  Atomic number: 16;  ionic charge:  6.000000
    Shell 1: l = 0; rc = 1.90 bohr
    Shell 2: l = 2; rc = 1.84 bohr
File: O_02.recpot [ 2001 points up to Gmax=  52.9 (1/bohr)]
  Atomic number:  8;  ionic charge:  6.000000
    Shell 1: l = 0; rc = 1.31 bohr
File: chlorine.recpot [ 2001 points up to Gmax=  52.9 (1/bohr)]
  Atomic number: 17;  ionic charge:  7.000000
    Shell 1: l = 0; rc = 1.72 bohr
    Shell 2: l = 2; rc = 1.78 bohr
<<<<<<<<<<<<<<<<<<<<<<<<<<<<<<<<<<<<<<<<>>>>>>>>>>>>>>>>>>>>>>>>>>>>>>>>>>>>>>>>

-------------------------- Atom counting information ---------------------------
Symbol    Natoms    Nngwfs    Nprojs
  N        236       944       236
  H       1316      1316         0
  C        816      3264       816
  S          6        54        36
  O        240       960       240
  Cl         1         9         6
.......   ......    ......    ......
Totals:   2615      6547      1334
--------------------------------------------------------------------------------

=============================== PSINC grid sizes ===============================
                      Simulation cell:  273 x 286 x 320
                              FFT-box:   99 x  99 x  99
                                  PPD:    7 x  11 x   1
Grid space d1=  0.504736263736a0 (KE cutoff=  29.81776Eh = 811.38248eV)
Grid space d2=  0.501741258741a0 (KE cutoff=  30.17480Eh = 821.09803eV)
Grid space d3=  0.507268750000a0 (KE cutoff=  29.52078Eh = 803.30122eV)
================================================================================

********************* Fourier parallelisation information **********************
       Coarse grid (whole simulation cell) dimensions:    273   286   320
          Real-space ('12') slabs/node (min max mean):      8     8     8
         Recip-space ('23') slabs/node (min max mean):      3     4     3
********************************************************************************

********************* Fourier parallelisation information **********************
       Double grid (whole simulation cell) dimensions:    546   572   640
          Real-space ('12') slabs/node (min max mean):     16    16    16
         Recip-space ('23') slabs/node (min max mean):      6     7     6
********************************************************************************
ONETEP fine grid is 546 x 572 x 640 gridpoints, 137.7930 x 143.4980 x 162.3260 bohr.
FD multigrid is     545 x 569 x 633 gridpoints, 137.5406 x 142.7454 x 160.5506 bohr.


Calculating local pseudopotential in open BC on a radial grid ...
Discrepancy between calculated realspace psloc and -Z/x on [5a0,256.765a0]:
max |rel. diff| # avg |rel. diff| #  avg rel. diff #  f # pseudopotential file
 0.000264355666    0.000005356805   0.000000075547   55  'N_00.recpot'
 0.000427657517    0.000018087302  -0.000000066616   55  'H_04.recpot'
 0.000358839426    0.000016594043   0.000000139912   55  'C_01.recpot'
 0.000443229003    0.000019135969   0.000000483695   55  'S_00.recpot'
 0.000720897146    0.000029350350   0.000000143497   55  'O_02.recpot'
 0.000693253128    0.000030986455   0.000000348575   55  'chlorine.recpot'
... done

Atom SCF Calculation for N  : Z (AE atom) =   7 : Z (PS atom) =   5
Config String:
Orbitals (num,occ):  2     2.00 3.00
Orbitals   (num,l):  2        0    1
Real-space Grid (nr,dr,rmax): 1203    0.0066555740    8.0000000000
Spherical Bessel Basis (nsws,lmax,cutoff):   47    1  176.3951722778
Confining potential (l,width,scale):  0    3.0000000000  100.0000000000
Confining potential (l,width,scale):  1    3.0000000000  100.0000000000
  1         -4.7312375307   -3.4155304497    7.0523828109   -1.9351020946
  2         -9.7309464766   -2.0532547791    8.2966052865   -2.2494486027
  3         -9.6627394379   -2.1124926340    8.2327997121   -2.2369778124
  4         -9.6814993499   -2.1215521045    8.2229805960   -2.2365178421
  5         -9.6843326483   -2.1250939529    8.2191374534   -2.2362718126
  6         -9.6859628709   -2.1267894855    8.2172963573   -2.2362066344
  7         -9.6867347035   -2.1276425665    8.2163697352   -2.2361903369
  8         -9.6870802100   -2.1280764625    8.2158983890   -2.2361891460
  9         -9.6872290423   -2.1282977424    8.2156580222   -2.2361920435
 10         -9.6872901988   -2.1284107021    8.2155353368   -2.2361953393
 11         -9.6873135296   -2.1284684031    8.2154726809   -2.2361979819
 12         -9.6873212476   -2.1284978948    8.2154406648   -2.2361998431
 13         -9.6873229586   -2.1285129774    8.2154242957   -2.2362010676
 14         -9.6873226456   -2.1285206957    8.2154159216   -2.2362018403
 15         -9.6873218534   -2.1285246479    8.2154116349   -2.2362023142
 16         -9.6873212599   -2.1285262679    8.2154098784   -2.2362025420
 17         -9.6873207834   -2.1285272564    8.2154088068   -2.2362026955
 18         -9.6873204210   -2.1285278597    8.2154081529   -2.2362027982
 19         -9.6873201550   -2.1285282280    8.2154077538   -2.2362028667
 20         -9.6873199645   -2.1285284529    8.2154075102   -2.2362029121
 21         -9.6873198305   -2.1285285903    8.2154073614   -2.2362029421
 22         -9.6873197377   -2.1285286742    8.2154072705   -2.2362029618
Atom SCF converged after  22 iterations to a total energy of     -9.68731974

Atom SCF Calculation for H  : Z (AE atom) =   1 : Z (PS atom) =   1
Config String:
Orbitals (num,occ):  1     1.00
Orbitals   (num,l):  1        0
Real-space Grid (nr,dr,rmax): 1203    0.0066555740    8.0000000000
Spherical Bessel Basis (nsws,lmax,cutoff):   47    0  176.3951722778
Confining potential (l,width,scale):  0    3.0000000000  100.0000000000
  1         -0.3194257691   -0.2393854593    0.2820953124   -0.2424203209
  2         -0.3951823392   -0.2377116493    0.2886404059   -0.2475147891
  3         -0.4317044583   -0.2352244387    0.2921333887   -0.2514046172
  4         -0.4470703708   -0.2341892222    0.2934391879   -0.2531009782
  5         -0.4532132900   -0.2338556667    0.2938388426   -0.2537313520
  6         -0.4556579251   -0.2337612552    0.2939448584   -0.2539550462
  7         -0.4566418315   -0.2337377355    0.2939680120   -0.2540342273
  8         -0.4570437922   -0.2337331116    0.2939708287   -0.2540627372
  9         -0.4572102946   -0.2337328328    0.2939698291   -0.2540732650
 10         -0.4572800424   -0.2337332404    0.2939687193   -0.2540772588
 11         -0.4573095100   -0.2337335791    0.2939680317   -0.2540788122
 12         -0.4573220379   -0.2337337762    0.2939676699   -0.2540794294
 13         -0.4573273880   -0.2337338775    0.2939674931   -0.2540796787
 14         -0.4573296803   -0.2337339266    0.2939674099   -0.2540797808
 15         -0.4573306647   -0.2337339495    0.2939673718   -0.2540798230
 16         -0.4573310882   -0.2337339601    0.2939673545   -0.2540798406
 17         -0.4573312706   -0.2337339649    0.2939673467   -0.2540798479
 18         -0.4573313493   -0.2337339670    0.2939673433   -0.2540798510
Atom SCF converged after  18 iterations to a total energy of     -0.45733135

Atom SCF Calculation for C  : Z (AE atom) =   6 : Z (PS atom) =   4
Config String:
Orbitals (num,occ):  2     2.00 2.00
Orbitals   (num,l):  2        0    1
Real-space Grid (nr,dr,rmax): 1203    0.0066555740    8.0000000000
Spherical Bessel Basis (nsws,lmax,cutoff):   47    1  176.3951722778
Confining potential (l,width,scale):  0    3.0000000000  100.0000000000
Confining potential (l,width,scale):  1    3.0000000000  100.0000000000
  1         -5.2976922011   -1.3069684169    4.5135249990   -1.4493313817
  2         -5.3721716256   -1.3429755895    4.4750154450   -1.4361613026
  3         -5.3809959565   -1.3617365618    4.4541655428   -1.4305930207
  4         -5.3918938866   -1.3667928461    4.4484735100   -1.4294652294
  5         -5.3956096428   -1.3688539142    4.4461376126   -1.4290734646
  6         -5.3968271862   -1.3696852393    4.4451910874   -1.4289366866
  7         -5.3972028401   -1.3700178062    4.4448112275   -1.4288900460
  8         -5.3973067903   -1.3701500158    4.4446598370   -1.4288749220
  9         -5.3973286940   -1.3702023868    4.4445997329   -1.4288704293
 10         -5.3973289850   -1.3702230869    4.4445759233   -1.4288693188
 11         -5.3973254264   -1.3702312560    4.4445665049   -1.4288691775
 12         -5.3973224003   -1.3702344755    4.4445627836   -1.4288692549
 13         -5.3973208708   -1.3702354890    4.4445616088   -1.4288693270
 14         -5.3973198783   -1.3702360102    4.4445610034   -1.4288693814
 15         -5.3973192535   -1.3702362780    4.4445606917   -1.4288694190
 16         -5.3973188684   -1.3702364155    4.4445605313   -1.4288694437
 17         -5.3973186349   -1.3702364860    4.4445604489   -1.4288694595
 18         -5.3973184951   -1.3702365221    4.4445604065   -1.4288694693
 19         -5.3973184122   -1.3702365405    4.4445603848   -1.4288694753
Atom SCF converged after  19 iterations to a total energy of     -5.39731841

Atom SCF Calculation for S  : Z (AE atom) =  16 : Z (PS atom) =   6
Config String:
Orbitals (num,occ):  3     2.00 4.00 0.00
Orbitals   (num,l):  3        0    1    2
Real-space Grid (nr,dr,rmax): 1203    0.0066555740    8.0000000000
Spherical Bessel Basis (nsws,lmax,cutoff):   47    2  176.3951722778
Confining potential (l,width,scale):  0    3.0000000000  100.0000000000
Confining potential (l,width,scale):  1    3.0000000000  100.0000000000
Confining potential (l,width,scale):  2    3.0000000000  100.0000000000
  1        -12.4735062396   -1.0328741412   10.1554312477   -2.4512393157
  2         -9.9458301913   -2.4607392455    8.3041325857   -2.0306994528
  3        -10.1450417646   -2.2931184565    8.4831893826   -2.0812538287
  4        -10.1528335592   -2.2733105793    8.5050388867   -2.0896035179
  5        -10.1571940363   -2.2633716629    8.5160794258   -2.0939370707
  6        -10.1594380571   -2.2584938667    8.5215163935   -2.0961289008
  7        -10.1605856507   -2.2561081821    8.5241804044   -2.0972291378
  8        -10.1611799191   -2.2549395235    8.5254868240   -2.0977806248
  9        -10.1614918752   -2.2543658586    8.5261285885   -2.0980571586
 10        -10.1616572884   -2.2540839121    8.5264441898   -2.0981959233
 11        -10.1617455602   -2.2539453058    8.5265994231   -2.0982656006
 12        -10.1617928447   -2.2538772062    8.5266757320   -2.0983006047
 13        -10.1618182292   -2.2538437891    8.5267131983   -2.0983181961
 14        -10.1618318741   -2.2538274201    8.5267315620   -2.0983270391
 15        -10.1618392144   -2.2538194197    8.5267405433   -2.0983314852
 16        -10.1618431651   -2.2538155200    8.5267449245   -2.0983337210
 17        -10.1618452923   -2.2538136252    8.5267470551   -2.0983348455
 18        -10.1618464380   -2.2538127080    8.5267480875   -2.0983354110
 19        -10.1618470552   -2.2538122659    8.5267485856   -2.0983356955
 20        -10.1618473878   -2.2538120540    8.5267488248   -2.0983358386
 21        -10.1618475670   -2.2538119530    8.5267489389   -2.0983359106
 22        -10.1618476637   -2.2538119053    8.5267489929   -2.0983359468
Atom SCF converged after  22 iterations to a total energy of    -10.16184766

Atom SCF Calculation for O  : Z (AE atom) =   8 : Z (PS atom) =   6
Config String:
Orbitals (num,occ):  2     2.00 4.00
Orbitals   (num,l):  2        0    1
Real-space Grid (nr,dr,rmax): 1203    0.0066555740    8.0000000000
Spherical Bessel Basis (nsws,lmax,cutoff):   47    1  176.3951722778
Confining potential (l,width,scale):  0    3.0000000000  100.0000000000
Confining potential (l,width,scale):  1    3.0000000000  100.0000000000
  1         -1.8735052164   -7.5539365035   10.1554312477   -2.4512393157
  2        -16.0318313751   -3.1285771268   13.6395848164   -3.2358799643
  3        -15.9524020423   -3.0762819706   13.6967272503   -3.2536856837
  4        -15.8521515939   -3.0781493909   13.6951909330   -3.2561700440
  5        -15.8357139793   -3.0748501933   13.6988803334   -3.2580493133
  6        -15.8246052853   -3.0740779781   13.6997881576   -3.2588327446
  7        -15.8189019501   -3.0737449687   13.7001869911   -3.2592378801
  8        -15.8159785510   -3.0736026016   13.7003615168   -3.2594475790
  9        -15.8144776168   -3.0735437994   13.7004360379   -3.2595560735
 10        -15.8137058024   -3.0735207882   13.7004667348   -3.2596122456
 11        -15.8133083127   -3.0735125946   13.7004786868   -3.2596413656
 12        -15.8131032938   -3.0735102195   13.7004828997   -3.2596564858
 13        -15.8129973902   -3.0735099286   13.7004840891   -3.2596643505
 14        -15.8129426040   -3.0735102506   13.7004842061   -3.2596684489
 15        -15.8129142203   -3.0735106556   13.7004840157   -3.2596705887
 16        -15.8128994940   -3.0735109855   13.7004837906   -3.2596717080
 17        -15.8128918425   -3.0735112169   13.7004836103   -3.2596722946
 18        -15.8128878614   -3.0735113674   13.7004834848   -3.2596726026
 19        -15.8128857871   -3.0735114608   13.7004834035   -3.2596727646
 20        -15.8128847048   -3.0735115170   13.7004833533   -3.2596728500
 21        -15.8128841394   -3.0735115501   13.7004833231   -3.2596728951
 22        -15.8128838436   -3.0735115693   13.7004833054   -3.2596729190
 23        -15.8128836887   -3.0735115802   13.7004832951   -3.2596729316
 24        -15.8128836074   -3.0735115864   13.7004832893   -3.2596729383
Atom SCF converged after  24 iterations to a total energy of    -15.81288361

Atom SCF Calculation for Cl : Z (AE atom) =  17 : Z (PS atom) =   7
Config String:
Orbitals (num,occ):  3     2.00 5.00 0.00
Orbitals   (num,l):  3        0    1    2
Real-space Grid (nr,dr,rmax): 1203    0.0066555740    8.0000000000
Spherical Bessel Basis (nsws,lmax,cutoff):   47    2  176.3951722778
Confining potential (l,width,scale):  0    3.0000000000  100.0000000000
Confining potential (l,width,scale):  1    3.0000000000  100.0000000000
Confining potential (l,width,scale):  2    3.0000000000  100.0000000000
  1        -16.8444261800   -2.1962100444   13.8226703094   -2.9941905181
  2        -14.7918510722   -3.2647395528   12.5772031268   -2.7486356845
  3        -15.0408459996   -3.0830885982   12.7711824681   -2.7985322562
  4        -15.0258990028   -3.0805758938   12.7746252245   -2.8028400439
  5        -15.0247989138   -3.0762001284   12.7796720593   -2.8059543251
  6        -15.0249225108   -3.0742888229   12.7818510263   -2.8073220423
  7        -15.0250462958   -3.0731699753   12.7831228196   -2.8081724567
  8        -15.0251282307   -3.0725244678   12.7838557365   -2.8086978828
  9        -15.0251775299   -3.0721537651   12.7842766981   -2.8090219799
 10        -15.0252069190   -3.0719409277   12.7845186566   -2.8092219886
 11        -15.0252248401   -3.0718185631   12.7846580195   -2.8093455898
 12        -15.0252360996   -3.0717481031   12.7847384649   -2.8094221024
 13        -15.0252433539   -3.0717074830   12.7847849814   -2.8094695492
 14        -15.0252481059   -3.0716840518   12.7848119089   -2.8094990225
 15        -15.0252512461   -3.0716705364   12.7848275045   -2.8095173612
 16        -15.0252533273   -3.0716627451   12.7848365368   -2.8095287899
 17        -15.0252547058   -3.0716582588   12.7848417653   -2.8095359231
 18        -15.0252556164   -3.0716556794   12.7848447893   -2.8095403819
 19        -15.0252562158   -3.0716541993   12.7848465363   -2.8095431730
 20        -15.0252566087   -3.0716533521   12.7848475441   -2.8095449225
 21        -15.0252568652   -3.0716528683   12.7848481246   -2.8095460206
 22        -15.0252570320   -3.0716525930   12.7848484583   -2.8095467108
 23        -15.0252571401   -3.0716524369   12.7848486497   -2.8095471451
 24        -15.0252572099   -3.0716523486   12.7848487593   -2.8095474188
Atom SCF converged after  24 iterations to a total energy of    -15.02525721

========================== Calculation in vacuum ==============================
= Adjusting the following parameters: 
= is_implicit_solvent: F
= is_include_apolar: F
= write_denskern: T
= write_tightbox_ngwfs: T
= restart read filename prefix: ""
= restart write filename prefix: "vacuum_"
===============================================================================

Determining parallel strategy ...
... using space-filling curve
... NGWF load balancing: max    164;  min    163;  average    164
... Projector load balancing: max     36;  min     32;  average     33
... done
Calculating direct Ion-Ion energy ...
Ion-Ion Energy        :    837855.21875182865188
======================= Empirical dispersion information =======================
Model : Elstner
WARNING: Unoptimised dispersion parameters used for Cl
Dispersion Correction Energy: -0.32817844E+01 Hartree
================================================================================
Basis initialisation ...... NGWF spheres initialised
... Projector spheres initialised
... NGWF tight boxes initialised
... Tight-boxes gathered
... NGWF basis size (local,global):    1114932  44664369
... Nonlocal pseudopotential projector initialisation
... done

========================== Sparse matrix information ===========================
                        Overlap matrix filling:   6.79%
                        Density kernel filling: 100.00%
              NGWF-Proj overlap matrix filling:   1.76%
                    Hamiltonian matrix filling:   7.67%
                  NGWF diagonal matrix filling:   0.05%
                             KS matrix filling: 100.00% 
                           KSKS matrix filling: 100.00% 
================================================================================

Sparse matrix initialisation ... done

Generating smeared ion density ... done
Smeared ion self correction:     -14549.923644
Smeared ion non-self correction: -837807.001569
NGWF initialisation ...... done
============ Calculation of NGWF S^-1 using Hotelling algorithm ================ 
         Iteration  |  Frobenius norm and Maximum abs value    (of I-S*S_n^-1)   
               1       0.78785495E+02     0.98302705E+00
               2       0.76965909E+02     0.96648057E+00
               3       0.74005999E+02     0.93458966E+00
               4       0.69774698E+02     0.87516179E+00
               5       0.64478596E+02     0.77318700E+00
               6       0.58503595E+02     0.70449479E+00
               7       0.52467247E+02     0.67036885E+00
               8       0.46889870E+02     0.64490664E+00
               9       0.40863975E+02     0.60613018E+00
              10       0.32684593E+02     0.53720302E+00
              11       0.22154877E+02     0.42712496E+00
              12       0.11472985E+02     0.28830008E+00
              13       0.38722413E+01     0.14461805E+00
              14       0.64539355E+00     0.41482984E-01
              15       0.35583536E-01     0.43042108E-02
              16       0.28544347E-03     0.51918562E-04
              17       0.37588870E-07     0.78394811E-08
              18       0.99322081E-13     0.44408921E-14
================================================================================
Calculating local pseudopotential in open BC on the fine real space grid ...
... done

MG BCs: +ve charge blocks (gridpoints):     20272 (   15939848).
MG BCs: -ve charge blocks (gridpoints):      8012 (    1083172).
MG BCs:     Elided blocks (gridpoints):    180368 (  179273445).
MG BCs: Computational effort saved:  99.9856%.
MG BCs: Charge after coarse-graining:           -9.0002209.
MG DL_MG: Calling solver with defect correction order = 8
MG DL_MG: Solver finished
MG Hartree energy from (\int phi*rho dr):              1475.813867
MG Hartree energy from (\int eps (grad phi)^2 dr):     1475.198717
MG Discrepancy due to finite box and discretization:     -0.615150 (  -0.04168%)
MG Correction to account for finite box:                  0.461868
MG Remaining discrepancy, due to discretization:         -0.153282 (  -0.01039%)
Up spin density kernel initialisation ... 
======= Optimisation of K by Palser-Manolopoulos canonical purification ======== 
         Iteration  |  Band structure energy |    c_n   
               1       -2593.22652761415611    0.5271282
               2       -2770.14751481584062    0.5171573
               3       -2951.97960145527713    0.5152359
               4       -3104.40541052168328    0.5284721
               5       -3198.63808062160388    0.5639887
               6       -3238.28097781152792    0.6091327
               7       -3251.75737788865172    0.6216402
               8       -3257.57993402074999    0.6205656
               9       -3260.40393242263417    0.6341638
              10       -3261.58040477385566    0.6584376
              11       -3262.04331721353992    0.6887998
              12       -3262.23223084383199    0.7040557
              13       -3262.32341471364271    0.6930555
              14       -3262.37794528016548    0.6838096
              15       -3262.40947598719958    0.6777832
              16       -3262.42668756557032    0.6426810
              17       -3262.43749078554447    0.5883984
              18       -3262.44425093271002    0.5454043
              19       -3262.44743611313606    0.5222738
              20       -3262.44849215890508    0.5085486
              21       -3262.44871319265394    0.5008203
              22       -3262.44872924475612    0.5000053
              23       -3262.44872934967771    0.5000053
Termination criterion satisfied: band energy change below threshold.
Final occupancy bounds: [    0.00000000000027:    0.99999999999979]
Closest occupancy to 0.5:     0.99999999999977
================================================================================
... done

Writing density kernel to file "complex_11121.vacuum_dkn" ... done

>>> Optimising kernel for current NGWFs:
   Initial electron number for spin 1:    7234.00000000
     Final electron number for spin 1:    7234.00000000

=================== Penalty functional idempotency correction ==================
 RMS occupancy error at iteration   1:  0.000000 (step -0.5000 Ne1=   7234.0000)
            Final RMS occupancy error   :  0.000000 (Ne1=   7234.0000)
               Final occupancy bounds   : [ -0.0000,  1.0000]
================================================================================

................................................................................
<<<<<<<<<<<<<< LNV (Original version) density kernel optimisation >>>>>>>>>>>>>>
~~~~~~~~~~~~~~~~~~~~~~~~~~~~~~~~~~~~~~~~~~~~~~~~~~~~~~~~~~~~~~~~~~~~~~~~~~~~~~~~
   iter  |      energy (Eh)       | rms gradient |  commutator  |   dE (Eh)
MG BCs: +ve charge blocks (gridpoints):     30362 (   17044940).
MG BCs: -ve charge blocks (gridpoints):      8329 (    1116289).
MG BCs:     Elided blocks (gridpoints):    170271 (  178135236).
MG BCs: Computational effort saved:  99.9803%.
MG BCs: Charge after coarse-graining:           -9.0009274.
MG DL_MG: Calling solver with defect correction order = 8
MG DL_MG: Solver finished
MG Hartree energy from (\int phi*rho dr):              1429.497975
MG Hartree energy from (\int eps (grad phi)^2 dr):     1428.833119
MG Discrepancy due to finite box and discretization:     -0.664856 (  -0.04651%)
MG Correction to account for finite box:                  0.468532
MG Remaining discrepancy, due to discretization:         -0.196324 (  -0.01373%)
      ideal mu1:      -0.731986683897
             Q0:  -11576.417769537307
             G0:    -141.701376395048
   RMS gradient:       0.001818212727
MG BCs: +ve charge blocks (gridpoints):     30334 (   17123225).
MG BCs: -ve charge blocks (gridpoints):      8240 (    1095936).
MG BCs:     Elided blocks (gridpoints):    170300 (  178077304).
MG BCs: Computational effort saved:  99.9803%.
MG BCs: Charge after coarse-graining:           -9.0009472.
MG DL_MG: Calling solver with defect correction order = 8
MG DL_MG: Solver finished
MG Hartree energy from (\int phi*rho dr):              1455.559708
MG Hartree energy from (\int eps (grad phi)^2 dr):     1454.911835
MG Discrepancy due to finite box and discretization:     -0.647873 (  -0.04451%)
MG Correction to account for finite box:                  0.467465
MG Remaining discrepancy, due to discretization:         -0.180408 (  -0.01239%)
     Trial step:       0.500000000000
             Q1:  -11587.291706076358
 Quadratic coef:      59.976751658474
 Linear coef   :     -70.850688197524
           Qmin:  -11597.341793760255
Quadratic minimum step length (  0.295325631342) accepted
    Initial Ne1:    7234.00000000
      Final Ne1:    7234.00000000

=================== Penalty functional idempotency correction ==================
 RMS occupancy error at iteration   1:  0.003288 (step -0.4888 Ne1=   7234.0000)
 RMS occupancy error at iteration   2:  0.000024 (step -0.5001 Ne1=   7234.0000)
            Final RMS occupancy error   :  0.000000 (Ne1=   7234.0000)
               Final occupancy bounds   : [  0.0000,  1.0000]
================================================================================

    1        -1.157641776954E+04     1.8182E-03     1.6455E-03
MG BCs: +ve charge blocks (gridpoints):     30351 (   17092737).
MG BCs: -ve charge blocks (gridpoints):      8284 (    1104778).
MG BCs:     Elided blocks (gridpoints):    170282 (  178098950).
MG BCs: Computational effort saved:  99.9803%.
MG BCs: Charge after coarse-graining:           -9.0009388.
MG DL_MG: Calling solver with defect correction order = 8
MG DL_MG: Solver finished
MG Hartree energy from (\int phi*rho dr):              1437.028433
MG Hartree energy from (\int eps (grad phi)^2 dr):     1436.374547
MG Discrepancy due to finite box and discretization:     -0.653885 (  -0.04550%)
MG Correction to account for finite box:                  0.467793
MG Remaining discrepancy, due to discretization:         -0.186092 (  -0.01295%)
      ideal mu1:      -0.769477256423
             Q0:  -11597.725279407459
             G0:     -11.509547422149
   RMS gradient:       0.000514786005
MG BCs: +ve charge blocks (gridpoints):     30342 (   17109360).
MG BCs: -ve charge blocks (gridpoints):      8262 (    1099422).
MG BCs:     Elided blocks (gridpoints):    170292 (  178087683).
MG BCs: Computational effort saved:  99.9803%.
MG BCs: Charge after coarse-graining:           -9.0009421.
MG DL_MG: Calling solver with defect correction order = 8
MG DL_MG: Solver finished
MG Hartree energy from (\int phi*rho dr):              1442.530751
MG Hartree energy from (\int eps (grad phi)^2 dr):     1441.880662
MG Discrepancy due to finite box and discretization:     -0.650089 (  -0.04507%)
MG Correction to account for finite box:                  0.467182
MG Remaining discrepancy, due to discretization:         -0.182907 (  -0.01268%)
     Trial step:       0.384269196880
             Q1:  -11600.427755846060
 Quadratic coef:       1.720288105764
 Linear coef   :      -4.422764544364
           Qmin:  -11600.567949502856
Quadratic minimum step length (  0.493967310987) accepted
    Initial Ne1:    7233.99991537
      Final Ne1:    7234.00000000

=================== Penalty functional idempotency correction ==================
 RMS occupancy error at iteration   1:  0.001720 (step -0.4935 Ne1=   7234.0000)
 RMS occupancy error at iteration   2:  0.000009 (step -0.5001 Ne1=   7234.0000)
            Final RMS occupancy error   :  0.000000 (Ne1=   7234.0000)
               Final occupancy bounds   : [  0.0000,  1.0000]
================================================================================

    2        -1.159772527941E+04     5.1479E-04     4.6590E-04    -2.1308E+01
MG BCs: +ve charge blocks (gridpoints):     30343 (   17114090).
MG BCs: -ve charge blocks (gridpoints):      8252 (    1097811).
MG BCs:     Elided blocks (gridpoints):    170291 (  178084564).
MG BCs: Computational effort saved:  99.9803%.
MG BCs: Charge after coarse-graining:           -9.0009432.
MG DL_MG: Calling solver with defect correction order = 8
MG DL_MG: Solver finished
MG Hartree energy from (\int phi*rho dr):              1444.141414
MG Hartree energy from (\int eps (grad phi)^2 dr):     1443.492331
MG Discrepancy due to finite box and discretization:     -0.649083 (  -0.04495%)
MG Correction to account for finite box:                  0.467022
MG Remaining discrepancy, due to discretization:         -0.182061 (  -0.01261%)
      ideal mu1:      -0.789489306063
             Q0:  -11600.601342983195
             G0:      -1.832539983686
   RMS gradient:       0.000205543693
MG BCs: +ve charge blocks (gridpoints):     30352 (   17113724).
MG BCs: -ve charge blocks (gridpoints):      8257 (    1098894).
MG BCs:     Elided blocks (gridpoints):    170282 (  178083847).
MG BCs: Computational effort saved:  99.9803%.
MG BCs: Charge after coarse-graining:           -9.0009427.
MG DL_MG: Calling solver with defect correction order = 8
MG DL_MG: Solver finished
MG Hartree energy from (\int phi*rho dr):              1441.963655
MG Hartree energy from (\int eps (grad phi)^2 dr):     1441.314986
MG Discrepancy due to finite box and discretization:     -0.648669 (  -0.04499%)
MG Correction to account for finite box:                  0.466793
MG Remaining discrepancy, due to discretization:         -0.181876 (  -0.01261%)
     Trial step:       0.435679264916
             Q1:  -11601.058367874241
 Quadratic coef:       0.341374781976
 Linear coef   :      -0.798399673022
           Qmin:  -11601.068162789121
Quadratic minimum step length (  0.509478439852) accepted
    Initial Ne1:    7233.99996565
      Final Ne1:    7234.00000000

=================== Penalty functional idempotency correction ==================
 RMS occupancy error at iteration   1:  0.000571 (step -0.4977 Ne1=   7234.0000)
 RMS occupancy error at iteration   2:  0.000001 (step -0.5000 Ne1=   7234.0000)
            Final RMS occupancy error   :  0.000000 (Ne1=   7234.0000)
               Final occupancy bounds   : [  0.0000,  1.0000]
================================================================================

    3        -1.160060134298E+04     2.0554E-04     1.8602E-04    -2.8761E+00
MG BCs: +ve charge blocks (gridpoints):     30353 (   17113678).
MG BCs: -ve charge blocks (gridpoints):      8256 (    1099022).
MG BCs:     Elided blocks (gridpoints):    170281 (  178083765).
MG BCs: Computational effort saved:  99.9803%.
MG BCs: Charge after coarse-graining:           -9.0009426.
MG DL_MG: Calling solver with defect correction order = 8
MG DL_MG: Solver finished
MG Hartree energy from (\int phi*rho dr):              1441.602915
MG Hartree energy from (\int eps (grad phi)^2 dr):     1440.954309
MG Discrepancy due to finite box and discretization:     -0.648606 (  -0.04499%)
MG Correction to account for finite box:                  0.466754
MG Remaining discrepancy, due to discretization:         -0.181852 (  -0.01261%)
      ideal mu1:      -0.789916958716
             Q0:  -11601.072317037615
             G0:      -0.433178333881
   RMS gradient:       0.000100038997
MG BCs: +ve charge blocks (gridpoints):     30351 (   17114569).
MG BCs: -ve charge blocks (gridpoints):      8256 (    1098826).
MG BCs:     Elided blocks (gridpoints):    170282 (  178083070).
MG BCs: Computational effort saved:  99.9803%.
MG BCs: Charge after coarse-graining:           -9.0009428.
MG DL_MG: Calling solver with defect correction order = 8
MG DL_MG: Solver finished
MG Hartree energy from (\int phi*rho dr):              1442.745743
MG Hartree energy from (\int eps (grad phi)^2 dr):     1442.097083
MG Discrepancy due to finite box and discretization:     -0.648660 (  -0.04496%)
MG Correction to account for finite box:                  0.466682
MG Remaining discrepancy, due to discretization:         -0.181978 (  -0.01261%)
     Trial step:       0.471136065447
             Q1:  -11601.171307075187
 Quadratic coef:       0.105095898291
 Linear coef   :      -0.204085935862
           Qmin:  -11601.171395759749
Quadratic minimum step length (  0.457450035629) accepted
    Initial Ne1:    7233.99999256
      Final Ne1:    7234.00000000

=================== Penalty functional idempotency correction ==================
 RMS occupancy error at iteration   1:  0.000186 (step -0.4992 Ne1=   7234.0000)
            Final RMS occupancy error   :  0.000000 (Ne1=   7234.0000)
               Final occupancy bounds   : [ -0.0000,  1.0000]
================================================================================

    4        -1.160107231704E+04     1.0004E-04     9.0538E-05    -4.7097E-01
MG BCs: +ve charge blocks (gridpoints):     30351 (   17114537).
MG BCs: -ve charge blocks (gridpoints):      8256 (    1098830).
MG BCs:     Elided blocks (gridpoints):    170282 (  178083098).
MG BCs: Computational effort saved:  99.9803%.
MG BCs: Charge after coarse-graining:           -9.0009428.
MG DL_MG: Calling solver with defect correction order = 8
MG DL_MG: Solver finished
MG Hartree energy from (\int phi*rho dr):              1442.712572
MG Hartree energy from (\int eps (grad phi)^2 dr):     1442.063913
MG Discrepancy due to finite box and discretization:     -0.648659 (  -0.04496%)
MG Correction to account for finite box:                  0.466684
MG Remaining discrepancy, due to discretization:         -0.181975 (  -0.01261%)
      ideal mu1:      -0.790485179462
             Q0:  -11601.171823209967
             G0:      -0.107308834710
   RMS gradient:       0.000049930145
MG BCs: +ve charge blocks (gridpoints):     30352 (   17114751).
MG BCs: -ve charge blocks (gridpoints):      8258 (    1098636).
MG BCs:     Elided blocks (gridpoints):    170281 (  178083078).
MG BCs: Computational effort saved:  99.9803%.
MG BCs: Charge after coarse-graining:           -9.0009428.
MG DL_MG: Calling solver with defect correction order = 8
MG DL_MG: Solver finished
MG Hartree energy from (\int phi*rho dr):              1443.102860
MG Hartree energy from (\int eps (grad phi)^2 dr):     1442.454078
MG Discrepancy due to finite box and discretization:     -0.648783 (  -0.04496%)
MG Correction to account for finite box:                  0.466672
MG Remaining discrepancy, due to discretization:         -0.182111 (  -0.01262%)
     Trial step:       0.464242619678
             Q1:  -11601.198413413949
 Quadratic coef:       0.023227130558
 Linear coef   :      -0.049817334540
           Qmin:  -11601.198535149422
Quadratic minimum step length (  0.497851635932) accepted
    Initial Ne1:    7234.00171685
      Final Ne1:    7234.00000000

=================== Penalty functional idempotency correction ==================
 RMS occupancy error at iteration   1:  0.000068 (step -0.4997 Ne1=   7234.0000)
            Final RMS occupancy error   :  0.000000 (Ne1=   7234.0000)
               Final occupancy bounds   : [ -0.0000,  1.0000]
================================================================================

    5        -1.160117182321E+04     4.9930E-05     4.5188E-05    -9.9506E-02
MG BCs: +ve charge blocks (gridpoints):     30353 (   17114753).
MG BCs: -ve charge blocks (gridpoints):      8259 (    1098644).
MG BCs:     Elided blocks (gridpoints):    170280 (  178083068).
MG BCs: Computational effort saved:  99.9803%.
MG BCs: Charge after coarse-graining:           -9.0009428.
MG DL_MG: Calling solver with defect correction order = 8
MG DL_MG: Solver finished
MG Hartree energy from (\int phi*rho dr):              1443.131167
MG Hartree energy from (\int eps (grad phi)^2 dr):     1442.482375
MG Discrepancy due to finite box and discretization:     -0.648791 (  -0.04496%)
MG Correction to account for finite box:                  0.466671
MG Remaining discrepancy, due to discretization:         -0.182121 (  -0.01262%)
      ideal mu1:      -0.790433607036
             Q0:  -11601.198588699568
             G0:      -0.032564849206
   RMS gradient:       0.000027528329
MG BCs: +ve charge blocks (gridpoints):     30354 (   17114319).
MG BCs: -ve charge blocks (gridpoints):      8258 (    1098901).
MG BCs:     Elided blocks (gridpoints):    170279 (  178083245).
MG BCs: Computational effort saved:  99.9803%.
MG BCs: Charge after coarse-graining:           -9.0009426.
MG DL_MG: Calling solver with defect correction order = 8
MG DL_MG: Solver finished
MG Hartree energy from (\int phi*rho dr):              1442.496679
MG Hartree energy from (\int eps (grad phi)^2 dr):     1441.847900
MG Discrepancy due to finite box and discretization:     -0.648779 (  -0.04498%)
MG Correction to account for finite box:                  0.466668
MG Remaining discrepancy, due to discretization:         -0.182110 (  -0.01262%)
     Trial step:       0.480753520711
             Q1:  -11601.208849855815
 Quadratic coef:       0.005394509661
 Linear coef   :      -0.015655665907
           Qmin:  -11601.209947464795
Quadratic minimum step length (  0.697608955904) accepted
    Initial Ne1:    7234.00108563
      Final Ne1:    7234.00000000

=================== Penalty functional idempotency correction ==================
 RMS occupancy error at iteration   1:  0.000042 (step -0.4997 Ne1=   7234.0000)
            Final RMS occupancy error   :  0.000000 (Ne1=   7234.0000)
               Final occupancy bounds   : [ -0.0000,  1.0000]
================================================================================

    6        -1.160119858870E+04     2.7528E-05     2.4914E-05    -2.6765E-02
MG BCs: +ve charge blocks (gridpoints):     30353 (   17114130).
MG BCs: -ve charge blocks (gridpoints):      8258 (    1099042).
MG BCs:     Elided blocks (gridpoints):    170280 (  178083293).
MG BCs: Computational effort saved:  99.9803%.
MG BCs: Charge after coarse-graining:           -9.0009426.
MG DL_MG: Calling solver with defect correction order = 8
MG DL_MG: Solver finished
MG Hartree energy from (\int phi*rho dr):              1442.209724
MG Hartree energy from (\int eps (grad phi)^2 dr):     1441.560952
MG Discrepancy due to finite box and discretization:     -0.648772 (  -0.04498%)
MG Correction to account for finite box:                  0.466667
MG Remaining discrepancy, due to discretization:         -0.182106 (  -0.01263%)
      ideal mu1:      -0.790062000316
             Q0:  -11601.209957712214
             G0:      -0.017447452226
   RMS gradient:       0.000020175470
MG BCs: +ve charge blocks (gridpoints):     30353 (   17114592).
MG BCs: -ve charge blocks (gridpoints):      8256 (    1098731).
MG BCs:     Elided blocks (gridpoints):    170281 (  178083142).
MG BCs: Computational effort saved:  99.9803%.
MG BCs: Charge after coarse-graining:           -9.0009428.
MG DL_MG: Calling solver with defect correction order = 8
MG DL_MG: Solver finished
MG Hartree energy from (\int phi*rho dr):              1442.819386
MG Hartree energy from (\int eps (grad phi)^2 dr):     1442.170655
MG Discrepancy due to finite box and discretization:     -0.648731 (  -0.04496%)
MG Correction to account for finite box:                  0.466649
MG Remaining discrepancy, due to discretization:         -0.182082 (  -0.01262%)
     Trial step:       0.579118262214
             Q1:  -11601.214314064942
 Quadratic coef:       0.005747785484
 Linear coef   :      -0.010104138213
           Qmin:  -11601.214398274988
Quadratic minimum step length (  0.509021342137) accepted
    Initial Ne1:    7234.00019208
      Final Ne1:    7234.00000000

=================== Penalty functional idempotency correction ==================
 RMS occupancy error at iteration   1:  0.000002 (step -0.5000 Ne1=   7234.0000)
            Final RMS occupancy error   :  0.000000 (Ne1=   7234.0000)
               Final occupancy bounds   : [  0.0000,  1.0000]
================================================================================

    7        -1.160120995771E+04     2.0175E-05     1.8259E-05    -1.1369E-02
MG BCs: +ve charge blocks (gridpoints):     30353 (   17114512).
MG BCs: -ve charge blocks (gridpoints):      8256 (    1098788).
MG BCs:     Elided blocks (gridpoints):    170281 (  178083165).
MG BCs: Computational effort saved:  99.9803%.
MG BCs: Charge after coarse-graining:           -9.0009427.
MG DL_MG: Calling solver with defect correction order = 8
MG DL_MG: Solver finished
MG Hartree energy from (\int phi*rho dr):              1442.745472
MG Hartree energy from (\int eps (grad phi)^2 dr):     1442.096736
MG Discrepancy due to finite box and discretization:     -0.648736 (  -0.04497%)
MG Correction to account for finite box:                  0.466651
MG Remaining discrepancy, due to discretization:         -0.182085 (  -0.01262%)
      ideal mu1:      -0.790460594478
             Q0:  -11601.214398504584
             G0:      -0.010226715729
   RMS gradient:       0.000015447086
MG BCs: +ve charge blocks (gridpoints):     30352 (   17114573).
MG BCs: -ve charge blocks (gridpoints):      8256 (    1098736).
MG BCs:     Elided blocks (gridpoints):    170282 (  178083156).
MG BCs: Computational effort saved:  99.9803%.
MG BCs: Charge after coarse-graining:           -9.0009428.
MG DL_MG: Calling solver with defect correction order = 8
MG DL_MG: Solver finished
MG Hartree energy from (\int phi*rho dr):              1442.822656
MG Hartree energy from (\int eps (grad phi)^2 dr):     1442.173966
MG Discrepancy due to finite box and discretization:     -0.648690 (  -0.04496%)
MG Correction to account for finite box:                  0.466636
MG Remaining discrepancy, due to discretization:         -0.182054 (  -0.01262%)
     Trial step:       0.542939734306
             Q1:  -11601.218507009442
 Quadratic coef:       0.001443985462
 Linear coef   :      -0.005552490321
           Qmin:  -11601.219736187955
Quadratic minimum step length (  1.043870488475) accepted
    Initial Ne1:    7234.00022948
      Final Ne1:    7234.00000000

=================== Penalty functional idempotency correction ==================
 RMS occupancy error at iteration   1:  0.000028 (step -0.4991 Ne1=   7234.0000)
            Final RMS occupancy error   :  0.000000 (Ne1=   7234.0000)
               Final occupancy bounds   : [ -0.0000,  1.0000]
================================================================================

    8        -1.160121439850E+04     1.5447E-05     1.3980E-05    -4.4408E-03
MG BCs: +ve charge blocks (gridpoints):     30353 (   17114681).
MG BCs: -ve charge blocks (gridpoints):      8255 (    1098679).
MG BCs:     Elided blocks (gridpoints):    170281 (  178083105).
MG BCs: Computational effort saved:  99.9803%.
MG BCs: Charge after coarse-graining:           -9.0009428.
MG DL_MG: Calling solver with defect correction order = 8
MG DL_MG: Solver finished
MG Hartree energy from (\int phi*rho dr):              1442.892074
MG Hartree energy from (\int eps (grad phi)^2 dr):     1442.243428
MG Discrepancy due to finite box and discretization:     -0.648645 (  -0.04495%)
MG Correction to account for finite box:                  0.466620
MG Remaining discrepancy, due to discretization:         -0.182026 (  -0.01262%)
      ideal mu1:      -0.790430334765
             Q0:  -11601.219719733112
             G0:      -0.015205642184
   RMS gradient:       0.000018891508
MG BCs: +ve charge blocks (gridpoints):     30351 (   17114519).
MG BCs: -ve charge blocks (gridpoints):      8256 (    1098836).
MG BCs:     Elided blocks (gridpoints):    170283 (  178083110).
MG BCs: Computational effort saved:  99.9803%.
MG BCs: Charge after coarse-graining:           -9.0009428.
MG DL_MG: Calling solver with defect correction order = 8
MG DL_MG: Solver finished
MG Hartree energy from (\int phi*rho dr):              1442.536443
MG Hartree energy from (\int eps (grad phi)^2 dr):     1441.887899
MG Discrepancy due to finite box and discretization:     -0.648543 (  -0.04496%)
MG Correction to account for finite box:                  0.466577
MG Remaining discrepancy, due to discretization:         -0.181967 (  -0.01261%)
     Trial step:       0.752833823405
             Q1:  -11601.227070733905
 Quadratic coef:       0.004096320950
 Linear coef   :      -0.011447321743
           Qmin:  -11601.227717225049
Quadratic minimum step length (  1.051911105105) accepted
    Initial Ne1:    7234.00072362
      Final Ne1:    7234.00000000

=================== Penalty functional idempotency correction ==================
 RMS occupancy error at iteration   1:  0.000178 (step -0.4936 Ne1=   7234.0000)
 RMS occupancy error at iteration   2:  0.000001 (step -0.5000 Ne1=   7234.0000)
            Final RMS occupancy error   :  0.000000 (Ne1=   7234.0000)
               Final occupancy bounds   : [  0.0000,  1.0000]
================================================================================

    9        -1.160121971973E+04     1.8892E-05     1.7097E-05    -5.3212E-03
MG BCs: +ve charge blocks (gridpoints):     30351 (   17114485).
MG BCs: -ve charge blocks (gridpoints):      8256 (    1098896).
MG BCs:     Elided blocks (gridpoints):    170283 (  178083084).
MG BCs: Computational effort saved:  99.9803%.
MG BCs: Charge after coarse-graining:           -9.0009427.
MG DL_MG: Calling solver with defect correction order = 8
MG DL_MG: Solver finished
MG Hartree energy from (\int phi*rho dr):              1442.390919
MG Hartree energy from (\int eps (grad phi)^2 dr):     1441.742420
MG Discrepancy due to finite box and discretization:     -0.648499 (  -0.04496%)
MG Correction to account for finite box:                  0.466556
MG Remaining discrepancy, due to discretization:         -0.181942 (  -0.01261%)
      ideal mu1:      -0.789887501564
   10        -1.160122761271E+04     2.2345E-05     2.0223E-05    -7.8930E-03
Finished density kernel iterations (  10)

Writing density kernel to file "complex_11121.vacuum_dkn" ... done


>>> Density kernel optimised for the current NGWF basis:
     ~~~~~~~~~~~~~~~~~~~~~~~~~~~~~~~~~~~~~~~~~~~~~~~~~~~~~~~~~~~
     Total energy                =  -1.16012276127108E+04  Eh
     Estimated bandgap           =  -2.5583E-01  Eh
     RMS occupancy error         =   4.2683E-11
     [H,K] commutator            =   2.0223E-05
     Occupancy bounds            = [  0.000:  1.000]
     ~~~~~~~~~~~~~~~~~~~~~~~~~~~~~~~~~~~~~~~~~~~~~~~~~~~~~~~~~~~




################################################################################
########################### NGWF CG iteration  001 #############################
################################################################################
****** Reciprocal space K.E. preconditioning with k_zero =  3.5000 a0^-1 *******

>>> Checking for convergence of NGWFs:   NOT CONVERGED
  ========================================================================
         NGWF RMS gradient =  1.5922E-03 >  2.0000E-06  | above tolerance
  ========================================================================

>>> Improving NGWFs using line search:
============ Calculation of NGWF S^-1 using Hotelling algorithm ================ 
         Iteration  |  Frobenius norm and Maximum abs value    (of I-S*S_n^-1)   
               1       0.19798309E+00     0.51655423E-02
               2       0.90749890E-03     0.37346992E-04
               3       0.32789396E-07     0.21029939E-08
               4       0.13360469E-12     0.59952043E-14
================================================================================
MG BCs: +ve charge blocks (gridpoints):     29811 (   17064838).
MG BCs: -ve charge blocks (gridpoints):      8276 (    1098875).
MG BCs:     Elided blocks (gridpoints):    170824 (  178132752).
MG BCs: Computational effort saved:  99.9806%.
MG BCs: Charge after coarse-graining:           -9.0009436.
MG DL_MG: Calling solver with defect correction order = 8
MG DL_MG: Solver finished
MG Hartree energy from (\int phi*rho dr):              1410.483447
MG Hartree energy from (\int eps (grad phi)^2 dr):     1409.835750
MG Discrepancy due to finite box and discretization:     -0.647697 (  -0.04592%)
MG Correction to account for finite box:                  0.466499
MG Remaining discrepancy, due to discretization:         -0.181198 (  -0.01285%)
============ Calculation of NGWF S^-1 using Hotelling algorithm ================ 
         Iteration  |  Frobenius norm and Maximum abs value    (of I-S*S_n^-1)   
               1       0.18478436E+01     0.40877119E-01
               2       0.70871350E-01     0.22741058E-02
               3       0.14249463E-03     0.84708119E-05
               4       0.10829105E-08     0.13859066E-09
               5       0.11302114E-12     0.48849813E-14
================================================================================
------------------------------- NGWF line search -------------------------------
RMS gradient                =       0.00159219503954
Trial step length           =               0.122474
Gradient along search dir.  =       -277.08372042586
Functional at step 0        =  -11601.22761271079071
Functional at step 1        =  -11632.56700409809127
Functional predicted        =  -11712.11935922230441
Selected quadratic step     =               0.800421
--------------------------- NGWF line search finished --------------------------
                                               
Writing NGWFs to file "complex_11121.vacuum_tightbox_ngwfs"....  done

>>> Optimising kernel for current NGWFs:
   Initial electron number for spin 1:    7268.53579135
     Final electron number for spin 1:    7234.00000000

=================== Penalty functional idempotency correction ==================
 RMS occupancy error at iteration   1:  0.004283 (step -0.4858 Ne1=   7234.0000)
 RMS occupancy error at iteration   2:  0.000071 (step -0.5003 Ne1=   7234.0000)
            Final RMS occupancy error   :  0.000000 (Ne1=   7234.0000)
               Final occupancy bounds   : [  0.0000,  1.0000]
================================================================================

................................................................................
<<<<<<<<<<<<<< LNV (Original version) density kernel optimisation >>>>>>>>>>>>>>
~~~~~~~~~~~~~~~~~~~~~~~~~~~~~~~~~~~~~~~~~~~~~~~~~~~~~~~~~~~~~~~~~~~~~~~~~~~~~~~~
   iter  |      energy (Eh)       | rms gradient |  commutator  |   dE (Eh)
MG BCs: +ve charge blocks (gridpoints):     24279 (   16809301).
MG BCs: -ve charge blocks (gridpoints):      8422 (    1082788).
MG BCs:     Elided blocks (gridpoints):    176361 (  178404376).
MG BCs: Computational effort saved:  99.9833%.
MG BCs: Charge after coarse-graining:           -9.0006460.
MG DL_MG: Calling solver with defect correction order = 8
MG DL_MG: Solver finished
MG Hartree energy from (\int phi*rho dr):              1256.029135
MG Hartree energy from (\int eps (grad phi)^2 dr):     1255.381270
MG Discrepancy due to finite box and discretization:     -0.647865 (  -0.05158%)
MG Correction to account for finite box:                  0.466227
MG Remaining discrepancy, due to discretization:         -0.181638 (  -0.01446%)
      ideal mu1:      -0.728283917734
             Q0:  -11711.324389774003
             G0:      -9.793699707924
   RMS gradient:       0.000478003472
MG BCs: +ve charge blocks (gridpoints):     24346 (   16829186).
MG BCs: -ve charge blocks (gridpoints):      8409 (    1078025).
MG BCs:     Elided blocks (gridpoints):    176294 (  178389254).
MG BCs: Computational effort saved:  99.9833%.
MG BCs: Charge after coarse-graining:           -9.0006406.
MG DL_MG: Calling solver with defect correction order = 8
MG DL_MG: Solver finished
MG Hartree energy from (\int phi*rho dr):              1276.454321
MG Hartree energy from (\int eps (grad phi)^2 dr):     1275.799543
MG Discrepancy due to finite box and discretization:     -0.654778 (  -0.05130%)
MG Correction to account for finite box:                  0.465813
MG Remaining discrepancy, due to discretization:         -0.188965 (  -0.01480%)
     Trial step:       0.889895645084
             Q1:  -11708.297656061128
 Quadratic coef:      11.742104432215
 Linear coef   :      -8.715370719339
           Qmin:  -11712.941597473313
Quadratic minimum step length (  0.330254704053) accepted
    Initial Ne1:    7233.99958434
      Final Ne1:    7234.00000000

=================== Penalty functional idempotency correction ==================
 RMS occupancy error at iteration   1:  0.000354 (step -0.4986 Ne1=   7234.0000)
 RMS occupancy error at iteration   2:  0.000000 (step -0.5000 Ne1=   7234.0000)
            Final RMS occupancy error   :  0.000000 (Ne1=   7234.0000)
               Final occupancy bounds   : [  0.0000,  1.0000]
================================================================================

    1        -1.171132438977E+04     4.7800E-04     4.3261E-04
MG BCs: +ve charge blocks (gridpoints):     24309 (   16816967).
MG BCs: -ve charge blocks (gridpoints):      8416 (    1081019).
MG BCs:     Elided blocks (gridpoints):    176331 (  178398479).
MG BCs: Computational effort saved:  99.9833%.
MG BCs: Charge after coarse-graining:           -9.0006438.
MG DL_MG: Calling solver with defect correction order = 8
MG DL_MG: Solver finished
MG Hartree energy from (\int phi*rho dr):              1262.258070
MG Hartree energy from (\int eps (grad phi)^2 dr):     1261.607771
MG Discrepancy due to finite box and discretization:     -0.650299 (  -0.05152%)
MG Correction to account for finite box:                  0.466050
MG Remaining discrepancy, due to discretization:         -0.184249 (  -0.01460%)
      ideal mu1:      -0.735424966921
             Q0:  -11712.904476182535
             G0:      -0.984624643423
   RMS gradient:       0.000152810396
MG BCs: +ve charge blocks (gridpoints):     24307 (   16816830).
MG BCs: -ve charge blocks (gridpoints):      8417 (    1081977).
MG BCs:     Elided blocks (gridpoints):    176333 (  178397658).
MG BCs: Computational effort saved:  99.9833%.
MG BCs: Charge after coarse-graining:           -9.0006436.
MG DL_MG: Calling solver with defect correction order = 8
MG DL_MG: Solver finished
MG Hartree energy from (\int phi*rho dr):              1263.502409
MG Hartree energy from (\int eps (grad phi)^2 dr):     1262.851730
MG Discrepancy due to finite box and discretization:     -0.650679 (  -0.05150%)
MG Correction to account for finite box:                  0.466031
MG Remaining discrepancy, due to discretization:         -0.184649 (  -0.01461%)
     Trial step:       0.542118273908
             Q1:  -11713.096205144073
 Quadratic coef:       0.342054050601
 Linear coef   :      -0.533783012140
           Qmin:  -11713.112721270956
Quadratic minimum step length (  0.422993858242) accepted
    Initial Ne1:    7233.99994558
      Final Ne1:    7234.00000000

=================== Penalty functional idempotency correction ==================
 RMS occupancy error at iteration   1:  0.000141 (step -0.4994 Ne1=   7234.0000)
            Final RMS occupancy error   :  0.000000 (Ne1=   7234.0000)
               Final occupancy bounds   : [ -0.0000,  1.0000]
================================================================================

    2        -1.171290447618E+04     1.5281E-04     1.3830E-04    -1.5801E+00
MG BCs: +ve charge blocks (gridpoints):     24307 (   16816899).
MG BCs: -ve charge blocks (gridpoints):      8415 (    1081741).
MG BCs:     Elided blocks (gridpoints):    176333 (  178397825).
MG BCs: Computational effort saved:  99.9833%.
MG BCs: Charge after coarse-graining:           -9.0006436.
MG DL_MG: Calling solver with defect correction order = 8
MG DL_MG: Solver finished
MG Hartree energy from (\int phi*rho dr):              1263.228328
MG Hartree energy from (\int eps (grad phi)^2 dr):     1262.577736
MG Discrepancy due to finite box and discretization:     -0.650593 (  -0.05150%)
MG Correction to account for finite box:                  0.466035
MG Remaining discrepancy, due to discretization:         -0.184558 (  -0.01461%)
      ideal mu1:      -0.736427131014
             Q0:  -11713.113203796791
             G0:      -0.146040077375
   RMS gradient:       0.000058304034
MG BCs: +ve charge blocks (gridpoints):     24304 (   16816161).
MG BCs: -ve charge blocks (gridpoints):      8416 (    1082166).
MG BCs:     Elided blocks (gridpoints):    176336 (  178398138).
MG BCs: Computational effort saved:  99.9833%.
MG BCs: Charge after coarse-graining:           -9.0006437.
MG DL_MG: Calling solver with defect correction order = 8
MG DL_MG: Solver finished
MG Hartree energy from (\int phi*rho dr):              1262.738831
MG Hartree energy from (\int eps (grad phi)^2 dr):     1262.088277
MG Discrepancy due to finite box and discretization:     -0.650554 (  -0.05152%)
MG Correction to account for finite box:                  0.466021
MG Remaining discrepancy, due to discretization:         -0.184533 (  -0.01461%)
     Trial step:       0.478866056746
             Q1:  -11713.157679943368
 Quadratic coef:       0.025457489402
 Linear coef   :      -0.069933635979
           Qmin:  -11713.161232034807
Quadratic minimum step length (  0.657740517258) accepted
    Initial Ne1:    7234.00059948
      Final Ne1:    7234.00000000

=================== Penalty functional idempotency correction ==================
 RMS occupancy error at iteration   1:  0.000061 (step -0.4998 Ne1=   7234.0000)
            Final RMS occupancy error   :  0.000000 (Ne1=   7234.0000)
               Final occupancy bounds   : [ -0.0000,  1.0000]
================================================================================

    3        -1.171311320380E+04     5.8304E-05     5.2767E-05    -2.0873E-01
MG BCs: +ve charge blocks (gridpoints):     24303 (   16815958).
MG BCs: -ve charge blocks (gridpoints):      8416 (    1082280).
MG BCs:     Elided blocks (gridpoints):    176337 (  178398227).
MG BCs: Computational effort saved:  99.9833%.
MG BCs: Charge after coarse-graining:           -9.0006437.
MG DL_MG: Calling solver with defect correction order = 8
MG DL_MG: Solver finished
MG Hartree energy from (\int phi*rho dr):              1262.556093
MG Hartree energy from (\int eps (grad phi)^2 dr):     1261.905553
MG Discrepancy due to finite box and discretization:     -0.650540 (  -0.05153%)
MG Correction to account for finite box:                  0.466016
MG Remaining discrepancy, due to discretization:         -0.184524 (  -0.01462%)
      ideal mu1:      -0.735542831673
             Q0:  -11713.161317675724
             G0:      -0.036567341692
   RMS gradient:       0.000029166674
MG BCs: +ve charge blocks (gridpoints):     24305 (   16815688).
MG BCs: -ve charge blocks (gridpoints):      8417 (    1082392).
MG BCs:     Elided blocks (gridpoints):    176335 (  178398385).
MG BCs: Computational effort saved:  99.9833%.
MG BCs: Charge after coarse-graining:           -9.0006437.
MG DL_MG: Calling solver with defect correction order = 8
MG DL_MG: Solver finished
MG Hartree energy from (\int phi*rho dr):              1262.558320
MG Hartree energy from (\int eps (grad phi)^2 dr):     1261.907892
MG Discrepancy due to finite box and discretization:     -0.650428 (  -0.05152%)
MG Correction to account for finite box:                  0.466009
MG Remaining discrepancy, due to discretization:         -0.184419 (  -0.01461%)
     Trial step:       0.561221531894
             Q1:  -11713.170419609058
 Quadratic coef:       0.011420446188
 Linear coef   :      -0.020522379521
           Qmin:  -11713.170537281821
Quadratic minimum step length (  0.504253559083) accepted
    Initial Ne1:    7234.00022638
      Final Ne1:    7234.00000000

=================== Penalty functional idempotency correction ==================
 RMS occupancy error at iteration   1:  0.000019 (step -0.4999 Ne1=   7234.0000)
            Final RMS occupancy error   :  0.000000 (Ne1=   7234.0000)
               Final occupancy bounds   : [ -0.0000,  1.0000]
================================================================================

    4        -1.171316131768E+04     2.9167E-05     2.6397E-05    -4.8114E-02
MG BCs: +ve charge blocks (gridpoints):     24305 (   16815722).
MG BCs: -ve charge blocks (gridpoints):      8417 (    1082385).
MG BCs:     Elided blocks (gridpoints):    176335 (  178398358).
MG BCs: Computational effort saved:  99.9833%.
MG BCs: Charge after coarse-graining:           -9.0006437.
MG DL_MG: Calling solver with defect correction order = 8
MG DL_MG: Solver finished
MG Hartree energy from (\int phi*rho dr):              1262.557921
MG Hartree energy from (\int eps (grad phi)^2 dr):     1261.907482
MG Discrepancy due to finite box and discretization:     -0.650439 (  -0.05152%)
MG Correction to account for finite box:                  0.466009
MG Remaining discrepancy, due to discretization:         -0.184430 (  -0.01461%)
      ideal mu1:      -0.735451283097
             Q0:  -11713.170542540727
             G0:      -0.012851461233
   RMS gradient:       0.000017311887
MG BCs: +ve charge blocks (gridpoints):     24305 (   16816212).
MG BCs: -ve charge blocks (gridpoints):      8417 (    1082184).
MG BCs:     Elided blocks (gridpoints):    176335 (  178398069).
MG BCs: Computational effort saved:  99.9833%.
MG BCs: Charge after coarse-graining:           -9.0006436.
MG DL_MG: Calling solver with defect correction order = 8
MG DL_MG: Solver finished
MG Hartree energy from (\int phi*rho dr):              1262.965393
MG Hartree energy from (\int eps (grad phi)^2 dr):     1262.315004
MG Discrepancy due to finite box and discretization:     -0.650389 (  -0.05150%)
MG Correction to account for finite box:                  0.465995
MG Remaining discrepancy, due to discretization:         -0.184394 (  -0.01460%)
     Trial step:       0.531975520952
             Q1:  -11713.174291639938
 Quadratic coef:       0.003087563573
 Linear coef   :      -0.006836662784
           Qmin:  -11713.174327074788
Quadratic minimum step length (  0.588965564635) accepted
    Initial Ne1:    7234.00011170
      Final Ne1:    7234.00000000

=================== Penalty functional idempotency correction ==================
 RMS occupancy error at iteration   1:  0.000012 (step -0.4999 Ne1=   7234.0000)
            Final RMS occupancy error   :  0.000000 (Ne1=   7234.0000)
               Final occupancy bounds   : [ -0.0000,  1.0000]
================================================================================

    5        -1.171317054254E+04     1.7312E-05     1.5668E-05    -9.2249E-03
MG BCs: +ve charge blocks (gridpoints):     24306 (   16816270).
MG BCs: -ve charge blocks (gridpoints):      8417 (    1082150).
MG BCs:     Elided blocks (gridpoints):    176334 (  178398045).
MG BCs: Computational effort saved:  99.9833%.
MG BCs: Charge after coarse-graining:           -9.0006436.
MG DL_MG: Calling solver with defect correction order = 8
MG DL_MG: Solver finished
MG Hartree energy from (\int phi*rho dr):              1263.009083
MG Hartree energy from (\int eps (grad phi)^2 dr):     1262.358699
MG Discrepancy due to finite box and discretization:     -0.650383 (  -0.05149%)
MG Correction to account for finite box:                  0.465993
MG Remaining discrepancy, due to discretization:         -0.184390 (  -0.01460%)
      ideal mu1:      -0.735820828307
             Q0:  -11713.174328268389
             G0:      -0.004833421061
   RMS gradient:       0.000010618082
MG BCs: +ve charge blocks (gridpoints):     24305 (   16816271).
MG BCs: -ve charge blocks (gridpoints):      8417 (    1082183).
MG BCs:     Elided blocks (gridpoints):    176335 (  178398011).
MG BCs: Computational effort saved:  99.9833%.
MG BCs: Charge after coarse-graining:           -9.0006436.
MG DL_MG: Calling solver with defect correction order = 8
MG DL_MG: Solver finished
MG Hartree energy from (\int phi*rho dr):              1262.978992
MG Hartree energy from (\int eps (grad phi)^2 dr):     1262.328628
MG Discrepancy due to finite box and discretization:     -0.650364 (  -0.05149%)
MG Correction to account for finite box:                  0.465978
MG Remaining discrepancy, due to discretization:         -0.184386 (  -0.01460%)
     Trial step:       0.559745712864
             Q1:  -11713.176129465690
 Quadratic coef:       0.000904289416
 Linear coef   :      -0.002705486717
           Qmin:  -11713.176351862343
Quadratic minimum step length (  0.837334023910) accepted
    Initial Ne1:    7234.00011676
      Final Ne1:    7234.00000000

=================== Penalty functional idempotency correction ==================
 RMS occupancy error at iteration   1:  0.000016 (step -0.4994 Ne1=   7234.0000)
            Final RMS occupancy error   :  0.000000 (Ne1=   7234.0000)
               Final occupancy bounds   : [ -0.0000,  1.0000]
================================================================================

    6        -1.171317432827E+04     1.0618E-05     9.6097E-06    -3.7857E-03
MG BCs: +ve charge blocks (gridpoints):     24305 (   16816258).
MG BCs: -ve charge blocks (gridpoints):      8417 (    1082204).
MG BCs:     Elided blocks (gridpoints):    176335 (  178398003).
MG BCs: Computational effort saved:  99.9833%.
MG BCs: Charge after coarse-graining:           -9.0006436.
MG DL_MG: Calling solver with defect correction order = 8
MG DL_MG: Solver finished
MG Hartree energy from (\int phi*rho dr):              1262.963897
MG Hartree energy from (\int eps (grad phi)^2 dr):     1262.313543
MG Discrepancy due to finite box and discretization:     -0.650354 (  -0.05149%)
MG Correction to account for finite box:                  0.465970
MG Remaining discrepancy, due to discretization:         -0.184384 (  -0.01460%)
      ideal mu1:      -0.735728564691
             Q0:  -11713.176350224763
             G0:      -0.004021784503
   RMS gradient:       0.000009686504
MG BCs: +ve charge blocks (gridpoints):     24305 (   16815931).
MG BCs: -ve charge blocks (gridpoints):      8417 (    1082326).
MG BCs:     Elided blocks (gridpoints):    176335 (  178398208).
MG BCs: Computational effort saved:  99.9833%.
MG BCs: Charge after coarse-graining:           -9.0006436.
MG DL_MG: Calling solver with defect correction order = 8
MG DL_MG: Solver finished
MG Hartree energy from (\int phi*rho dr):              1262.808879
MG Hartree energy from (\int eps (grad phi)^2 dr):     1262.158511
MG Discrepancy due to finite box and discretization:     -0.650367 (  -0.05150%)
MG Correction to account for finite box:                  0.465972
MG Remaining discrepancy, due to discretization:         -0.184396 (  -0.01460%)
     Trial step:       0.684612394073
             Q1:  -11713.177166060428
 Quadratic coef:       0.001937527852
 Linear coef   :      -0.002753363517
           Qmin:  -11713.177328405625
Quadratic minimum step length (  0.486441211041) accepted
    Initial Ne1:    7234.00014042
      Final Ne1:    7234.00000000

=================== Penalty functional idempotency correction ==================
 RMS occupancy error at iteration   1:  0.000001 (step -0.5000 Ne1=   7234.0000)
            Final RMS occupancy error   :  0.000000 (Ne1=   7234.0000)
               Final occupancy bounds   : [  0.0000,  1.0000]
[...]
MG DL_MG: Calling solver with defect correction order = 8
MG DL_MG: Solver finished
MG Hartree energy from (\int phi*rho dr):              1220.473383
MG Hartree energy from (\int eps (grad phi)^2 dr):     1220.283480
MG Discrepancy due to finite box and discretization:     -0.189903 (  -0.01556%)
MG Correction to account for finite box:                  0.006400
MG Remaining discrepancy, due to discretization:         -0.183503 (  -0.01504%)
             Q2:  -11747.463076800108
  Cubic LS coeff:       0.905840776204
Predicted energy:  -11747.463076800119
Cubic minimum step length accepted
    Initial Ne1:    7234.00000000
      Final Ne1:    7234.00000000

=================== Penalty functional idempotency correction ==================
 RMS occupancy error at iteration   1:  0.000000 (step -0.5000 Ne1=   7234.0000)
            Final RMS occupancy error   :  0.000000 (Ne1=   7234.0000)
               Final occupancy bounds   : [  0.0000,  1.0000]
================================================================================

    7        -1.174746307680E+04     9.2695E-09     8.3892E-09    -2.4447E-09

Reusing previously generated solute cavity.
MG BCs: +ve charge blocks (gridpoints):     28377 (   18970299).
MG BCs: -ve charge blocks (gridpoints):      8401 (    1051026).
MG BCs:     Elided blocks (gridpoints):    172263 (  176275140).
MG BCs: Computational effort saved:  99.9813%.
MG BCs: Charge after coarse-graining:           -9.0009101.
MG DL_MG: Calling solver with defect correction order = 8
MG DL_MG: Solver finished
MG Hartree energy from (\int phi*rho dr):              1220.473382
MG Hartree energy from (\int eps (grad phi)^2 dr):     1220.283479
MG Discrepancy due to finite box and discretization:     -0.189903 (  -0.01556%)
MG Correction to account for finite box:                  0.006400
MG Remaining discrepancy, due to discretization:         -0.183503 (  -0.01504%)
      ideal mu1:      -0.482475543314
             Q0:  -11747.463076800108
             G0:      -0.000000004116
   RMS gradient:       0.000000008875

Reusing previously generated solute cavity.
MG BCs: +ve charge blocks (gridpoints):     28377 (   18970298).
MG BCs: -ve charge blocks (gridpoints):      8401 (    1051026).
MG BCs:     Elided blocks (gridpoints):    172263 (  176275141).
MG BCs: Computational effort saved:  99.9813%.
MG BCs: Charge after coarse-graining:           -9.0009101.
MG DL_MG: Calling solver with defect correction order = 8
MG DL_MG: Solver finished
MG Hartree energy from (\int phi*rho dr):              1220.473355
MG Hartree energy from (\int eps (grad phi)^2 dr):     1220.283452
MG Discrepancy due to finite box and discretization:     -0.189903 (  -0.01556%)
MG Correction to account for finite box:                  0.006400
MG Remaining discrepancy, due to discretization:         -0.183503 (  -0.01504%)
     Trial step:       0.639039152519
             Q1:  -11747.463076801389
 Quadratic coef:       0.000000001350
 Linear coef   :      -0.000000002630
           Qmin:  -11747.463076801390
Quadratic minimum step length (  0.622716435681) accepted
    Initial Ne1:    7234.00000000
      Final Ne1:    7234.00000000

=================== Penalty functional idempotency correction ==================
 RMS occupancy error at iteration   1:  0.000000 (step -0.5000 Ne1=   7234.0000)
            Final RMS occupancy error   :  0.000000 (Ne1=   7234.0000)
               Final occupancy bounds   : [  0.0000,  1.0000]
================================================================================

    8        -1.174746307680E+04     8.8746E-09     8.0318E-09    -3.8417E-09

Reusing previously generated solute cavity.
MG BCs: +ve charge blocks (gridpoints):     28377 (   18970298).
MG BCs: -ve charge blocks (gridpoints):      8401 (    1051026).
MG BCs:     Elided blocks (gridpoints):    172263 (  176275141).
MG BCs: Computational effort saved:  99.9813%.
MG BCs: Charge after coarse-graining:           -9.0009101.
MG DL_MG: Calling solver with defect correction order = 8
MG DL_MG: Solver finished
MG Hartree energy from (\int phi*rho dr):              1220.473356
MG Hartree energy from (\int eps (grad phi)^2 dr):     1220.283453
MG Discrepancy due to finite box and discretization:     -0.189903 (  -0.01556%)
MG Correction to account for finite box:                  0.006400
MG Remaining discrepancy, due to discretization:         -0.183503 (  -0.01504%)
      ideal mu1:      -0.482475517075
             Q0:  -11747.463076801389
             G0:      -0.000000001966
   RMS gradient:       0.000000005388

Reusing previously generated solute cavity.
MG BCs: +ve charge blocks (gridpoints):     28377 (   18970298).
MG BCs: -ve charge blocks (gridpoints):      8401 (    1051026).
MG BCs:     Elided blocks (gridpoints):    172263 (  176275141).
MG BCs: Computational effort saved:  99.9813%.
MG BCs: Charge after coarse-graining:           -9.0009101.
MG DL_MG: Calling solver with defect correction order = 8
MG DL_MG: Solver finished
MG Hartree energy from (\int phi*rho dr):              1220.473368
MG Hartree energy from (\int eps (grad phi)^2 dr):     1220.283465
MG Discrepancy due to finite box and discretization:     -0.189903 (  -0.01556%)
MG Correction to account for finite box:                  0.006400
MG Remaining discrepancy, due to discretization:         -0.183503 (  -0.01504%)
     Trial step:       0.630825002134
             Q1:  -11747.463076801738
 Quadratic coef:       0.000000000891
 Linear coef   :      -0.000000001240
           Qmin:  -11747.463076801820
Quadratic minimum step length (  0.438817226621) accepted
    Initial Ne1:    7234.00000000
      Final Ne1:    7234.00000000

=================== Penalty functional idempotency correction ==================
 RMS occupancy error at iteration   1:  0.000000 (step -0.5000 Ne1=   7234.0000)
            Final RMS occupancy error   :  0.000000 (Ne1=   7234.0000)
               Final occupancy bounds   : [ -0.0000,  1.0000]
================================================================================

    9        -1.174746307680E+04     5.3878E-09     4.8761E-09    -1.2806E-09

Reusing previously generated solute cavity.
MG BCs: +ve charge blocks (gridpoints):     28377 (   18970298).
MG BCs: -ve charge blocks (gridpoints):      8401 (    1051026).
MG BCs:     Elided blocks (gridpoints):    172263 (  176275141).
MG BCs: Computational effort saved:  99.9813%.
MG BCs: Charge after coarse-graining:           -9.0009101.
MG DL_MG: Calling solver with defect correction order = 8
MG DL_MG: Solver finished
MG Hartree energy from (\int phi*rho dr):              1220.473364
MG Hartree energy from (\int eps (grad phi)^2 dr):     1220.283461
MG Discrepancy due to finite box and discretization:     -0.189903 (  -0.01556%)
MG Correction to account for finite box:                  0.006400
MG Remaining discrepancy, due to discretization:         -0.183503 (  -0.01504%)
      ideal mu1:      -0.482475523528
   10        -1.174746307680E+04     3.9425E-09     3.5681E-09    -2.3283E-10
Finished density kernel iterations (  10)

Writing density kernel to file "complex_11121.dkn" ... done


>>> Density kernel optimised for the current NGWF basis:
     ~~~~~~~~~~~~~~~~~~~~~~~~~~~~~~~~~~~~~~~~~~~~~~~~~~~~~~~~~~~
     Total energy                =  -1.17474630768016E+04  Eh
     Estimated bandgap           =   9.5419E-02  Eh
     RMS occupancy error         =   5.4908E-16
     [H,K] commutator            =   3.5681E-09
     Occupancy bounds            = [ -0.000:  1.000]
     ~~~~~~~~~~~~~~~~~~~~~~~~~~~~~~~~~~~~~~~~~~~~~~~~~~~~~~~~~~~




################################################################################
########################### NGWF CG iteration  004 #############################
################################################################################
****** Reciprocal space K.E. preconditioning with k_zero =  3.5000 a0^-1 *******

>>> Checking for convergence of NGWFs: 
           ........................................................
           |         *** NGWF optimisation converged ***          |
           | RMS NGWF gradient =    0.00000192152316              |
           | Criteria satisfied:                                  |
           | -> RMS NGWF gradient lower than set threshold.       |
           ========================================================

Reusing previously generated solute cavity.
MG BCs: +ve charge blocks (gridpoints):     28377 (   18970298).
MG BCs: -ve charge blocks (gridpoints):      8401 (    1051026).
MG BCs:     Elided blocks (gridpoints):    172263 (  176275141).
MG BCs: Computational effort saved:  99.9813%.
MG BCs: Charge after coarse-graining:           -9.0009101.
MG DL_MG: Calling solver with defect correction order = 8
MG DL_MG: Solver finished
MG Hartree energy from (\int phi*rho dr):              1220.473364
MG Hartree energy from (\int eps (grad phi)^2 dr):     1220.283461
MG Discrepancy due to finite box and discretization:     -0.189903 (  -0.01556%)
MG Correction to account for finite box:                  0.006400
MG Remaining discrepancy, due to discretization:         -0.183503 (  -0.01504%)

================================================================================
           ---------------- ENERGY COMPONENTS (Eh) ----------------
           | Kinetic                    :     8574.60826403076680 |
           | Pseudo. (local,OBC,corr'd) :    -5072.09530191123031 |
           | Pseudopotential (non-local):     1410.42931565265599 |
           | Hartree (molecular)        :     1220.47336426106244 |
           | Exchange-correlation       :    -3376.54377372605677 |
           | Ion-ion (open BC)          :   837855.21875182865188 |
           | Dispersion Correction      :       -3.28178438389255 |
           | Smeared ion non-self corr. :  -837807.00156919902656 |
           | Smeared ion self corr.     :   -14549.92364409075526 |
           | Solvent cavitation energy  :        2.32429328870068 |
           | Solute-solvent dis-rep en. :       -1.67099255257913 |
           | Total                      :   -11747.46307680167956 |
           --------------------------------------------------------
           ------ LOCAL ENERGY COMPONENTS FROM MATRIX TRACES ------
           | Pseudopotential (local)    :    -5072.09530191124395 |
           | Hartree                    :    -2008.63326137408967 |
           --------------------------------------------------------
           Integrated density           :     7233.99999999802822
           Integrated density tr(KS)    :     7233.99999999999909
================================================================================


                        <<<<< CALCULATION SUMMARY >>>>>                         
|ITER|    RMS GRADIENT   |     TOTAL ENERGY    |   step   |     Epredicted              
   0     0.00004034040602 -11747.39880206563976   0.623692 -11747.45426965960360        
   1     0.00000981492691 -11747.46253577375319   0.085375 -11747.46298523504447        
   2     0.00000431559685 -11747.46305869263597   0.015523 -11747.46307449188134        
   3     0.00000192152316 -11747.46307680162136  <-- CG                                 

=================== Finished the calculation in solvent ========================
= Adjusting the following parameters: 
= read_denskern: F
= read_tightbox_ngwfs: F
= maxit_pen: 0 (restored to user-specified value)
= restart read filename prefix: ""
= restart write filename prefix: ""
================================================================================

================================================================================
IS: Calculation in solvent completed (NGWFs converged).      

Individual components of total energy in solvent:     hartree           kcal/mol
- Usual non-electrostatic DFT terms:    -12968.58974179880533    -8137912.751663
- Electrostatic fixed charge energy:      1220.47336426106244      765858.582300
- Apolar cavitation energy:                  2.32429328870068        1458.516028
- Apolar dispersion-repulsion energy:       -1.67099255257913       -1048.563635
 -------------------------------------------------------------------------------
- Total energy in solvent:              -11747.46307680162136    -7371644.216971

Components of total energy in solvent:                hartree           kcal/mol
- Usual non-electrostatic DFT terms:    -12968.58974179880533    -8137912.751663
- Electrostatic energy:                   1220.47336426106244      765858.582300
- Apolar energy terms:                       0.65330073612154         409.952392
 -------------------------------------------------------------------------------
- Total energy in solvent:              -11747.46307680162136    -7371644.216971

Calculation of free energy of solvation:              hartree           kcal/mol
- Total energy in solvent:         (+)  -11747.46307680162136    -7371644.216971
- Total energy in vacuum:          (-)  -11743.57766804669518    -7369206.086219
 -------------------------------------------------------------------------------
- Total free energy of solvation:           -3.88540875492617       -2438.130751

Components of polar term in f.e. of solvation:        hartree           kcal/mol
- Electrostatic:                            -4.71672701612442       -2959.790825
- Change in nonelectrostatic DFT terms:      0.17801752507694         111.707681
 -------------------------------------------------------------------------------
- Polar term in f.e. of solvation:          -4.53870949104748       -2848.083144

Components of free energy of solvation:               hartree           kcal/mol
- Polar term in f.e. of solvation: (+)      -4.53870949104748       -2848.083144
- Apolar (cavitation, dis., rep.): (+)       0.65330073612154         409.952392
 -------------------------------------------------------------------------------
- Total free energy of solvation:           -3.88540875492594       -2438.130751
================================================================================


------------------------------ TIMING INFORMATION ------------------------------
AVERAGE TIME:   29445.769s on     40 node(s)                                    
TOTAL TIME:     29445.770s on     40 node(s)                                    
================= AVERAGE TIMINGS FROM ALL NODES (CUMULATIVE) ==================
|| TAG                                    #calls    cpu time   %total  Gflops ||
|| work_imbalance                       :     1        0.00s   0.000%  ------ ||
|| parallel_prepare_fd_halos_request    :  2187        0.02s   0.000%  ------ ||
|| sparse_set_to_garbage                :   200        0.05s   0.000%  ------ ||
|| parallel_prepare_fd_halos_satisfy    :  2187        0.07s   0.000%  ------ ||
|| ngwfs_initialise_from_radial         :     1        0.17s   0.001%  ------ ||
|| basis_extract_function_from_box      :  6055        0.21s   0.001%  ------ ||
|| parallel_prepare_fd_halos_alloc      :  2187        0.27s   0.001%  ------ ||
|| restart_ngwfs_tightbox_input         :     1        1.03s   0.003%  ------ ||
|| pseudopotentials_nonlocal_mat        :    34        1.25s   0.004%  ------ ||
|| parallel_prepare_fd_halos_comms_imbal:  2187        3.22s   0.011%  ------ ||
|| restart_kernel_read                  :     1        3.48s   0.012%  ------ ||
|| openbc_locps_radial                  :     1        5.38s   0.018%  ------ ||
|| density_init_guess_real              :     1        7.56s   0.026%  ------ ||
|| parallel_prepare_fd_halos_clear      :  2187       16.01s   0.054%  ------ ||
|| restart_kernel_write                 :    19       17.80s   0.060%  ------ ||
|| sparse_init                          :     2       22.66s   0.077%  ------ ||
|| projectors_func_ovlp_box             :    34       27.30s   0.093%  ------ ||
|| parallel_prepare_fd_halos_comms_wait :  2187       27.49s   0.093%  ------ ||
|| function_ops_brappd_ketppd           :    34       30.84s   0.105%  ------ ||
|| palser_mano_kernel_optimise          :     1       40.21s   0.137%  ------ ||
|| projectors_init_fftbox_recip         :   232       40.40s   0.137%  ------ ||
|| parallel_prepare_fd_halos            :  2187       47.09s   0.160%  ------ ||
|| pseudo_make_structure_factor         :     2       58.83s   0.200%  ------ ||
|| fourier_apply_box_pair               :  8680       60.17s   0.204% 556.764 ||
|| basis_copy_function_to_box           : 98532       61.93s   0.210%  ------ ||
|| ngwf_gradient_coeffs                 :    18       72.58s   0.246%  ------ ||
|| restart_ngwfs_tightbox_output        :    16       94.53s   0.321%  ------ ||
|| sparse_embed_hotelling_invert_embed  :    34      103.73s   0.352%  ------ ||
|| finite_difference_derivative         :  2187      120.01s   0.408%  ------ ||
|| integrals_kinetic                    :    34      183.28s   0.622%  ------ ||
|| openbc_locps_on_grid                 :     2      192.82s   0.655%  ------ ||
|| fourier_apply_cell_backward          :  1459      244.63s   0.831%  82.383 ||
|| projectors_gradient_batch            :   198      247.80s   0.842%  ------ ||
|| fourier_apply_cell_forward           :  1457      254.03s   0.863%  79.224 ||
|| basis_dot_function_with_box          : 15.12M     277.69s   0.943%  ------ ||
|| sparse_trace                         :  5767      287.06s   0.975%  ------ ||
|| kernel_purify                        :   557      398.64s   1.354%  ------ ||
|| hamiltonian_energy_components        :     4      417.50s   1.418%  ------ ||
|| xc_energy_potential                  :   364      583.20s   1.981%  ------ ||
|| basis_add_function_to_box            : 31.65M     601.71s   2.043%  ------ ||
|| lnv_gradient_norm                    :   180      656.81s   2.231%  ------ ||
|| kernel_fix                           :   180      691.09s   2.347%  ------ ||
|| ngwf_gradient_build_batch            :   198      868.88s   2.951%  ------ ||
|| cell_grid_deposit_box_real           : 61784      971.78s   3.300%  ------ ||
|| integrals_locpot_mat_els_batch       :  2079     1021.06s   3.468%  ------ ||
|| cell_grid_extract_box_real           : 57244     1102.87s   3.745%  ------ ||
|| ngwf_gradient_batch                  :   198     1208.69s   4.105%  ------ ||
|| ngwf_gradient_lnv                    :    18     1386.62s   4.709%  ------ ||
|| density_batch_row_sums               :  3993     1437.03s   4.880%  ------ ||
|| density_fftbox_deposit_to_cell       : 59532     1658.00s   5.631%  ------ ||
|| sparse_product                       :  7333     2450.84s   8.323%  ------ ||
|| multigrid_prepare_bound_cond         :   364     2711.62s   9.209%  ------ ||
|| potential_apply_to_ngwf_batch        :  2079     3633.72s  12.340%  ------ ||
|| density_fftbox_interpolate_multiply  : 59532     4129.77s  14.025%  ------ ||
|| fourier_apply_box                    : 205.4k    4137.40s  14.051% 928.816 ||
|| integrals_locpot_dbl_grid            :   189     4678.00s  15.887%  ------ ||
|| density_batch_interp_deposit         :  3993     6479.94s  22.006%  ------ ||
|| dl_mg_solver_calls                   :   364     7247.07s  24.612%  ------ ||
|| density_on_dbl_grid                  :   363     8390.27s  28.494%  ------ ||
|| multigrid_calculate_hartree          :   364    10126.44s  34.390%  ------ ||
|| hamiltonian_lhxc_calculate           :   359    19144.41s  65.016%  ------ ||
|| lnv_denskernel_optimise_cg           :    18    25379.30s  86.190%  ------ ||
|| ngwf_cg_optimise                     :     2    28642.70s  97.273%  ------ ||
|| total_time                           :     1    29445.77s 100.000%  ------ ||
================================================================================
Overhead of generating timer report: 
- 0 ms averaging over threads,
- 5 ms ensuring consistency across MPI ranks,
- 2 ms printing in order.

Job completed: 08-07-2020 10:38 (+0100)

