 +---------------------------------------------------------------+
 |                                                               |
 |        ####### #     # ####### ####### ####### ######         |
 |        #     # ##    # #          #    #       #     #        |
 |        #     # # #   # #          #    #       #     #        |
 |        #     # #  #  # #####      #    #####   ######         |
 |        #     # #   # # #          #    #       #              |
 |        #     # #    ## #          #    #       #              |
 |        ####### #     # #######    #    ####### #              |
 |                                                               |
 |        Linear-Scaling Ab Initio Total Energy Program          |
 |                                                               |
 |          Release for academic collaborators of ODG            |
 |                                             Version 5.3.2.6.  |
 |                                                               |
 +---------------------------------------------------------------+
 |                                                               |
 |  Authors:                                                     |
 |  Jacek Dziedzic, Peter D. Haynes, Nicholas D. M. Hine,        |
 |  Arash. A. Mostofi, Mike C. Payne and Chris-Kriton Skylaris   |
 |                                                               |
 |  Contributors:                                                |
 |  J. Aarons, L. Andrinopoulos, P. W. Avraam, R. A. Bell,       |
 |  A. Bhandari, G. A. Bramley, R. J. Charlton, S. J. Clark,     |
 |  R. J. Clements, G. C. Constantinescu, F. Corsetti,           |
 |  N. Corsini, O. Dieguez, S. M. M. Dubois, K. K. B. Duff,      |
 |  J. M. Escartin, A. Greco, H. Helal, Q. O. Hill, L. P. Lee,   |
 |  J.-H. Li, E. B. Linscott, G. Moynihan, D. D. O`Regan,        |
 |  O. K. Okan, M. J. S. Phipps, C. J. Pickard,                  |
 |  J. C. A. Prentice, M. I. J. Probert, L. E. Ratcliff,         |
 |  M. Robinson, A. Ruiz Serrano, J. S. Spencer, E. W. Tait,     |
 |  G. Teobaldi, D. Turban, V. Vitale, K. A. Wilkinson,          |
 |  C. Weber, J. C. Womack, N. Yeung and T. J. Zuehlsdorff       |
 |                                                               |
 |                                   Copyright (c) 2004-2019     |
 |                                                               |
 |  Please cite:                                                 |
 |  "Introducing ONETEP: Linear-scaling density functional       |
 |   simulations on parallel computers".                         |
 |   C.-K. Skylaris, P. D. Haynes, A. A. Mostofi, M. C. Payne.   |
 |   J. Chem. Phys. 122 084119 (2005).                           |
 |                                                               |
 |          in all publications arising from your use of ONETEP. |
 |                                                               |
 +---------------------------------------------------------------+
 |                                                               |
 |   ONETEP is based on developments described in the following  |
 |   publications:                                               |
 |                                                               |
 |  "Nonorthogonal generalized Wannier function pseudopotential  |
 |   plane-wave method".                                         |
 |   C.-K. Skylaris, A. A. Mostofi, P. D. Haynes, O. Dieguez,    |
 |   M. C. Payne.                                                |
 |   Phys. Rev. B 66 035119 (2002).                              |
 |                                                               |
 |  "Preconditioned iterative minimization for linear-scaling    |
 |   electronic structure calculations".                         |
 |   A. A. Mostofi, P. D. Haynes, C.-K. Skylaris, M. C. Payne.   |
 |   J. Chem. Phys. 119(17), pp.8842-8848 (2003).                |
 |                                                               |
 |  "Total-energy calculations on a real space grid with         |
 |   localized functions and a plane-wave basis".                |
 |   A. A. Mostofi, C.-K. Skylaris, P. D. Haynes, M. C. Payne.   |
 |   Comput. Phys. Commun. 147, pp.788-802 (2002).               |
 |                                                               |
 |  "Accurate kinetic energy evaluation in electronic structure  |
 |   calculations with localized functions on real space grids"  |
 |   C.-K. Skylaris, A. A. Mostofi, P. D. Haynes, C. J. Pickard, |
 |   M. C. Payne.                                                |
 |   Comput. Phys. Commun. 140, pp.315-322 (2001).               |
 |                                                               |
 |  "Accurate ionic forces and geometry optimization in linear-  |
 |   scaling density-functional theory with local orbitals"      |
 |   N. D. M. Hine, M. Robinson, P. D. Haynes, C.-K. Skylaris,   |
 |   M. C. Payne, and A. A. Mostofi.                             |
 |   Phys. Rev. B 83 195102 (2011).                              |
 |                                                               |
 +---------------------------------------------------------------+

Job started: 21-07-2020 19:38 (+0100)
 
Reading parameters from file "complex_34681.dat" ...... done

If your calculation crashes here, before "Checking processes and threads..."
is displayed, then your stack size is insufficient.
If so, use "ulimit -s unlimited" at runtime.
You can disable this check with "check_stack_size F".

Checking processes and threads...
   Determining the default number of threads...
      No default threads set at compilation time: defaulting to 1.
      OpenMP library call suggests 4 threads.
      Hybrid MPI-OpenMP compilation detected.
      Number of MPI processes > 1.
      OMP_NUM_THREADS environment variable present and
      its value matches the one obtained from the OpenMP library call.
      Using this value as default.
      Default threads: 4
      Default applies to threads_max and threads_num_fftboxes.
      Settings in the input file override this default.
   ... done

   Running with 40 MPI processes.
   There are 10 MPI processes running on the same node as the root process.
   Each MPI process is using: 
               1 threads for simulation cell FFTs.
               1 threads for parallel FFT box operations.
               4 threads for loops over batched FFT box operations.
               4 threads in other parallel regions.
... done

Basic input checks...... done

Reading geometry and species blocks from file "complex_34681.dat" ...
  <species_atomic_set> block not found: NGWF initialisation set to SOLVE
IS: Dielectric excluded regions:
    - NONE.
    
  Number of PPD points along a3 set to 1.  This is 
  the default value, it may have been provided also in the input file.
... done
 Writing xyz coordinates to file "complex_34681.xyz" ... done


--------------------------------------------------------------------------------
---------------------------------- INPUT FILE ----------------------------------
--------------------------------------------------------------------------------

cutoff_energy       : 800 eV                                                    
xc_functional PBE                                                               
task SINGLEPOINT                                                                
write_xyz true                                                                  
output_detail VERBOSE                                                           
ngwf_threshold_orig : 0.000002                                                  
kernel_cutoff       : 1000                                                      
k_zero              : 3.5                                                       
elec_cg_max 0                                                                   
occ_mix 1.0                                                                     
dispersion 1                                                                    
maxit_ngwf_cg 40                                                                
minit_lnv 10                                                                    
maxit_lnv 10                                                                    
write_denskern T                                                                
write_tightbox_ngwfs T                                                          
charge 9                                                                        
is_implicit_solvent T                                                           
is_auto_solvation T                                                             
is_include_apolar T                                                             
is_smeared_ion_rep T                                                            
is_solvent_surf_tension 4.7624E-5 Ha/bohr**2                                    
is_apolar_scaling_factor 0.281075                                               
is_solvation_beta 1.3                                                           
is_density_threshold 0.00035                                                    
is_bulk_permittivity 78.54                                                      
is_dielectric_model fix_initial                                                 
is_smeared_ion_width 0.8                                                        
mg_defco_fd_order 8                                                             
is_bc_coarseness 10                                                             
is_bc_surface_coarseness 1                                                      
fine_grid_scale 2.0                                                             
%block species                                                                  
N   N   7 4 8.0                                                                 
H   H   1 1 8.0                                                                 
C   C   6 4 8.0                                                                 
S   S  16 9 8.0                                                                 
O   O   8 4 8.0                                                                 
Cl  Cl  17 9 8.0                                                                
%endblock species                                                               
%block species_pot                                                              
N   N_00.recpot                                                                 
H   H_04.recpot                                                                 
C   C_01.recpot                                                                 
S   S_00.recpot                                                                 
O   O_02.recpot                                                                 
Cl  chlorine.recpot                                                             
%endblock species_pot                                                           
%block lattice_cart                                                             
137.793   0.000   0.000                                                         
0.000 143.498   0.000                                                           
0.000   0.000   162.326                                                         
%endblock lattice_cart                                                          
%block positions_abs                                                            
     Hash =   000003780285215738531273
%endblock positions_abs                                                         

--------------------------------------------------------------------------------
-------------------------------- END INPUT FILE --------------------------------
--------------------------------------------------------------------------------


 
 ESDF WARNING(1): "kernelcutoff" (esdf_physical) has no units. Assume "bohr".
 ESDF WARNING(2): "kzero" (esdf_physical) has no units. Assume "1/bohr".
 ESDF WARNING(3
 ): "issmearedionwidth" (esdf_physical) has no units. Assume "bohr".
<<<<<<<<<<<<<<<<<<<<<<<<<<<<<<<<< Full system >>>>>>>>>>>>>>>>>>>>>>>>>>>>>>>>>>
WARNING in pseudopotentials_read_species: string "LDA" found in pseudopotential
file "chlorine.recpot", yet xc_functional = "PBE".
 
<<<<<<<<<<<<<<<<<<<<<<<<< Pseudopotential information >>>>>>>>>>>>>>>>>>>>>>>>>>
File: N_00.recpot [ 2001 points up to Gmax=  52.9 (1/bohr)]
  Atomic number:  7;  ionic charge:  5.000000
    Shell 1: l = 0; rc = 1.48 bohr
File: H_04.recpot [ 2001 points up to Gmax=  52.9 (1/bohr)]
  Atomic number:  1;  ionic charge:  1.000000
    Local potential
File: C_01.recpot [ 2001 points up to Gmax=  52.9 (1/bohr)]
  Atomic number:  6;  ionic charge:  4.000000
    Shell 1: l = 0; rc = 1.48 bohr
File: S_00.recpot [ 2001 points up to Gmax=  52.9 (1/bohr)]
  Atomic number: 16;  ionic charge:  6.000000
    Shell 1: l = 0; rc = 1.90 bohr
    Shell 2: l = 2; rc = 1.84 bohr
File: O_02.recpot [ 2001 points up to Gmax=  52.9 (1/bohr)]
  Atomic number:  8;  ionic charge:  6.000000
    Shell 1: l = 0; rc = 1.31 bohr
File: chlorine.recpot [ 2001 points up to Gmax=  52.9 (1/bohr)]
  Atomic number: 17;  ionic charge:  7.000000
    Shell 1: l = 0; rc = 1.72 bohr
    Shell 2: l = 2; rc = 1.78 bohr
<<<<<<<<<<<<<<<<<<<<<<<<<<<<<<<<<<<<<<<<>>>>>>>>>>>>>>>>>>>>>>>>>>>>>>>>>>>>>>>>

-------------------------- Atom counting information ---------------------------
Symbol    Natoms    Nngwfs    Nprojs
  N        236       944       236
  H       1316      1316         0
  C        816      3264       816
  S          6        54        36
  O        240       960       240
  Cl         1         9         6
.......   ......    ......    ......
Totals:   2615      6547      1334
--------------------------------------------------------------------------------

=============================== PSINC grid sizes ===============================
                      Simulation cell:  273 x 286 x 320
                              FFT-box:   99 x  99 x  99
                                  PPD:    7 x  11 x   1
Grid space d1=  0.504736263736a0 (KE cutoff=  29.81776Eh = 811.38248eV)
Grid space d2=  0.501741258741a0 (KE cutoff=  30.17480Eh = 821.09803eV)
Grid space d3=  0.507268750000a0 (KE cutoff=  29.52078Eh = 803.30122eV)
================================================================================

********************* Fourier parallelisation information **********************
       Coarse grid (whole simulation cell) dimensions:    273   286   320
          Real-space ('12') slabs/node (min max mean):      8     8     8
         Recip-space ('23') slabs/node (min max mean):      3     4     3
********************************************************************************

********************* Fourier parallelisation information **********************
       Double grid (whole simulation cell) dimensions:    546   572   640
          Real-space ('12') slabs/node (min max mean):     16    16    16
         Recip-space ('23') slabs/node (min max mean):      6     7     6
********************************************************************************
ONETEP fine grid is 546 x 572 x 640 gridpoints, 137.7930 x 143.4980 x 162.3260 bohr.
FD multigrid is     545 x 569 x 633 gridpoints, 137.5406 x 142.7454 x 160.5506 bohr.


Calculating local pseudopotential in open BC on a radial grid ...
Discrepancy between calculated realspace psloc and -Z/x on [5a0,256.765a0]:
max |rel. diff| # avg |rel. diff| #  avg rel. diff #  f # pseudopotential file
 0.000264355666    0.000005356805   0.000000075547   55  'N_00.recpot'
 0.000427657517    0.000018087302  -0.000000066616   55  'H_04.recpot'
 0.000358839426    0.000016594043   0.000000139912   55  'C_01.recpot'
 0.000443229003    0.000019135969   0.000000483695   55  'S_00.recpot'
 0.000720897146    0.000029350350   0.000000143497   55  'O_02.recpot'
 0.000693253128    0.000030986455   0.000000348575   55  'chlorine.recpot'
... done

Atom SCF Calculation for N  : Z (AE atom) =   7 : Z (PS atom) =   5
Config String:
Orbitals (num,occ):  2     2.00 3.00
Orbitals   (num,l):  2        0    1
Real-space Grid (nr,dr,rmax): 1203    0.0066555740    8.0000000000
Spherical Bessel Basis (nsws,lmax,cutoff):   47    1  176.3951722778
Confining potential (l,width,scale):  0    3.0000000000  100.0000000000
Confining potential (l,width,scale):  1    3.0000000000  100.0000000000
  1         -4.7312375307   -3.4155304497    7.0523828109   -1.9351020946
  2         -9.7309464766   -2.0532547791    8.2966052865   -2.2494486027
  3         -9.6627394379   -2.1124926340    8.2327997121   -2.2369778124
  4         -9.6814993499   -2.1215521045    8.2229805960   -2.2365178421
  5         -9.6843326483   -2.1250939529    8.2191374534   -2.2362718126
  6         -9.6859628709   -2.1267894855    8.2172963573   -2.2362066344
  7         -9.6867347035   -2.1276425665    8.2163697352   -2.2361903369
  8         -9.6870802100   -2.1280764625    8.2158983890   -2.2361891460
  9         -9.6872290423   -2.1282977424    8.2156580222   -2.2361920435
 10         -9.6872901988   -2.1284107021    8.2155353368   -2.2361953393
 11         -9.6873135296   -2.1284684031    8.2154726809   -2.2361979819
 12         -9.6873212476   -2.1284978948    8.2154406648   -2.2361998431
 13         -9.6873229586   -2.1285129774    8.2154242957   -2.2362010676
 14         -9.6873226456   -2.1285206957    8.2154159216   -2.2362018403
 15         -9.6873218534   -2.1285246479    8.2154116349   -2.2362023142
 16         -9.6873212599   -2.1285262679    8.2154098784   -2.2362025420
 17         -9.6873207834   -2.1285272564    8.2154088068   -2.2362026955
 18         -9.6873204210   -2.1285278597    8.2154081529   -2.2362027982
 19         -9.6873201550   -2.1285282280    8.2154077538   -2.2362028667
 20         -9.6873199645   -2.1285284529    8.2154075102   -2.2362029121
 21         -9.6873198305   -2.1285285903    8.2154073614   -2.2362029421
 22         -9.6873197377   -2.1285286742    8.2154072705   -2.2362029618
Atom SCF converged after  22 iterations to a total energy of     -9.68731974

Atom SCF Calculation for H  : Z (AE atom) =   1 : Z (PS atom) =   1
Config String:
Orbitals (num,occ):  1     1.00
Orbitals   (num,l):  1        0
Real-space Grid (nr,dr,rmax): 1203    0.0066555740    8.0000000000
Spherical Bessel Basis (nsws,lmax,cutoff):   47    0  176.3951722778
Confining potential (l,width,scale):  0    3.0000000000  100.0000000000
  1         -0.3194257691   -0.2393854593    0.2820953124   -0.2424203209
  2         -0.3951823392   -0.2377116493    0.2886404059   -0.2475147891
  3         -0.4317044583   -0.2352244387    0.2921333887   -0.2514046172
  4         -0.4470703708   -0.2341892222    0.2934391879   -0.2531009782
  5         -0.4532132900   -0.2338556667    0.2938388426   -0.2537313520
  6         -0.4556579251   -0.2337612552    0.2939448584   -0.2539550462
  7         -0.4566418315   -0.2337377355    0.2939680120   -0.2540342273
  8         -0.4570437922   -0.2337331116    0.2939708287   -0.2540627372
  9         -0.4572102946   -0.2337328328    0.2939698291   -0.2540732650
 10         -0.4572800424   -0.2337332404    0.2939687193   -0.2540772588
 11         -0.4573095100   -0.2337335791    0.2939680317   -0.2540788122
 12         -0.4573220379   -0.2337337762    0.2939676699   -0.2540794294
 13         -0.4573273880   -0.2337338775    0.2939674931   -0.2540796787
 14         -0.4573296803   -0.2337339266    0.2939674099   -0.2540797808
 15         -0.4573306647   -0.2337339495    0.2939673718   -0.2540798230
 16         -0.4573310882   -0.2337339601    0.2939673545   -0.2540798406
 17         -0.4573312706   -0.2337339649    0.2939673467   -0.2540798479
 18         -0.4573313493   -0.2337339670    0.2939673433   -0.2540798510
Atom SCF converged after  18 iterations to a total energy of     -0.45733135

Atom SCF Calculation for C  : Z (AE atom) =   6 : Z (PS atom) =   4
Config String:
Orbitals (num,occ):  2     2.00 2.00
Orbitals   (num,l):  2        0    1
Real-space Grid (nr,dr,rmax): 1203    0.0066555740    8.0000000000
Spherical Bessel Basis (nsws,lmax,cutoff):   47    1  176.3951722778
Confining potential (l,width,scale):  0    3.0000000000  100.0000000000
Confining potential (l,width,scale):  1    3.0000000000  100.0000000000
  1         -5.2976922011   -1.3069684169    4.5135249990   -1.4493313817
  2         -5.3721716256   -1.3429755895    4.4750154450   -1.4361613026
  3         -5.3809959565   -1.3617365618    4.4541655428   -1.4305930207
  4         -5.3918938866   -1.3667928461    4.4484735100   -1.4294652294
  5         -5.3956096428   -1.3688539142    4.4461376126   -1.4290734646
  6         -5.3968271862   -1.3696852393    4.4451910874   -1.4289366866
  7         -5.3972028401   -1.3700178062    4.4448112275   -1.4288900460
  8         -5.3973067903   -1.3701500158    4.4446598370   -1.4288749220
  9         -5.3973286940   -1.3702023868    4.4445997329   -1.4288704293
 10         -5.3973289850   -1.3702230869    4.4445759233   -1.4288693188
 11         -5.3973254264   -1.3702312560    4.4445665049   -1.4288691775
 12         -5.3973224003   -1.3702344755    4.4445627836   -1.4288692549
 13         -5.3973208708   -1.3702354890    4.4445616088   -1.4288693270
 14         -5.3973198783   -1.3702360102    4.4445610034   -1.4288693814
 15         -5.3973192535   -1.3702362780    4.4445606917   -1.4288694190
 16         -5.3973188684   -1.3702364155    4.4445605313   -1.4288694437
 17         -5.3973186349   -1.3702364860    4.4445604489   -1.4288694595
 18         -5.3973184951   -1.3702365221    4.4445604065   -1.4288694693
 19         -5.3973184122   -1.3702365405    4.4445603848   -1.4288694753
Atom SCF converged after  19 iterations to a total energy of     -5.39731841

Atom SCF Calculation for S  : Z (AE atom) =  16 : Z (PS atom) =   6
Config String:
Orbitals (num,occ):  3     2.00 4.00 0.00
Orbitals   (num,l):  3        0    1    2
Real-space Grid (nr,dr,rmax): 1203    0.0066555740    8.0000000000
Spherical Bessel Basis (nsws,lmax,cutoff):   47    2  176.3951722778
Confining potential (l,width,scale):  0    3.0000000000  100.0000000000
Confining potential (l,width,scale):  1    3.0000000000  100.0000000000
Confining potential (l,width,scale):  2    3.0000000000  100.0000000000
  1        -12.4735062396   -1.0328741412   10.1554312477   -2.4512393157
  2         -9.9458301913   -2.4607392455    8.3041325857   -2.0306994528
  3        -10.1450417646   -2.2931184565    8.4831893826   -2.0812538287
  4        -10.1528335592   -2.2733105793    8.5050388867   -2.0896035179
  5        -10.1571940363   -2.2633716629    8.5160794258   -2.0939370707
  6        -10.1594380571   -2.2584938667    8.5215163935   -2.0961289008
  7        -10.1605856507   -2.2561081821    8.5241804044   -2.0972291378
  8        -10.1611799191   -2.2549395235    8.5254868240   -2.0977806248
  9        -10.1614918752   -2.2543658586    8.5261285885   -2.0980571586
 10        -10.1616572884   -2.2540839121    8.5264441898   -2.0981959233
 11        -10.1617455602   -2.2539453058    8.5265994231   -2.0982656006
 12        -10.1617928447   -2.2538772062    8.5266757320   -2.0983006047
 13        -10.1618182292   -2.2538437891    8.5267131983   -2.0983181961
 14        -10.1618318741   -2.2538274201    8.5267315620   -2.0983270391
 15        -10.1618392144   -2.2538194197    8.5267405433   -2.0983314852
 16        -10.1618431651   -2.2538155200    8.5267449245   -2.0983337210
 17        -10.1618452923   -2.2538136252    8.5267470551   -2.0983348455
 18        -10.1618464380   -2.2538127080    8.5267480875   -2.0983354110
 19        -10.1618470552   -2.2538122659    8.5267485856   -2.0983356955
 20        -10.1618473878   -2.2538120540    8.5267488248   -2.0983358386
 21        -10.1618475670   -2.2538119530    8.5267489389   -2.0983359106
 22        -10.1618476637   -2.2538119053    8.5267489929   -2.0983359468
Atom SCF converged after  22 iterations to a total energy of    -10.16184766

Atom SCF Calculation for O  : Z (AE atom) =   8 : Z (PS atom) =   6
Config String:
Orbitals (num,occ):  2     2.00 4.00
Orbitals   (num,l):  2        0    1
Real-space Grid (nr,dr,rmax): 1203    0.0066555740    8.0000000000
Spherical Bessel Basis (nsws,lmax,cutoff):   47    1  176.3951722778
Confining potential (l,width,scale):  0    3.0000000000  100.0000000000
Confining potential (l,width,scale):  1    3.0000000000  100.0000000000
  1         -1.8735052164   -7.5539365035   10.1554312477   -2.4512393157
  2        -16.0318313751   -3.1285771268   13.6395848164   -3.2358799643
  3        -15.9524020423   -3.0762819706   13.6967272503   -3.2536856837
  4        -15.8521515939   -3.0781493909   13.6951909330   -3.2561700440
  5        -15.8357139793   -3.0748501933   13.6988803334   -3.2580493133
  6        -15.8246052853   -3.0740779781   13.6997881576   -3.2588327446
  7        -15.8189019501   -3.0737449687   13.7001869911   -3.2592378801
  8        -15.8159785510   -3.0736026016   13.7003615168   -3.2594475790
  9        -15.8144776168   -3.0735437994   13.7004360379   -3.2595560735
 10        -15.8137058024   -3.0735207882   13.7004667348   -3.2596122456
 11        -15.8133083127   -3.0735125946   13.7004786868   -3.2596413656
 12        -15.8131032938   -3.0735102195   13.7004828997   -3.2596564858
 13        -15.8129973902   -3.0735099286   13.7004840891   -3.2596643505
 14        -15.8129426040   -3.0735102506   13.7004842061   -3.2596684489
 15        -15.8129142203   -3.0735106556   13.7004840157   -3.2596705887
 16        -15.8128994940   -3.0735109855   13.7004837906   -3.2596717080
 17        -15.8128918425   -3.0735112169   13.7004836103   -3.2596722946
 18        -15.8128878614   -3.0735113674   13.7004834848   -3.2596726026
 19        -15.8128857871   -3.0735114608   13.7004834035   -3.2596727646
 20        -15.8128847048   -3.0735115170   13.7004833533   -3.2596728500
 21        -15.8128841394   -3.0735115501   13.7004833231   -3.2596728951
 22        -15.8128838436   -3.0735115693   13.7004833054   -3.2596729190
 23        -15.8128836887   -3.0735115802   13.7004832951   -3.2596729316
 24        -15.8128836074   -3.0735115864   13.7004832893   -3.2596729383
Atom SCF converged after  24 iterations to a total energy of    -15.81288361

Atom SCF Calculation for Cl : Z (AE atom) =  17 : Z (PS atom) =   7
Config String:
Orbitals (num,occ):  3     2.00 5.00 0.00
Orbitals   (num,l):  3        0    1    2
Real-space Grid (nr,dr,rmax): 1203    0.0066555740    8.0000000000
Spherical Bessel Basis (nsws,lmax,cutoff):   47    2  176.3951722778
Confining potential (l,width,scale):  0    3.0000000000  100.0000000000
Confining potential (l,width,scale):  1    3.0000000000  100.0000000000
Confining potential (l,width,scale):  2    3.0000000000  100.0000000000
  1        -16.8444261800   -2.1962100444   13.8226703094   -2.9941905181
  2        -14.7918510722   -3.2647395528   12.5772031268   -2.7486356845
  3        -15.0408459996   -3.0830885982   12.7711824681   -2.7985322562
  4        -15.0258990028   -3.0805758938   12.7746252245   -2.8028400439
  5        -15.0247989138   -3.0762001284   12.7796720593   -2.8059543251
  6        -15.0249225108   -3.0742888229   12.7818510263   -2.8073220423
  7        -15.0250462958   -3.0731699753   12.7831228196   -2.8081724567
  8        -15.0251282307   -3.0725244678   12.7838557365   -2.8086978828
  9        -15.0251775299   -3.0721537651   12.7842766981   -2.8090219799
 10        -15.0252069190   -3.0719409277   12.7845186566   -2.8092219886
 11        -15.0252248401   -3.0718185631   12.7846580195   -2.8093455898
 12        -15.0252360996   -3.0717481031   12.7847384649   -2.8094221024
 13        -15.0252433539   -3.0717074830   12.7847849814   -2.8094695492
 14        -15.0252481059   -3.0716840518   12.7848119089   -2.8094990225
 15        -15.0252512461   -3.0716705364   12.7848275045   -2.8095173612
 16        -15.0252533273   -3.0716627451   12.7848365368   -2.8095287899
 17        -15.0252547058   -3.0716582588   12.7848417653   -2.8095359231
 18        -15.0252556164   -3.0716556794   12.7848447893   -2.8095403819
 19        -15.0252562158   -3.0716541993   12.7848465363   -2.8095431730
 20        -15.0252566087   -3.0716533521   12.7848475441   -2.8095449225
 21        -15.0252568652   -3.0716528683   12.7848481246   -2.8095460206
 22        -15.0252570320   -3.0716525930   12.7848484583   -2.8095467108
 23        -15.0252571401   -3.0716524369   12.7848486497   -2.8095471451
 24        -15.0252572099   -3.0716523486   12.7848487593   -2.8095474188
Atom SCF converged after  24 iterations to a total energy of    -15.02525721

========================== Calculation in vacuum ==============================
= Adjusting the following parameters: 
= is_implicit_solvent: F
= is_include_apolar: F
= write_denskern: T
= write_tightbox_ngwfs: T
= restart read filename prefix: ""
= restart write filename prefix: "vacuum_"
===============================================================================

Determining parallel strategy ...
... using space-filling curve
... NGWF load balancing: max    164;  min    163;  average    164
... Projector load balancing: max     36;  min     32;  average     33
... done
Calculating direct Ion-Ion energy ...
Ion-Ion Energy        :    836098.95771675487049
======================= Empirical dispersion information =======================
Model : Elstner
WARNING: Unoptimised dispersion parameters used for Cl
Dispersion Correction Energy: -0.32522916E+01 Hartree
================================================================================
Basis initialisation ...... NGWF spheres initialised
... Projector spheres initialised
... NGWF tight boxes initialised
... Tight-boxes gathered
... NGWF basis size (local,global):    1115668  44656153
... Nonlocal pseudopotential projector initialisation
... done

========================== Sparse matrix information ===========================
                        Overlap matrix filling:   6.73%
                        Density kernel filling: 100.00%
              NGWF-Proj overlap matrix filling:   1.74%
                    Hamiltonian matrix filling:   7.58%
                  NGWF diagonal matrix filling:   0.05%
                             KS matrix filling: 100.00% 
                           KSKS matrix filling: 100.00% 
================================================================================

Sparse matrix initialisation ... done

Generating smeared ion density ... done
Smeared ion self correction:     -14549.923644
Smeared ion non-self correction: -836050.877985
NGWF initialisation ...... done
============ Calculation of NGWF S^-1 using Hotelling algorithm ================ 
         Iteration  |  Frobenius norm and Maximum abs value    (of I-S*S_n^-1)   
               1       0.78795777E+02     0.98294528E+00
               2       0.76983362E+02     0.96634364E+00
               3       0.74032165E+02     0.93440799E+00
               4       0.69808115E+02     0.87547630E+00
               5       0.64515345E+02     0.77394861E+00
               6       0.58538504E+02     0.70727599E+00
               7       0.52494638E+02     0.67102377E+00
               8       0.46910752E+02     0.64395941E+00
               9       0.40888025E+02     0.60496622E+00
              10       0.32716270E+02     0.53668950E+00
              11       0.22188531E+02     0.43325366E+00
              12       0.11496326E+02     0.29473759E+00
              13       0.38788694E+01     0.13799601E+00
              14       0.64059453E+00     0.33374783E-01
              15       0.33124583E-01     0.29011995E-02
              16       0.20977353E-03     0.28674002E-04
              17       0.14597578E-07     0.28811511E-08
              18       0.99555750E-13     0.55511151E-14
================================================================================
Calculating local pseudopotential in open BC on the fine real space grid ...
... done

MG BCs: +ve charge blocks (gridpoints):     20567 (   16170572).
MG BCs: -ve charge blocks (gridpoints):      8031 (    1083297).
MG BCs:     Elided blocks (gridpoints):    180073 (  179042596).
MG BCs: Computational effort saved:  99.9854%.
MG BCs: Charge after coarse-graining:           -9.0002282.
MG DL_MG: Calling solver with defect correction order = 8
MG DL_MG: Solver finished
MG Hartree energy from (\int phi*rho dr):              1475.899704
MG Hartree energy from (\int eps (grad phi)^2 dr):     1475.284762
MG Discrepancy due to finite box and discretization:     -0.614942 (  -0.04167%)
MG Correction to account for finite box:                  0.461641
MG Remaining discrepancy, due to discretization:         -0.153302 (  -0.01039%)
Up spin density kernel initialisation ... 
======= Optimisation of K by Palser-Manolopoulos canonical purification ======== 
         Iteration  |  Band structure energy |    c_n   
               1       -2590.22257364506413    0.5271250
               2       -2766.97093469742504    0.5170770
               3       -2948.75404777859058    0.5150735
               4       -3101.18811750875693    0.5282254
               5       -3195.44170704179578    0.5634645
               6       -3235.13516889240327    0.6085974
               7       -3248.62380662086889    0.6222756
               8       -3254.41080028209763    0.6222715
               9       -3257.21391574380868    0.6371583
              10       -3258.38758075856958    0.6613964
              11       -3258.85294976608157    0.6775066
              12       -3259.05807996295971    0.6752981
              13       -3259.16301567393475    0.6548399
              14       -3259.22168374452394    0.6292090
              15       -3259.25281847337556    0.6145282
              16       -3259.26677341415962    0.6019166
              17       -3259.27264638842553    0.5779479
              18       -3259.27538551716680    0.5633563
              19       -3259.27655881618693    0.5469620
              20       -3259.27701030880553    0.5161490
              21       -3259.27722761202949    0.5013723
              22       -3259.27738314016551    0.5000094
              23       -3259.27748339688651    0.5000000
              24       -3259.27751186315891    0.5000000
              25       -3259.27751354152224    0.5000004
              26       -3259.27751354683505    0.5000004
Termination criterion satisfied: band energy change below threshold.
Final occupancy bounds: [    0.00000000000001:    1.00000000000000]
Closest occupancy to 0.5:     1.00000000000000
================================================================================
... done

Writing density kernel to file "complex_34681.vacuum_dkn" ... done

>>> Optimising kernel for current NGWFs:
   Initial electron number for spin 1:    7234.00000000
     Final electron number for spin 1:    7234.00000000

=================== Penalty functional idempotency correction ==================
 RMS occupancy error at iteration   1:  0.000000 (step -0.5000 Ne1=   7234.0000)
            Final RMS occupancy error   :  0.000000 (Ne1=   7234.0000)
               Final occupancy bounds   : [  0.0000,  1.0000]
================================================================================

................................................................................
<<<<<<<<<<<<<< LNV (Original version) density kernel optimisation >>>>>>>>>>>>>>
~~~~~~~~~~~~~~~~~~~~~~~~~~~~~~~~~~~~~~~~~~~~~~~~~~~~~~~~~~~~~~~~~~~~~~~~~~~~~~~~
   iter  |      energy (Eh)       | rms gradient |  commutator  |   dE (Eh)
MG BCs: +ve charge blocks (gridpoints):     30848 (   17277529).
MG BCs: -ve charge blocks (gridpoints):      8396 (    1116566).
MG BCs:     Elided blocks (gridpoints):    169787 (  177902370).
MG BCs: Computational effort saved:  99.9800%.
MG BCs: Charge after coarse-graining:           -9.0009313.
MG DL_MG: Calling solver with defect correction order = 8
MG DL_MG: Solver finished
MG Hartree energy from (\int phi*rho dr):              1432.523644
MG Hartree energy from (\int eps (grad phi)^2 dr):     1431.858758
MG Discrepancy due to finite box and discretization:     -0.664886 (  -0.04641%)
MG Correction to account for finite box:                  0.468081
MG Remaining discrepancy, due to discretization:         -0.196805 (  -0.01374%)
      ideal mu1:      -0.713939446726
             Q0:  -11573.638556026504
             G0:    -146.088661634194
   RMS gradient:       0.001846145450
MG BCs: +ve charge blocks (gridpoints):     30843 (   17357977).
MG BCs: -ve charge blocks (gridpoints):      8293 (    1096569).
MG BCs:     Elided blocks (gridpoints):    169790 (  177841919).
MG BCs: Computational effort saved:  99.9801%.
MG BCs: Charge after coarse-graining:           -9.0009540.
MG DL_MG: Calling solver with defect correction order = 8
MG DL_MG: Solver finished
MG Hartree energy from (\int phi*rho dr):              1456.742628
MG Hartree energy from (\int eps (grad phi)^2 dr):     1456.095445
MG Discrepancy due to finite box and discretization:     -0.647183 (  -0.04443%)
MG Correction to account for finite box:                  0.466460
MG Remaining discrepancy, due to discretization:         -0.180723 (  -0.01241%)
     Trial step:       0.500000000000
             Q1:  -11585.394021178945
 Quadratic coef:      61.288865664656
 Linear coef   :     -73.044330817097
           Qmin:  -11595.402192074653
Quadratic minimum step length (  0.297951063480) accepted
    Initial Ne1:    7234.00000000
      Final Ne1:    7234.00000000

=================== Penalty functional idempotency correction ==================
 RMS occupancy error at iteration   1:  0.003459 (step -0.4880 Ne1=   7234.0000)
 RMS occupancy error at iteration   2:  0.000034 (step -0.5006 Ne1=   7234.0000)
            Final RMS occupancy error   :  0.000000 (Ne1=   7234.0000)
               Final occupancy bounds   : [  0.0000,  1.0000]
================================================================================

    1        -1.157363855603E+04     1.8461E-03     1.6708E-03
MG BCs: +ve charge blocks (gridpoints):     30859 (   17326520).
MG BCs: -ve charge blocks (gridpoints):      8344 (    1105095).
MG BCs:     Elided blocks (gridpoints):    169774 (  177864850).
MG BCs: Computational effort saved:  99.9800%.
MG BCs: Charge after coarse-graining:           -9.0009449.
MG DL_MG: Calling solver with defect correction order = 8
MG DL_MG: Solver finished
MG Hartree energy from (\int phi*rho dr):              1438.971314
MG Hartree energy from (\int eps (grad phi)^2 dr):     1438.317954
MG Discrepancy due to finite box and discretization:     -0.653360 (  -0.04540%)
MG Correction to account for finite box:                  0.466984
MG Remaining discrepancy, due to discretization:         -0.186376 (  -0.01295%)
      ideal mu1:      -0.753704030483
             Q0:  -11595.813054275350
             G0:     -12.374394640126
   RMS gradient:       0.000533639423
MG BCs: +ve charge blocks (gridpoints):     30851 (   17343468).
MG BCs: -ve charge blocks (gridpoints):      8321 (    1100148).
MG BCs:     Elided blocks (gridpoints):    169782 (  177852849).
MG BCs: Computational effort saved:  99.9800%.
MG BCs: Charge after coarse-graining:           -9.0009486.
MG DL_MG: Calling solver with defect correction order = 8
MG DL_MG: Solver finished
MG Hartree energy from (\int phi*rho dr):              1443.950005
MG Hartree energy from (\int eps (grad phi)^2 dr):     1443.300509
MG Discrepancy due to finite box and discretization:     -0.649496 (  -0.04498%)
MG Correction to account for finite box:                  0.466349
MG Remaining discrepancy, due to discretization:         -0.183147 (  -0.01268%)
     Trial step:       0.385973485799
             Q1:  -11598.712981402176
 Quadratic coef:       1.876261107080
 Linear coef   :      -4.776188233906
           Qmin:  -11598.852606441040
Quadratic minimum step length (  0.491264785727) accepted
    Initial Ne1:    7233.99953659
      Final Ne1:    7234.00000000

=================== Penalty functional idempotency correction ==================
 RMS occupancy error at iteration   1:  0.001870 (step -0.4918 Ne1=   7234.0000)
 RMS occupancy error at iteration   2:  0.000022 (step -0.5010 Ne1=   7234.0000)
            Final RMS occupancy error   :  0.000000 (Ne1=   7234.0000)
               Final occupancy bounds   : [  0.0000,  1.0000]
================================================================================

    2        -1.159581305428E+04     5.3364E-04     4.8296E-04    -2.2174E+01
MG BCs: +ve charge blocks (gridpoints):     30850 (   17348004).
MG BCs: -ve charge blocks (gridpoints):      8311 (    1098853).
MG BCs:     Elided blocks (gridpoints):    169783 (  177849608).
MG BCs: Computational effort saved:  99.9801%.
MG BCs: Charge after coarse-graining:           -9.0009497.
MG DL_MG: Calling solver with defect correction order = 8
MG DL_MG: Solver finished
MG Hartree energy from (\int phi*rho dr):              1445.361637
MG Hartree energy from (\int eps (grad phi)^2 dr):     1444.713119
MG Discrepancy due to finite box and discretization:     -0.648518 (  -0.04487%)
MG Correction to account for finite box:                  0.466189
MG Remaining discrepancy, due to discretization:         -0.182329 (  -0.01261%)
      ideal mu1:      -0.775654886105
             Q0:  -11598.891602285206
             G0:      -1.952872899519
   RMS gradient:       0.000212031792
MG BCs: +ve charge blocks (gridpoints):     30857 (   17347702).
MG BCs: -ve charge blocks (gridpoints):      8318 (    1099796).
MG BCs:     Elided blocks (gridpoints):    169776 (  177848967).
MG BCs: Computational effort saved:  99.9800%.
MG BCs: Charge after coarse-graining:           -9.0009494.
MG DL_MG: Calling solver with defect correction order = 8
MG DL_MG: Solver finished
MG Hartree energy from (\int phi*rho dr):              1443.136135
MG Hartree energy from (\int eps (grad phi)^2 dr):     1442.487933
MG Discrepancy due to finite box and discretization:     -0.648202 (  -0.04492%)
MG Correction to account for finite box:                  0.466068
MG Remaining discrepancy, due to discretization:         -0.182134 (  -0.01262%)
     Trial step:       0.435448253869
             Q1:  -11599.391381653026
 Quadratic coef:       0.350595726304
 Linear coef   :      -0.850375094124
           Qmin:  -11599.407251611803
Quadratic minimum step length (  0.528093074284) accepted
    Initial Ne1:    7233.99949566
      Final Ne1:    7234.00000000

=================== Penalty functional idempotency correction ==================
 RMS occupancy error at iteration   1:  0.000658 (step -0.4964 Ne1=   7234.0000)
 RMS occupancy error at iteration   2:  0.000004 (step -0.5000 Ne1=   7234.0000)
            Final RMS occupancy error   :  0.000000 (Ne1=   7234.0000)
               Final occupancy bounds   : [  0.0000,  1.0000]
================================================================================

    3        -1.159889160229E+04     2.1203E-04     1.9190E-04    -3.0785E+00
MG BCs: +ve charge blocks (gridpoints):     30853 (   17347604).
MG BCs: -ve charge blocks (gridpoints):      8319 (    1100062).
MG BCs:     Elided blocks (gridpoints):    169780 (  177848799).
MG BCs: Computational effort saved:  99.9800%.
MG BCs: Charge after coarse-graining:           -9.0009494.
MG DL_MG: Calling solver with defect correction order = 8
MG DL_MG: Solver finished
MG Hartree energy from (\int phi*rho dr):              1442.672185
MG Hartree energy from (\int eps (grad phi)^2 dr):     1442.024039
MG Discrepancy due to finite box and discretization:     -0.648145 (  -0.04493%)
MG Correction to account for finite box:                  0.466043
MG Remaining discrepancy, due to discretization:         -0.182102 (  -0.01262%)
      ideal mu1:      -0.776431914112
             Q0:  -11599.412234022981
             G0:      -0.510477318059
   RMS gradient:       0.000108545686
MG BCs: +ve charge blocks (gridpoints):     30853 (   17348692).
MG BCs: -ve charge blocks (gridpoints):      8318 (    1099902).
MG BCs:     Elided blocks (gridpoints):    169780 (  177847871).
MG BCs: Computational effort saved:  99.9800%.
MG BCs: Charge after coarse-graining:           -9.0009495.
MG DL_MG: Calling solver with defect correction order = 8
MG DL_MG: Solver finished
MG Hartree energy from (\int phi*rho dr):              1443.950925
MG Hartree energy from (\int eps (grad phi)^2 dr):     1443.302771
MG Discrepancy due to finite box and discretization:     -0.648154 (  -0.04489%)
MG Correction to account for finite box:                  0.465960
MG Remaining discrepancy, due to discretization:         -0.182194 (  -0.01262%)
     Trial step:       0.479538535550
             Q1:  -11599.537435696111
 Quadratic coef:       0.119591872402
 Linear coef   :      -0.244793545534
           Qmin:  -11599.537501482071
Quadratic minimum step length (  0.490785602646) accepted
    Initial Ne1:    7233.99987741
      Final Ne1:    7234.00000000

=================== Penalty functional idempotency correction ==================
 RMS occupancy error at iteration   1:  0.000279 (step -0.4961 Ne1=   7234.0000)
 RMS occupancy error at iteration   2:  0.000003 (step -0.5000 Ne1=   7234.0000)
            Final RMS occupancy error   :  0.000000 (Ne1=   7234.0000)
               Final occupancy bounds   : [  0.0000,  1.0000]
================================================================================

    4        -1.159941223402E+04     1.0855E-04     9.8237E-05    -5.2063E-01
MG BCs: +ve charge blocks (gridpoints):     30853 (   17348731).
MG BCs: -ve charge blocks (gridpoints):      8318 (    1099888).
MG BCs:     Elided blocks (gridpoints):    169780 (  177847846).
MG BCs: Computational effort saved:  99.9800%.
MG BCs: Charge after coarse-graining:           -9.0009495.
MG DL_MG: Calling solver with defect correction order = 8
MG DL_MG: Solver finished
MG Hartree energy from (\int phi*rho dr):              1443.981406
MG Hartree energy from (\int eps (grad phi)^2 dr):     1443.333252
MG Discrepancy due to finite box and discretization:     -0.648154 (  -0.04489%)
MG Correction to account for finite box:                  0.465958
MG Remaining discrepancy, due to discretization:         -0.182197 (  -0.01262%)
      ideal mu1:      -0.776662375253
             Q0:  -11599.538153796108
             G0:      -0.177444150810
   RMS gradient:       0.000064174354
MG BCs: +ve charge blocks (gridpoints):     30858 (   17349001).
MG BCs: -ve charge blocks (gridpoints):      8314 (    1099684).
MG BCs:     Elided blocks (gridpoints):    169775 (  177847780).
MG BCs: Computational effort saved:  99.9800%.
MG BCs: Charge after coarse-graining:           -9.0009494.
MG DL_MG: Calling solver with defect correction order = 8
MG DL_MG: Solver finished
MG Hartree energy from (\int phi*rho dr):              1444.429059
MG Hartree energy from (\int eps (grad phi)^2 dr):     1443.780749
MG Discrepancy due to finite box and discretization:     -0.648310 (  -0.04488%)
MG Correction to account for finite box:                  0.465956
MG Remaining discrepancy, due to discretization:         -0.182354 (  -0.01262%)
     Trial step:       0.485129476698
             Q1:  -11599.592924139928
 Quadratic coef:       0.031313044205
 Linear coef   :      -0.086083388025
           Qmin:  -11599.597317236474
Quadratic minimum step length (  0.666840130783) accepted
    Initial Ne1:    7233.99994182
      Final Ne1:    7234.00000000

=================== Penalty functional idempotency correction ==================
 RMS occupancy error at iteration   1:  0.000347 (step -0.4817 Ne1=   7234.0000)
 RMS occupancy error at iteration   2:  0.000007 (step -0.5000 Ne1=   7234.0000)
            Final RMS occupancy error   :  0.000000 (Ne1=   7234.0000)
               Final occupancy bounds   : [  0.0000,  1.0000]
================================================================================

    5        -1.159953815380E+04     6.4174E-05     5.8080E-05    -1.2592E-01
MG BCs: +ve charge blocks (gridpoints):     30854 (   17349054).
MG BCs: -ve charge blocks (gridpoints):      8316 (    1099625).
MG BCs:     Elided blocks (gridpoints):    169779 (  177847786).
MG BCs: Computational effort saved:  99.9800%.
MG BCs: Charge after coarse-graining:           -9.0009494.
MG DL_MG: Calling solver with defect correction order = 8
MG DL_MG: Solver finished
MG Hartree energy from (\int phi*rho dr):              1444.595211
MG Hartree energy from (\int eps (grad phi)^2 dr):     1443.946843
MG Discrepancy due to finite box and discretization:     -0.648369 (  -0.04488%)
MG Correction to account for finite box:                  0.465956
MG Remaining discrepancy, due to discretization:         -0.182413 (  -0.01263%)
      ideal mu1:      -0.776787684831
             Q0:  -11599.597198946634
             G0:      -0.142821732056
   RMS gradient:       0.000057811395
MG BCs: +ve charge blocks (gridpoints):     30851 (   17348243).
MG BCs: -ve charge blocks (gridpoints):      8318 (    1100013).
MG BCs:     Elided blocks (gridpoints):    169782 (  177848209).
MG BCs: Computational effort saved:  99.9800%.
MG BCs: Charge after coarse-graining:           -9.0009492.
MG DL_MG: Calling solver with defect correction order = 8
MG DL_MG: Solver finished
MG Hartree energy from (\int phi*rho dr):              1443.388719
MG Hartree energy from (\int eps (grad phi)^2 dr):     1442.740356
MG Discrepancy due to finite box and discretization:     -0.648363 (  -0.04492%)
MG Correction to account for finite box:                  0.465963
MG Remaining discrepancy, due to discretization:         -0.182400 (  -0.01264%)
     Trial step:       0.568773947793
             Q1:  -11599.660357530112
 Quadratic coef:       0.018074696894
 Linear coef   :      -0.081233280372
           Qmin:  -11599.688470820771
Quadratic minimum step length (  1.278123053436) accepted
    Initial Ne1:    7233.99987889
      Final Ne1:    7234.00000000

=================== Penalty functional idempotency correction ==================
 RMS occupancy error at iteration   1:  0.002700 (step -0.3615 Ne1=   7234.0000)
 RMS occupancy error at iteration   2:  0.000195 (step -0.4937 Ne1=   7234.0000)
 RMS occupancy error at iteration   3:  0.000002 (step -0.5000 Ne1=   7234.0000)
            Final RMS occupancy error   :  0.000000 (Ne1=   7234.0000)
               Final occupancy bounds   : [  0.0000,  1.0000]
================================================================================

    6        -1.159959719895E+04     5.7811E-05     5.2321E-05    -5.9045E-02
MG BCs: +ve charge blocks (gridpoints):     30850 (   17347288).
MG BCs: -ve charge blocks (gridpoints):      8315 (    1100469).
MG BCs:     Elided blocks (gridpoints):    169783 (  177848708).
MG BCs: Computational effort saved:  99.9800%.
MG BCs: Charge after coarse-graining:           -9.0009491.
MG DL_MG: Calling solver with defect correction order = 8
MG DL_MG: Solver finished
MG Hartree energy from (\int phi*rho dr):              1441.876750
MG Hartree energy from (\int eps (grad phi)^2 dr):     1441.228400
MG Discrepancy due to finite box and discretization:     -0.648350 (  -0.04497%)
MG Correction to account for finite box:                  0.465968
MG Remaining discrepancy, due to discretization:         -0.182383 (  -0.01265%)
      ideal mu1:      -0.776026314318
             Q0:  -11599.674089539563
             G0:      -0.297652458015
   RMS gradient:       0.000083332113
MG BCs: +ve charge blocks (gridpoints):     30853 (   17350473).
MG BCs: -ve charge blocks (gridpoints):      8312 (    1098923).
MG BCs:     Elided blocks (gridpoints):    169780 (  177847069).
MG BCs: Computational effort saved:  99.9800%.
MG BCs: Charge after coarse-graining:           -9.0009498.
MG DL_MG: Calling solver with defect correction order = 8
MG DL_MG: Solver finished
MG Hartree energy from (\int phi*rho dr):              1445.640488
MG Hartree energy from (\int eps (grad phi)^2 dr):     1444.992307
MG Discrepancy due to finite box and discretization:     -0.648181 (  -0.04484%)
MG Correction to account for finite box:                  0.465931
MG Remaining discrepancy, due to discretization:         -0.182250 (  -0.01261%)
     Trial step:       0.852621308008
             Q1:  -11599.738293979317
 Quadratic coef:       0.189580388331
 Linear coef   :      -0.253784828085
           Qmin:  -11599.759022822394
Quadratic minimum step length (  0.570687595851) accepted
    Initial Ne1:    7233.99999952
      Final Ne1:    7234.00000000

=================== Penalty functional idempotency correction ==================
 RMS occupancy error at iteration   1:  0.000119 (step -0.4926 Ne1=   7234.0000)
 RMS occupancy error at iteration   2:  0.000001 (step -0.5000 Ne1=   7234.0000)
            Final RMS occupancy error   :  0.000000 (Ne1=   7234.0000)
               Final occupancy bounds   : [  0.0000,  1.0000]
================================================================================

    7        -1.159967408954E+04     8.3332E-05     7.5418E-05    -7.6891E-02
MG BCs: +ve charge blocks (gridpoints):     30857 (   17349409).
MG BCs: -ve charge blocks (gridpoints):      8313 (    1099468).
MG BCs:     Elided blocks (gridpoints):    169776 (  177847588).
MG BCs: Computational effort saved:  99.9800%.
MG BCs: Charge after coarse-graining:           -9.0009495.
MG DL_MG: Calling solver with defect correction order = 8
MG DL_MG: Solver finished
MG Hartree energy from (\int phi*rho dr):              1444.389154
MG Hartree energy from (\int eps (grad phi)^2 dr):     1443.740920
MG Discrepancy due to finite box and discretization:     -0.648234 (  -0.04488%)
MG Correction to account for finite box:                  0.465942
MG Remaining discrepancy, due to discretization:         -0.182292 (  -0.01262%)
      ideal mu1:      -0.777434636766
             Q0:  -11599.759188370546
             G0:      -0.204562376788
   RMS gradient:       0.000069024235
MG BCs: +ve charge blocks (gridpoints):     30855 (   17349619).
MG BCs: -ve charge blocks (gridpoints):      8314 (    1099403).
MG BCs:     Elided blocks (gridpoints):    169778 (  177847443).
MG BCs: Computational effort saved:  99.9800%.
MG BCs: Charge after coarse-graining:           -9.0009496.
MG DL_MG: Calling solver with defect correction order = 8
MG DL_MG: Solver finished
MG Hartree energy from (\int phi*rho dr):              1444.461752
MG Hartree energy from (\int eps (grad phi)^2 dr):     1443.813584
MG Discrepancy due to finite box and discretization:     -0.648168 (  -0.04487%)
MG Correction to account for finite box:                  0.466023
MG Remaining discrepancy, due to discretization:         -0.182145 (  -0.01261%)
     Trial step:       0.697553155278
             Q1:  -11599.850586968940
 Quadratic coef:       0.051294532987
 Linear coef   :      -0.142693131380
           Qmin:  -11599.858425699349
Quadratic minimum step length (  0.970240279374) accepted
    Initial Ne1:    7233.99999938
      Final Ne1:    7234.00000000

=================== Penalty functional idempotency correction ==================
 RMS occupancy error at iteration   1:  0.001335 (step -0.4262 Ne1=   7234.0000)
 RMS occupancy error at iteration   2:  0.000049 (step -0.4986 Ne1=   7234.0000)
 RMS occupancy error at iteration   3:  0.000000 (step -0.5000 Ne1=   7234.0000)
            Final RMS occupancy error   :  0.000000 (Ne1=   7234.0000)
               Final occupancy bounds   : [  0.0000,  1.0000]
================================================================================

    8        -1.159975918837E+04     6.9024E-05     6.2469E-05    -8.5099E-02
MG BCs: +ve charge blocks (gridpoints):     30855 (   17349678).
MG BCs: -ve charge blocks (gridpoints):      8316 (    1099394).
MG BCs:     Elided blocks (gridpoints):    169778 (  177847393).
MG BCs: Computational effort saved:  99.9800%.
MG BCs: Charge after coarse-graining:           -9.0009497.
MG DL_MG: Calling solver with defect correction order = 8
MG DL_MG: Solver finished
MG Hartree energy from (\int phi*rho dr):              1444.489859
MG Hartree energy from (\int eps (grad phi)^2 dr):     1443.841717
MG Discrepancy due to finite box and discretization:     -0.648141 (  -0.04487%)
MG Correction to account for finite box:                  0.466053
MG Remaining discrepancy, due to discretization:         -0.182088 (  -0.01261%)
      ideal mu1:      -0.777753632932
             Q0:  -11599.854954352370
             G0:      -0.297145949170
   RMS gradient:       0.000084919138
MG BCs: +ve charge blocks (gridpoints):     30853 (   17348689).
MG BCs: -ve charge blocks (gridpoints):      8315 (    1099976).
MG BCs:     Elided blocks (gridpoints):    169780 (  177847800).
MG BCs: Computational effort saved:  99.9800%.
MG BCs: Charge after coarse-graining:           -9.0009496.
MG DL_MG: Calling solver with defect correction order = 8
MG DL_MG: Solver finished
MG Hartree energy from (\int phi*rho dr):              1442.609353
MG Hartree energy from (\int eps (grad phi)^2 dr):     1441.961309
MG Discrepancy due to finite box and discretization:     -0.648044 (  -0.04492%)
MG Correction to account for finite box:                  0.466128
MG Remaining discrepancy, due to discretization:         -0.181916 (  -0.01261%)
     Trial step:       0.822675007676
             Q1:  -11599.943526550895
 Quadratic coef:       0.155882347490
 Linear coef   :      -0.244454546014
           Qmin:  -11599.950792697809
Quadratic minimum step length (  0.645059074223) accepted
    Initial Ne1:    7233.99999937
      Final Ne1:    7234.00000000

=================== Penalty functional idempotency correction ==================
 RMS occupancy error at iteration   1:  0.004153 (step -0.3311 Ne1=   7234.0000)
 RMS occupancy error at iteration   2:  0.000297 (step -0.4920 Ne1=   7234.0000)
 RMS occupancy error at iteration   3:  0.000007 (step -0.5004 Ne1=   7234.0000)
            Final RMS occupancy error   :  0.000000 (Ne1=   7234.0000)
               Final occupancy bounds   : [  0.0000,  1.0000]
================================================================================

    9        -1.159985495435E+04     8.4919E-05     7.6855E-05    -9.5766E-02
MG BCs: +ve charge blocks (gridpoints):     30852 (   17348856).
MG BCs: -ve charge blocks (gridpoints):      8314 (    1099843).
MG BCs:     Elided blocks (gridpoints):    169781 (  177847766).
MG BCs: Computational effort saved:  99.9800%.
MG BCs: Charge after coarse-graining:           -9.0009496.
MG DL_MG: Calling solver with defect correction order = 8
MG DL_MG: Solver finished
MG Hartree energy from (\int phi*rho dr):              1443.021767
MG Hartree energy from (\int eps (grad phi)^2 dr):     1442.373658
MG Discrepancy due to finite box and discretization:     -0.648109 (  -0.04491%)
MG Correction to account for finite box:                  0.466160
MG Remaining discrepancy, due to discretization:         -0.181949 (  -0.01261%)
      ideal mu1:      -0.777601734641
   10        -1.159995762605E+04     8.0164E-05     7.2551E-05    -1.0267E-01
Finished density kernel iterations (  10)

Writing density kernel to file "complex_34681.vacuum_dkn" ... done


>>> Density kernel optimised for the current NGWF basis:
     ~~~~~~~~~~~~~~~~~~~~~~~~~~~~~~~~~~~~~~~~~~~~~~~~~~~~~~~~~~~
     Total energy                =  -1.15999576260473E+04  Eh
     Estimated bandgap           =  -4.4401E-01  Eh
     RMS occupancy error         =   1.3566E-09
     [H,K] commutator            =   7.2551E-05
     Occupancy bounds            = [  0.000:  1.000]
     ~~~~~~~~~~~~~~~~~~~~~~~~~~~~~~~~~~~~~~~~~~~~~~~~~~~~~~~~~~~




################################################################################
########################### NGWF CG iteration  001 #############################
################################################################################
****** Reciprocal space K.E. preconditioning with k_zero =  3.5000 a0^-1 *******

>>> Checking for convergence of NGWFs:   NOT CONVERGED
  ========================================================================
         NGWF RMS gradient =  1.5921E-03 >  2.0000E-06  | above tolerance
  ========================================================================

>>> Improving NGWFs using line search:
============ Calculation of NGWF S^-1 using Hotelling algorithm ================ 
         Iteration  |  Frobenius norm and Maximum abs value    (of I-S*S_n^-1)   
               1       0.19776232E+00     0.52257465E-02
               2       0.90808002E-03     0.38434208E-04
               3       0.33390901E-07     0.24209089E-08
               4       0.13190180E-12     0.64392935E-14
================================================================================
MG BCs: +ve charge blocks (gridpoints):     30388 (   17306112).
MG BCs: -ve charge blocks (gridpoints):      8327 (    1099630).
MG BCs:     Elided blocks (gridpoints):    170250 (  177890723).
MG BCs: Computational effort saved:  99.9803%.
MG BCs: Charge after coarse-graining:           -9.0009499.
MG DL_MG: Calling solver with defect correction order = 8
MG DL_MG: Solver finished
MG Hartree energy from (\int phi*rho dr):              1411.165664
MG Hartree energy from (\int eps (grad phi)^2 dr):     1410.518403
MG Discrepancy due to finite box and discretization:     -0.647261 (  -0.04587%)
MG Correction to account for finite box:                  0.466117
MG Remaining discrepancy, due to discretization:         -0.181143 (  -0.01284%)
============ Calculation of NGWF S^-1 using Hotelling algorithm ================ 
         Iteration  |  Frobenius norm and Maximum abs value    (of I-S*S_n^-1)   
               1       0.18472109E+01     0.39525071E-01
               2       0.70815636E-01     0.21399571E-02
               3       0.14326154E-03     0.90733311E-05
               4       0.12019430E-08     0.19578642E-09
               5       0.11305235E-12     0.66613381E-14
================================================================================
------------------------------- NGWF line search -------------------------------
RMS gradient                =       0.00159214013624
Trial step length           =               0.122474
Gradient along search dir.  =       -277.06461152705
Functional at step 0        =  -11599.95762604731135
Functional at step 1        =  -11631.29545187402982
Functional predicted        =  -11710.86717579855394
Selected quadratic step     =               0.800604
--------------------------- NGWF line search finished --------------------------
                                               
Writing NGWFs to file "complex_34681.vacuum_tightbox_ngwfs"....  done

>>> Optimising kernel for current NGWFs:
   Initial electron number for spin 1:    7268.71355926
     Final electron number for spin 1:    7234.00000000

=================== Penalty functional idempotency correction ==================
 RMS occupancy error at iteration   1:  0.004298 (step -0.4858 Ne1=   7234.0000)
 RMS occupancy error at iteration   2:  0.000072 (step -0.5003 Ne1=   7234.0000)
            Final RMS occupancy error   :  0.000000 (Ne1=   7234.0000)
               Final occupancy bounds   : [  0.0000,  1.0000]
================================================================================

................................................................................
<<<<<<<<<<<<<< LNV (Original version) density kernel optimisation >>>>>>>>>>>>>>
~~~~~~~~~~~~~~~~~~~~~~~~~~~~~~~~~~~~~~~~~~~~~~~~~~~~~~~~~~~~~~~~~~~~~~~~~~~~~~~~
   iter  |      energy (Eh)       | rms gradient |  commutator  |   dE (Eh)
MG BCs: +ve charge blocks (gridpoints):     24800 (   17060999).
MG BCs: -ve charge blocks (gridpoints):      8458 (    1083103).
MG BCs:     Elided blocks (gridpoints):    175840 (  178152363).
MG BCs: Computational effort saved:  99.9831%.
MG BCs: Charge after coarse-graining:           -9.0006585.
MG DL_MG: Calling solver with defect correction order = 8
MG DL_MG: Solver finished
MG Hartree energy from (\int phi*rho dr):              1256.896611
MG Hartree energy from (\int eps (grad phi)^2 dr):     1256.249350
MG Discrepancy due to finite box and discretization:     -0.647261 (  -0.05150%)
MG Correction to account for finite box:                  0.465926
MG Remaining discrepancy, due to discretization:         -0.181335 (  -0.01443%)
      ideal mu1:      -0.716549536194
             Q0:  -11710.073538161931
             G0:      -9.828284650694
   RMS gradient:       0.000478846726
MG BCs: +ve charge blocks (gridpoints):     24854 (   17075285).
MG BCs: -ve charge blocks (gridpoints):      8446 (    1079584).
MG BCs:     Elided blocks (gridpoints):    175786 (  178141596).
MG BCs: Computational effort saved:  99.9830%.
MG BCs: Charge after coarse-graining:           -9.0006548.
MG DL_MG: Calling solver with defect correction order = 8
MG DL_MG: Solver finished
MG Hartree energy from (\int phi*rho dr):              1272.926427
MG Hartree energy from (\int eps (grad phi)^2 dr):     1272.273403
MG Discrepancy due to finite box and discretization:     -0.653024 (  -0.05130%)
MG Correction to account for finite box:                  0.465624
MG Remaining discrepancy, due to discretization:         -0.187400 (  -0.01472%)
     Trial step:       0.728473732428
             Q1:  -11709.421718249680
 Quadratic coef:       7.811467115109
 Linear coef   :      -7.159647202857
           Qmin:  -11711.714092596649
Quadratic minimum step length (  0.333843492130) accepted
    Initial Ne1:    7233.99956951
      Final Ne1:    7234.00000000

=================== Penalty functional idempotency correction ==================
 RMS occupancy error at iteration   1:  0.000361 (step -0.4985 Ne1=   7234.0000)
 RMS occupancy error at iteration   2:  0.000000 (step -0.5000 Ne1=   7234.0000)
            Final RMS occupancy error   :  0.000000 (Ne1=   7234.0000)
               Final occupancy bounds   : [  0.0000,  1.0000]
================================================================================

    1        -1.171007353816E+04     4.7885E-04     4.3337E-04
MG BCs: +ve charge blocks (gridpoints):     24821 (   17067533).
MG BCs: -ve charge blocks (gridpoints):      8453 (    1081529).
MG BCs:     Elided blocks (gridpoints):    175819 (  178147403).
MG BCs: Computational effort saved:  99.9830%.
MG BCs: Charge after coarse-graining:           -9.0006568.
MG DL_MG: Calling solver with defect correction order = 8
MG DL_MG: Solver finished
MG Hartree energy from (\int phi*rho dr):              1263.292480
MG Hartree energy from (\int eps (grad phi)^2 dr):     1262.642672
MG Discrepancy due to finite box and discretization:     -0.649808 (  -0.05144%)
MG Correction to account for finite box:                  0.465767
MG Remaining discrepancy, due to discretization:         -0.184042 (  -0.01457%)
      ideal mu1:      -0.724231250030
             Q0:  -11711.687632534187
             G0:      -1.107750567118
   RMS gradient:       0.000161475845
MG BCs: +ve charge blocks (gridpoints):     24824 (   17066804).
MG BCs: -ve charge blocks (gridpoints):      8455 (    1082446).
MG BCs:     Elided blocks (gridpoints):    175816 (  178147215).
MG BCs: Computational effort saved:  99.9830%.
MG BCs: Charge after coarse-graining:           -9.0006569.
MG DL_MG: Calling solver with defect correction order = 8
MG DL_MG: Solver finished
MG Hartree energy from (\int phi*rho dr):              1264.187680
MG Hartree energy from (\int eps (grad phi)^2 dr):     1263.537491
MG Discrepancy due to finite box and discretization:     -0.650189 (  -0.05143%)
MG Correction to account for finite box:                  0.465711
MG Remaining discrepancy, due to discretization:         -0.184478 (  -0.01459%)
     Trial step:       0.493149282428
             Q1:  -11711.934805924306
 Quadratic coef:       0.299113007164
 Linear coef   :      -0.546286397283
           Qmin:  -11711.937060694037
Quadratic minimum step length (  0.450332714338) accepted
    Initial Ne1:    7233.99993395
      Final Ne1:    7234.00000000

=================== Penalty functional idempotency correction ==================
 RMS occupancy error at iteration   1:  0.000207 (step -0.4964 Ne1=   7234.0000)
 RMS occupancy error at iteration   2:  0.000002 (step -0.5000 Ne1=   7234.0000)
            Final RMS occupancy error   :  0.000000 (Ne1=   7234.0000)
               Final occupancy bounds   : [  0.0000,  1.0000]
================================================================================

    2        -1.171168763253E+04     1.6148E-04     1.4614E-04    -1.6141E+00
MG BCs: +ve charge blocks (gridpoints):     24825 (   17066861).
MG BCs: -ve charge blocks (gridpoints):      8455 (    1082368).
MG BCs:     Elided blocks (gridpoints):    175815 (  178147236).
MG BCs: Computational effort saved:  99.9830%.
MG BCs: Charge after coarse-graining:           -9.0006569.
MG DL_MG: Calling solver with defect correction order = 8
MG DL_MG: Solver finished
MG Hartree energy from (\int phi*rho dr):              1264.110083
MG Hartree energy from (\int eps (grad phi)^2 dr):     1263.459929
MG Discrepancy due to finite box and discretization:     -0.650155 (  -0.05143%)
MG Correction to account for finite box:                  0.465715
MG Remaining discrepancy, due to discretization:         -0.184439 (  -0.01459%)
      ideal mu1:      -0.725299954655
             Q0:  -11711.937644648715
             G0:      -0.237855798206
   RMS gradient:       0.000074410056
MG BCs: +ve charge blocks (gridpoints):     24824 (   17065868).
MG BCs: -ve charge blocks (gridpoints):      8456 (    1082880).
MG BCs:     Elided blocks (gridpoints):    175816 (  178147717).
MG BCs: Computational effort saved:  99.9830%.
MG BCs: Charge after coarse-graining:           -9.0006570.
MG DL_MG: Calling solver with defect correction order = 8
MG DL_MG: Solver finished
MG Hartree energy from (\int phi*rho dr):              1263.427620
MG Hartree energy from (\int eps (grad phi)^2 dr):     1262.777543
MG Discrepancy due to finite box and discretization:     -0.650077 (  -0.05145%)
MG Correction to account for finite box:                  0.465653
MG Remaining discrepancy, due to discretization:         -0.184424 (  -0.01460%)
     Trial step:       0.471254978679
             Q1:  -11712.021908619790
 Quadratic coef:       0.027826758036
 Linear coef   :      -0.112090729112
           Qmin:  -11712.050524592694
Quadratic minimum step length (  0.949146035793) accepted
    Initial Ne1:    7233.99997006
      Final Ne1:    7234.00000000

=================== Penalty functional idempotency correction ==================
 RMS occupancy error at iteration   1:  0.000783 (step -0.4473 Ne1=   7234.0000)
 RMS occupancy error at iteration   2:  0.000021 (step -0.4995 Ne1=   7234.0000)
            Final RMS occupancy error   :  0.000000 (Ne1=   7234.0000)
               Final occupancy bounds   : [ -0.0000,  1.0000]
================================================================================

    3        -1.171193764465E+04     7.4410E-05     6.7343E-05    -2.5001E-01
MG BCs: +ve charge blocks (gridpoints):     24822 (   17064893).
MG BCs: -ve charge blocks (gridpoints):      8460 (    1083424).
MG BCs:     Elided blocks (gridpoints):    175818 (  178148148).
MG BCs: Computational effort saved:  99.9830%.
MG BCs: Charge after coarse-graining:           -9.0006570.
MG DL_MG: Calling solver with defect correction order = 8
MG DL_MG: Solver finished
MG Hartree energy from (\int phi*rho dr):              1262.735081
MG Hartree energy from (\int eps (grad phi)^2 dr):     1262.085081
MG Discrepancy due to finite box and discretization:     -0.649999 (  -0.05148%)
MG Correction to account for finite box:                  0.465590
MG Remaining discrepancy, due to discretization:         -0.184409 (  -0.01460%)
      ideal mu1:      -0.724220067374
             Q0:  -11712.047626569867
             G0:      -0.202650233771
   RMS gradient:       0.000069677165
MG BCs: +ve charge blocks (gridpoints):     24821 (   17064996).
MG BCs: -ve charge blocks (gridpoints):      8461 (    1083379).
MG BCs:     Elided blocks (gridpoints):    175819 (  178148090).
MG BCs: Computational effort saved:  99.9830%.
MG BCs: Charge after coarse-graining:           -9.0006570.
MG DL_MG: Calling solver with defect correction order = 8
MG DL_MG: Solver finished
MG Hartree energy from (\int phi*rho dr):              1262.773640
MG Hartree energy from (\int eps (grad phi)^2 dr):     1262.123951
MG Discrepancy due to finite box and discretization:     -0.649688 (  -0.05145%)
MG Correction to account for finite box:                  0.465483
MG Remaining discrepancy, due to discretization:         -0.184206 (  -0.01459%)
     Trial step:       0.668797274860
             Q1:  -11712.134487644187
 Quadratic coef:       0.048670849776
 Linear coef   :      -0.135531924096
           Qmin:  -11712.141979260101
Quadratic minimum step length (  0.931187578499) accepted
    Initial Ne1:    7234.00037252
      Final Ne1:    7234.00000000

=================== Penalty functional idempotency correction ==================
 RMS occupancy error at iteration   1:  0.003041 (step -0.3397 Ne1=   7234.0000)
 RMS occupancy error at iteration   2:  0.000165 (step -0.4902 Ne1=   7234.0000)
 RMS occupancy error at iteration   3:  0.000002 (step -0.5000 Ne1=   7234.0000)
            Final RMS occupancy error   :  0.000000 (Ne1=   7234.0000)
               Final occupancy bounds   : [  0.0000,  1.0000]
================================================================================

    4        -1.171204762657E+04     6.9677E-05     6.3060E-05    -1.0998E-01
MG BCs: +ve charge blocks (gridpoints):     24820 (   17065102).
MG BCs: -ve charge blocks (gridpoints):      8461 (    1083325).
MG BCs:     Elided blocks (gridpoints):    175820 (  178148038).
MG BCs: Computational effort saved:  99.9830%.
MG BCs: Charge after coarse-graining:           -9.0006569.
MG DL_MG: Calling solver with defect correction order = 8
MG DL_MG: Solver finished
MG Hartree energy from (\int phi*rho dr):              1262.800155
MG Hartree energy from (\int eps (grad phi)^2 dr):     1262.150571
MG Discrepancy due to finite box and discretization:     -0.649584 (  -0.05144%)
MG Correction to account for finite box:                  0.465457
MG Remaining discrepancy, due to discretization:         -0.184127 (  -0.01458%)
      ideal mu1:      -0.725082361551
             Q0:  -11712.139902033727
             G0:      -0.283697948264
   RMS gradient:       0.000079529048
MG BCs: +ve charge blocks (gridpoints):     24821 (   17068619).
MG BCs: -ve charge blocks (gridpoints):      8456 (    1082081).
MG BCs:     Elided blocks (gridpoints):    175819 (  178145765).
MG BCs: Computational effort saved:  99.9830%.
MG BCs: Charge after coarse-graining:           -9.0006562.
MG DL_MG: Calling solver with defect correction order = 8
MG DL_MG: Solver finished
MG Hartree energy from (\int phi*rho dr):              1264.912969
MG Hartree energy from (\int eps (grad phi)^2 dr):     1264.263658
MG Discrepancy due to finite box and discretization:     -0.649312 (  -0.05133%)
MG Correction to account for finite box:                  0.465315
MG Remaining discrepancy, due to discretization:         -0.183996 (  -0.01455%)
     Trial step:       0.789161399768
             Q1:  -11712.154998939019
 Quadratic coef:       0.208786564672
 Linear coef   :      -0.223883469963
           Qmin:  -11712.199920033689
Quadratic minimum step length (  0.423111977581) accepted
    Initial Ne1:    7234.00022031
      Final Ne1:    7234.00000000

=================== Penalty functional idempotency correction ==================
 RMS occupancy error at iteration   1:  0.003384 (step -0.3281 Ne1=   7234.0000)
 RMS occupancy error at iteration   2:  0.000192 (step -0.4874 Ne1=   7234.0000)
 RMS occupancy error at iteration   3:  0.000002 (step -0.5000 Ne1=   7234.0000)
            Final RMS occupancy error   :  0.000000 (Ne1=   7234.0000)
               Final occupancy bounds   : [  0.0000,  1.0000]
================================================================================

    5        -1.171213990203E+04     7.9529E-05     7.1976E-05    -9.2275E-02
MG BCs: +ve charge blocks (gridpoints):     24822 (   17067072).
MG BCs: -ve charge blocks (gridpoints):      8458 (    1082627).
MG BCs:     Elided blocks (gridpoints):    175818 (  178146766).
MG BCs: Computational effort saved:  99.9830%.
MG BCs: Charge after coarse-graining:           -9.0006565.
MG DL_MG: Calling solver with defect correction order = 8
MG DL_MG: Solver finished
MG Hartree energy from (\int phi*rho dr):              1263.893710
MG Hartree energy from (\int eps (grad phi)^2 dr):     1263.244331
MG Discrepancy due to finite box and discretization:     -0.649379 (  -0.05138%)
MG Correction to account for finite box:                  0.465330
MG Remaining discrepancy, due to discretization:         -0.184049 (  -0.01456%)
      ideal mu1:      -0.726433001804
             Q0:  -11712.220133568277
             G0:      -0.265985373449
   RMS gradient:       0.000064632339
MG BCs: +ve charge blocks (gridpoints):     24822 (   17068736).
MG BCs: -ve charge blocks (gridpoints):      8457 (    1082083).
MG BCs:     Elided blocks (gridpoints):    175818 (  178145646).
MG BCs: Computational effort saved:  99.9830%.
MG BCs: Charge after coarse-graining:           -9.0006562.
MG DL_MG: Calling solver with defect correction order = 8
MG DL_MG: Solver finished
MG Hartree energy from (\int phi*rho dr):              1264.749972
MG Hartree energy from (\int eps (grad phi)^2 dr):     1264.100658
MG Discrepancy due to finite box and discretization:     -0.649314 (  -0.05134%)
MG Correction to account for finite box:                  0.465189
MG Remaining discrepancy, due to discretization:         -0.184125 (  -0.01456%)
     Trial step:       0.577843958596
             Q1:  -11712.272829032736
 Quadratic coef:       0.101002576663
 Linear coef   :      -0.153698041123
           Qmin:  -11712.278605066296
Quadratic minimum step length (  0.439659499021) accepted
    Initial Ne1:    7234.00015092
      Final Ne1:    7234.00000000

=================== Penalty functional idempotency correction ==================
 RMS occupancy error at iteration   1:  0.003242 (step -0.3327 Ne1=   7234.0000)
 RMS occupancy error at iteration   2:  0.000179 (step -0.4882 Ne1=   7234.0000)
 RMS occupancy error at iteration   3:  0.000002 (step -0.5000 Ne1=   7234.0000)
            Final RMS occupancy error   :  0.000000 (Ne1=   7234.0000)
               Final occupancy bounds   : [  0.0000,  1.0000]
================================================================================

    6        -1.171222013357E+04     6.4632E-05     5.8494E-05    -8.0232E-02
MG BCs: +ve charge blocks (gridpoints):     24822 (   17068373).
MG BCs: -ve charge blocks (gridpoints):      8456 (    1082177).
MG BCs:     Elided blocks (gridpoints):    175818 (  178145915).
MG BCs: Computational effort saved:  99.9830%.
MG BCs: Charge after coarse-graining:           -9.0006563.
MG DL_MG: Calling solver with defect correction order = 8
MG DL_MG: Solver finished
MG Hartree energy from (\int phi*rho dr):              1264.527801
MG Hartree energy from (\int eps (grad phi)^2 dr):     1263.878507
MG Discrepancy due to finite box and discretization:     -0.649294 (  -0.05135%)
MG Correction to account for finite box:                  0.465192
MG Remaining discrepancy, due to discretization:         -0.184102 (  -0.01456%)
      ideal mu1:      -0.727409851945
             Q0:  -11712.295686099911
[...]
MG DL_MG: Calling solver with defect correction order = 8
MG DL_MG: Solver finished
MG Hartree energy from (\int phi*rho dr):              1221.142824
MG Hartree energy from (\int eps (grad phi)^2 dr):     1220.953078
MG Discrepancy due to finite box and discretization:     -0.189746 (  -0.01554%)
MG Correction to account for finite box:                  0.006394
MG Remaining discrepancy, due to discretization:         -0.183352 (  -0.01501%)
             Q2:  -11747.275000999332
  Cubic LS coeff:       0.915519789974
Predicted energy:  -11747.275000999323
Cubic minimum step length accepted
    Initial Ne1:    7234.00000000
      Final Ne1:    7234.00000000

=================== Penalty functional idempotency correction ==================
 RMS occupancy error at iteration   1:  0.000000 (step -0.5000 Ne1=   7234.0000)
            Final RMS occupancy error   :  0.000000 (Ne1=   7234.0000)
               Final occupancy bounds   : [  0.0000,  1.0000]
================================================================================

    7        -1.174727500100E+04     6.6112E-09     5.9833E-09    -1.2806E-09

Reusing previously generated solute cavity.
MG BCs: +ve charge blocks (gridpoints):     29086 (   19272749).
MG BCs: -ve charge blocks (gridpoints):      8455 (    1051876).
MG BCs:     Elided blocks (gridpoints):    171554 (  175971840).
MG BCs: Computational effort saved:  99.9809%.
MG BCs: Charge after coarse-graining:           -9.0009256.
MG DL_MG: Calling solver with defect correction order = 8
MG DL_MG: Solver finished
MG Hartree energy from (\int phi*rho dr):              1221.142825
MG Hartree energy from (\int eps (grad phi)^2 dr):     1220.953079
MG Discrepancy due to finite box and discretization:     -0.189746 (  -0.01554%)
MG Correction to account for finite box:                  0.006394
MG Remaining discrepancy, due to discretization:         -0.183352 (  -0.01501%)
      ideal mu1:      -0.482906370672
             Q0:  -11747.275000999332
             G0:      -0.000000002174
   RMS gradient:       0.000000006810

Reusing previously generated solute cavity.
MG BCs: +ve charge blocks (gridpoints):     29086 (   19272748).
MG BCs: -ve charge blocks (gridpoints):      8455 (    1051877).
MG BCs:     Elided blocks (gridpoints):    171554 (  175971840).
MG BCs: Computational effort saved:  99.9809%.
MG BCs: Charge after coarse-graining:           -9.0009256.
MG DL_MG: Calling solver with defect correction order = 8
MG DL_MG: Solver finished
MG Hartree energy from (\int phi*rho dr):              1221.142803
MG Hartree energy from (\int eps (grad phi)^2 dr):     1220.953057
MG Discrepancy due to finite box and discretization:     -0.189746 (  -0.01554%)
MG Correction to account for finite box:                  0.006394
MG Remaining discrepancy, due to discretization:         -0.183352 (  -0.01501%)
     Trial step:       0.667041694273
             Q1:  -11747.275001000031
 Quadratic coef:       0.000000000751
 Linear coef   :      -0.000000001450
           Qmin:  -11747.275001000033
Quadratic minimum step length (  0.643716721722) accepted
    Initial Ne1:    7234.00000000
      Final Ne1:    7234.00000000

=================== Penalty functional idempotency correction ==================
 RMS occupancy error at iteration   1:  0.000000 (step -0.5000 Ne1=   7234.0000)
            Final RMS occupancy error   :  0.000000 (Ne1=   7234.0000)
               Final occupancy bounds   : [ -0.0000,  1.0000]
================================================================================

    8        -1.174727500100E+04     6.8101E-09     6.1633E-09    -1.9791E-09

Reusing previously generated solute cavity.
MG BCs: +ve charge blocks (gridpoints):     29086 (   19272748).
MG BCs: -ve charge blocks (gridpoints):      8455 (    1051877).
MG BCs:     Elided blocks (gridpoints):    171554 (  175971840).
MG BCs: Computational effort saved:  99.9809%.
MG BCs: Charge after coarse-graining:           -9.0009256.
MG DL_MG: Calling solver with defect correction order = 8
MG DL_MG: Solver finished
MG Hartree energy from (\int phi*rho dr):              1221.142804
MG Hartree energy from (\int eps (grad phi)^2 dr):     1220.953058
MG Discrepancy due to finite box and discretization:     -0.189746 (  -0.01554%)
MG Correction to account for finite box:                  0.006394
MG Remaining discrepancy, due to discretization:         -0.183352 (  -0.01501%)
      ideal mu1:      -0.482906350458
             Q0:  -11747.275001000147
             G0:      -0.000000001026
   RMS gradient:       0.000000004048

Reusing previously generated solute cavity.
MG BCs: +ve charge blocks (gridpoints):     29086 (   19272748).
MG BCs: -ve charge blocks (gridpoints):      8455 (    1051876).
MG BCs:     Elided blocks (gridpoints):    171554 (  175971841).
MG BCs: Computational effort saved:  99.9809%.
MG BCs: Charge after coarse-graining:           -9.0009256.
MG DL_MG: Calling solver with defect correction order = 8
MG DL_MG: Solver finished
MG Hartree energy from (\int phi*rho dr):              1221.142807
MG Hartree energy from (\int eps (grad phi)^2 dr):     1220.953061
MG Discrepancy due to finite box and discretization:     -0.189746 (  -0.01554%)
MG Correction to account for finite box:                  0.006394
MG Remaining discrepancy, due to discretization:         -0.183352 (  -0.01501%)
     Trial step:       0.655275432692
             Q1:  -11747.275001000264
 Quadratic coef:       0.000000000555
 Linear coef   :      -0.000000000672
           Qmin:  -11747.275001000351
Quadratic minimum step length (  0.396848725582) accepted
    Initial Ne1:    7234.00000000
      Final Ne1:    7234.00000000

=================== Penalty functional idempotency correction ==================
 RMS occupancy error at iteration   1:  0.000000 (step -0.5000 Ne1=   7234.0000)
            Final RMS occupancy error   :  0.000000 (Ne1=   7234.0000)
               Final occupancy bounds   : [  0.0000,  1.0000]
================================================================================

    9        -1.174727500100E+04     4.0482E-09     3.6637E-09    -8.1491E-10

Reusing previously generated solute cavity.
MG BCs: +ve charge blocks (gridpoints):     29086 (   19272748).
MG BCs: -ve charge blocks (gridpoints):      8455 (    1051877).
MG BCs:     Elided blocks (gridpoints):    171554 (  175971840).
MG BCs: Computational effort saved:  99.9809%.
MG BCs: Charge after coarse-graining:           -9.0009256.
MG DL_MG: Calling solver with defect correction order = 8
MG DL_MG: Solver finished
MG Hartree energy from (\int phi*rho dr):              1221.142806
MG Hartree energy from (\int eps (grad phi)^2 dr):     1220.953060
MG Discrepancy due to finite box and discretization:     -0.189746 (  -0.01554%)
MG Correction to account for finite box:                  0.006394
MG Remaining discrepancy, due to discretization:         -0.183352 (  -0.01501%)
      ideal mu1:      -0.482906351561
   10        -1.174727500100E+04     2.9013E-09     2.6258E-09    -1.1642E-10
Finished density kernel iterations (  10)

Writing density kernel to file "complex_34681.dkn" ... done


>>> Density kernel optimised for the current NGWF basis:
     ~~~~~~~~~~~~~~~~~~~~~~~~~~~~~~~~~~~~~~~~~~~~~~~~~~~~~~~~~~~
     Total energy                =  -1.17472750010003E+04  Eh
     Estimated bandgap           =   8.1438E-02  Eh
     RMS occupancy error         =   4.7280E-16
     [H,K] commutator            =   2.6258E-09
     Occupancy bounds            = [  0.000:  1.000]
     ~~~~~~~~~~~~~~~~~~~~~~~~~~~~~~~~~~~~~~~~~~~~~~~~~~~~~~~~~~~




################################################################################
########################### NGWF CG iteration  004 #############################
################################################################################
****** Reciprocal space K.E. preconditioning with k_zero =  3.5000 a0^-1 *******

>>> Checking for convergence of NGWFs: 
           ........................................................
           |         *** NGWF optimisation converged ***          |
           | RMS NGWF gradient =    0.00000168112871              |
           | Criteria satisfied:                                  |
           | -> RMS NGWF gradient lower than set threshold.       |
           ========================================================

Reusing previously generated solute cavity.
MG BCs: +ve charge blocks (gridpoints):     29086 (   19272748).
MG BCs: -ve charge blocks (gridpoints):      8455 (    1051877).
MG BCs:     Elided blocks (gridpoints):    171554 (  175971840).
MG BCs: Computational effort saved:  99.9809%.
MG BCs: Charge after coarse-graining:           -9.0009256.
MG DL_MG: Calling solver with defect correction order = 8
MG DL_MG: Solver finished
MG Hartree energy from (\int phi*rho dr):              1221.142806
MG Hartree energy from (\int eps (grad phi)^2 dr):     1220.953060
MG Discrepancy due to finite box and discretization:     -0.189746 (  -0.01554%)
MG Correction to account for finite box:                  0.006394
MG Remaining discrepancy, due to discretization:         -0.183352 (  -0.01501%)

================================================================================
           ---------------- ENERGY COMPONENTS (Eh) ----------------
           | Kinetic                    :     8572.48250253105289 |
           | Pseudo. (local,OBC,corr'd) :    -5070.71314123762932 |
           | Pseudopotential (non-local):     1410.25276469613527 |
           | Hartree (molecular)        :     1221.14280590007661 |
           | Exchange-correlation       :    -3376.00657776519665 |
           | Ion-ion (open BC)          :   836098.95771675487049 |
           | Dispersion Correction      :       -3.25229162911156 |
           | Smeared ion non-self corr. :  -836050.87798456766177 |
           | Smeared ion self corr.     :   -14549.92364409075526 |
           | Solvent cavitation energy  :        2.35826170218052 |
           | Solute-solvent dis-rep en. :       -1.69541329424013 |
           | Total                      :   -11747.27500100032921 |
           --------------------------------------------------------
           ------ LOCAL ENERGY COMPONENTS FROM MATRIX TRACES ------
           | Pseudopotential (local)    :    -5070.71314123762477 |
           | Hartree                    :    -2010.09014948764525 |
           --------------------------------------------------------
           Integrated density           :     7233.99999999815464
           Integrated density tr(KS)    :     7234.00000000000000
================================================================================


                        <<<<< CALCULATION SUMMARY >>>>>                         
|ITER|    RMS GRADIENT   |     TOTAL ENERGY    |   step   |     Epredicted              
   0     0.00004385832045 -11747.19563019822817   0.656027 -11747.26459289928971        
   1     0.00000781107287 -11747.27478659595363   0.052546 -11747.27496180364506        
   2     0.00000361181401 -11747.27499226445798   0.010752 -11747.27499993003767        
   3     0.00000168112871 -11747.27500100026373  <-- CG                                 

=================== Finished the calculation in solvent ========================
= Adjusting the following parameters: 
= read_denskern: F
= read_tightbox_ngwfs: F
= maxit_pen: 0 (restored to user-specified value)
= restart read filename prefix: ""
= restart write filename prefix: ""
================================================================================

================================================================================
IS: Calculation in solvent completed (NGWFs converged).      

Individual components of total energy in solvent:     hartree           kcal/mol
- Usual non-electrostatic DFT terms:    -12969.08065530828026    -8138220.804535
- Electrostatic fixed charge energy:      1221.14280590007661      766278.663262
- Apolar cavitation energy:                  2.35826170218052        1479.831528
- Apolar dispersion-repulsion energy:       -1.69541329424013       -1063.887882
 -------------------------------------------------------------------------------
- Total energy in solvent:              -11747.27500100026373    -7371526.197626

Components of total energy in solvent:                hartree           kcal/mol
- Usual non-electrostatic DFT terms:    -12969.08065530828026    -8138220.804535
- Electrostatic energy:                   1221.14280590007661      766278.663262
- Apolar energy terms:                       0.66284840794039         415.943647
 -------------------------------------------------------------------------------
- Total energy in solvent:              -11747.27500100026373    -7371526.197626

Calculation of free energy of solvation:              hartree           kcal/mol
- Total energy in solvent:         (+)  -11747.27500100026373    -7371526.197626
- Total energy in vacuum:          (-)  -11743.14094071194995    -7368932.035685
 -------------------------------------------------------------------------------
- Total free energy of solvation:           -4.13406028831378       -2594.161941

Components of polar term in f.e. of solvation:        hartree           kcal/mol
- Electrostatic:                            -4.69179289064164       -2944.144425
- Change in nonelectrostatic DFT terms:     -0.10511580561251         -65.961162
 -------------------------------------------------------------------------------
- Polar term in f.e. of solvation:          -4.79690869625415       -3010.105588

Components of free energy of solvation:               hartree           kcal/mol
- Polar term in f.e. of solvation: (+)      -4.79690869625415       -3010.105588
- Apolar (cavitation, dis., rep.): (+)       0.66284840794039         415.943647
 -------------------------------------------------------------------------------
- Total free energy of solvation:           -4.13406028831376       -2594.161941
================================================================================


------------------------------ TIMING INFORMATION ------------------------------
AVERAGE TIME:   26570.874s on     40 node(s)                                    
TOTAL TIME:     26570.875s on     40 node(s)                                    
================= AVERAGE TIMINGS FROM ALL NODES (CUMULATIVE) ==================
|| TAG                                    #calls    cpu time   %total  Gflops ||
|| work_imbalance                       :     1        0.00s   0.000%  ------ ||
|| parallel_prepare_fd_halos_request    :  1827        0.01s   0.000%  ------ ||
|| sparse_set_to_garbage                :   164        0.05s   0.000%  ------ ||
|| parallel_prepare_fd_halos_satisfy    :  1827        0.06s   0.000%  ------ ||
|| ngwfs_initialise_from_radial         :     1        0.17s   0.001%  ------ ||
|| basis_extract_function_from_box      :  5073        0.18s   0.001%  ------ ||
|| parallel_prepare_fd_halos_alloc      :  1827        0.22s   0.001%  ------ ||
|| restart_ngwfs_tightbox_input         :     1        0.98s   0.004%  ------ ||
|| pseudopotentials_nonlocal_mat        :    28        1.03s   0.004%  ------ ||
|| parallel_prepare_fd_halos_comms_imbal:  1827        4.34s   0.016%  ------ ||
|| restart_kernel_read                  :     1        4.78s   0.018%  ------ ||
|| openbc_locps_radial                  :     1        5.54s   0.021%  ------ ||
|| density_init_guess_real              :     1        6.65s   0.025%  ------ ||
|| restart_kernel_write                 :    16       11.61s   0.044%  ------ ||
|| parallel_prepare_fd_halos_clear      :  1827       18.11s   0.068%  ------ ||
|| sparse_init                          :     2       23.09s   0.087%  ------ ||
|| parallel_prepare_fd_halos_comms_wait :  1827       23.46s   0.088%  ------ ||
|| projectors_func_ovlp_box             :    28       24.23s   0.091%  ------ ||
|| function_ops_brappd_ketppd           :    28       26.12s   0.098%  ------ ||
|| projectors_init_fftbox_recip         :   193       38.90s   0.146%  ------ ||
|| parallel_prepare_fd_halos            :  1827       46.20s   0.174%  ------ ||
|| palser_mano_kernel_optimise          :     1       46.53s   0.175%  ------ ||
|| fourier_apply_box_pair               :  7206       50.43s   0.190% 551.501 ||
|| ngwf_gradient_coeffs                 :    15       62.23s   0.234%  ------ ||
|| restart_ngwfs_tightbox_output        :    13       62.41s   0.235%  ------ ||
|| pseudo_make_structure_factor         :     2       64.34s   0.242%  ------ ||
|| basis_copy_function_to_box           : 82328       65.00s   0.245%  ------ ||
|| sparse_embed_hotelling_invert_embed  :    28       94.94s   0.357%  ------ ||
|| finite_difference_derivative         :  1827      112.59s   0.424%  ------ ||
|| integrals_kinetic                    :    28      152.96s   0.576%  ------ ||
|| openbc_locps_on_grid                 :     2      191.99s   0.723%  ------ ||
|| projectors_gradient_batch            :   165      213.01s   0.802%  ------ ||
|| fourier_apply_cell_backward          :  1219      221.37s   0.833%  76.063 ||
|| fourier_apply_cell_forward           :  1217      222.29s   0.837%  75.624 ||
|| basis_dot_function_with_box          : 12.58M     239.84s   0.903%  ------ ||
|| sparse_trace                         :  5220      263.37s   0.991%  ------ ||
|| kernel_purify                        :   464      341.68s   1.286%  ------ ||
|| hamiltonian_energy_components        :     4      447.13s   1.683%  ------ ||
|| xc_energy_potential                  :   304      524.86s   1.975%  ------ ||
|| basis_add_function_to_box            : 26.18M     527.87s   1.987%  ------ ||
|| lnv_gradient_norm                    :   150      559.92s   2.107%  ------ ||
|| kernel_fix                           :   150      691.45s   2.602%  ------ ||
|| ngwf_gradient_build_batch            :   165      742.23s   2.793%  ------ ||
|| cell_grid_deposit_box_real           : 51584      863.77s   3.251%  ------ ||
|| integrals_locpot_mat_els_batch       :  1749      904.65s   3.405%  ------ ||
|| cell_grid_extract_box_real           : 47992      963.63s   3.627%  ------ ||
|| ngwf_gradient_batch                  :   165     1045.70s   3.936%  ------ ||
|| ngwf_gradient_lnv                    :    15     1221.38s   4.597%  ------ ||
|| density_batch_row_sums               :  3333     1280.34s   4.819%  ------ ||
|| density_fftbox_deposit_to_cell       : 49692     1469.19s   5.529%  ------ ||
|| sparse_product                       :  6397     2181.57s   8.210%  ------ ||
|| multigrid_prepare_bound_cond         :   304     2377.30s   8.947%  ------ ||
|| fourier_apply_box                    : 171.8k    3222.50s  12.128% 997.725 ||
|| potential_apply_to_ngwf_batch        :  1749     3281.24s  12.349%  ------ ||
|| density_fftbox_interpolate_multiply  : 49692     3486.28s  13.121%  ------ ||
|| integrals_locpot_dbl_grid            :   159     4204.59s  15.824%  ------ ||
|| density_batch_interp_deposit         :  3333     5595.16s  21.057%  ------ ||
|| dl_mg_solver_calls                   :   304     6838.97s  25.739%  ------ ||
|| density_on_dbl_grid                  :   303     7363.47s  27.713%  ------ ||
|| multigrid_calculate_hartree          :   304     9370.25s  35.265%  ------ ||
|| hamiltonian_lhxc_calculate           :   299    17248.94s  64.917%  ------ ||
|| lnv_denskernel_optimise_cg           :    15    22814.76s  85.864%  ------ ||
|| ngwf_cg_optimise                     :     2    25728.06s  96.828%  ------ ||
|| total_time                           :     1    26570.87s 100.000%  ------ ||
================================================================================
Overhead of generating timer report: 
- 0 ms averaging over threads,
- 5 ms ensuring consistency across MPI ranks,
- 2 ms printing in order.

Job completed: 22-07-2020 03:00 (+0100)

