 +---------------------------------------------------------------+
 |                                                               |
 |        ####### #     # ####### ####### ####### ######         |
 |        #     # ##    # #          #    #       #     #        |
 |        #     # # #   # #          #    #       #     #        |
 |        #     # #  #  # #####      #    #####   ######         |
 |        #     # #   # # #          #    #       #              |
 |        #     # #    ## #          #    #       #              |
 |        ####### #     # #######    #    ####### #              |
 |                                                               |
 |        Linear-Scaling Ab Initio Total Energy Program          |
 |                                                               |
 |          Release for academic collaborators of ODG            |
 |                                             Version 5.3.2.6.  |
 |                                                               |
 +---------------------------------------------------------------+
 |                                                               |
 |  Authors:                                                     |
 |  Jacek Dziedzic, Peter D. Haynes, Nicholas D. M. Hine,        |
 |  Arash. A. Mostofi, Mike C. Payne and Chris-Kriton Skylaris   |
 |                                                               |
 |  Contributors:                                                |
 |  J. Aarons, L. Andrinopoulos, P. W. Avraam, R. A. Bell,       |
 |  A. Bhandari, G. A. Bramley, R. J. Charlton, S. J. Clark,     |
 |  R. J. Clements, G. C. Constantinescu, F. Corsetti,           |
 |  N. Corsini, O. Dieguez, S. M. M. Dubois, K. K. B. Duff,      |
 |  J. M. Escartin, A. Greco, H. Helal, Q. O. Hill, L. P. Lee,   |
 |  J.-H. Li, E. B. Linscott, G. Moynihan, D. D. O`Regan,        |
 |  O. K. Okan, M. J. S. Phipps, C. J. Pickard,                  |
 |  J. C. A. Prentice, M. I. J. Probert, L. E. Ratcliff,         |
 |  M. Robinson, A. Ruiz Serrano, J. S. Spencer, E. W. Tait,     |
 |  G. Teobaldi, D. Turban, V. Vitale, K. A. Wilkinson,          |
 |  C. Weber, J. C. Womack, N. Yeung and T. J. Zuehlsdorff       |
 |                                                               |
 |                                   Copyright (c) 2004-2019     |
 |                                                               |
 |  Please cite:                                                 |
 |  "Introducing ONETEP: Linear-scaling density functional       |
 |   simulations on parallel computers".                         |
 |   C.-K. Skylaris, P. D. Haynes, A. A. Mostofi, M. C. Payne.   |
 |   J. Chem. Phys. 122 084119 (2005).                           |
 |                                                               |
 |          in all publications arising from your use of ONETEP. |
 |                                                               |
 +---------------------------------------------------------------+
 |                                                               |
 |   ONETEP is based on developments described in the following  |
 |   publications:                                               |
 |                                                               |
 |  "Nonorthogonal generalized Wannier function pseudopotential  |
 |   plane-wave method".                                         |
 |   C.-K. Skylaris, A. A. Mostofi, P. D. Haynes, O. Dieguez,    |
 |   M. C. Payne.                                                |
 |   Phys. Rev. B 66 035119 (2002).                              |
 |                                                               |
 |  "Preconditioned iterative minimization for linear-scaling    |
 |   electronic structure calculations".                         |
 |   A. A. Mostofi, P. D. Haynes, C.-K. Skylaris, M. C. Payne.   |
 |   J. Chem. Phys. 119(17), pp.8842-8848 (2003).                |
 |                                                               |
 |  "Total-energy calculations on a real space grid with         |
 |   localized functions and a plane-wave basis".                |
 |   A. A. Mostofi, C.-K. Skylaris, P. D. Haynes, M. C. Payne.   |
 |   Comput. Phys. Commun. 147, pp.788-802 (2002).               |
 |                                                               |
 |  "Accurate kinetic energy evaluation in electronic structure  |
 |   calculations with localized functions on real space grids"  |
 |   C.-K. Skylaris, A. A. Mostofi, P. D. Haynes, C. J. Pickard, |
 |   M. C. Payne.                                                |
 |   Comput. Phys. Commun. 140, pp.315-322 (2001).               |
 |                                                               |
 |  "Accurate ionic forces and geometry optimization in linear-  |
 |   scaling density-functional theory with local orbitals"      |
 |   N. D. M. Hine, M. Robinson, P. D. Haynes, C.-K. Skylaris,   |
 |   M. C. Payne, and A. A. Mostofi.                             |
 |   Phys. Rev. B 83 195102 (2011).                              |
 |                                                               |
 +---------------------------------------------------------------+

Job started: 13-07-2020 11:47 (+0100)
 
Reading parameters from file "host_18341.dat" ...... done

If your calculation crashes here, before "Checking processes and threads..."
is displayed, then your stack size is insufficient.
If so, use "ulimit -s unlimited" at runtime.
You can disable this check with "check_stack_size F".

Checking processes and threads...
   Determining the default number of threads...
      No default threads set at compilation time: defaulting to 1.
      OpenMP library call suggests 4 threads.
      Hybrid MPI-OpenMP compilation detected.
      Number of MPI processes > 1.
      OMP_NUM_THREADS environment variable present and
      its value matches the one obtained from the OpenMP library call.
      Using this value as default.
      Default threads: 4
      Default applies to threads_max and threads_num_fftboxes.
      Settings in the input file override this default.
   ... done

   Running with 60 MPI processes.
   There are 6 MPI processes running on the same node as the root process.
   Each MPI process is using: 
               1 threads for simulation cell FFTs.
               1 threads for parallel FFT box operations.
               4 threads for loops over batched FFT box operations.
               4 threads in other parallel regions.
... done

Basic input checks...... done

Reading geometry and species blocks from file "host_18341.dat" ...
  <species_atomic_set> block not found: NGWF initialisation set to SOLVE
IS: Dielectric excluded regions:
    - NONE.
    
  Number of PPD points along a3 set to 1.  This is 
  the default value, it may have been provided also in the input file.
... done
 Writing xyz coordinates to file "host_18341.xyz" ... done


--------------------------------------------------------------------------------
---------------------------------- INPUT FILE ----------------------------------
--------------------------------------------------------------------------------

cutoff_energy       : 800 eV                                                    
xc_functional PBE                                                               
task SINGLEPOINT                                                                
write_xyz true                                                                  
output_detail VERBOSE                                                           
ngwf_threshold_orig : 0.000002                                                  
kernel_cutoff       : 1000                                                      
k_zero              : 3.5                                                       
elec_cg_max 0                                                                   
occ_mix 1.0                                                                     
dispersion 1                                                                    
maxit_ngwf_cg 40                                                                
minit_lnv 10                                                                    
maxit_lnv 10                                                                    
write_denskern T                                                                
write_tightbox_ngwfs T                                                          
charge 9                                                                        
is_implicit_solvent T                                                           
is_auto_solvation T                                                             
is_include_apolar T                                                             
is_smeared_ion_rep T                                                            
is_solvent_surf_tension 4.7624E-5 Ha/bohr**2                                    
is_apolar_scaling_factor 0.281075                                               
is_solvation_beta 1.3                                                           
is_density_threshold 0.00035                                                    
is_bulk_permittivity 78.54                                                      
is_dielectric_model fix_initial                                                 
is_smeared_ion_width 0.8                                                        
mg_defco_fd_order 8                                                             
is_bc_coarseness 10                                                             
is_bc_surface_coarseness 1                                                      
fine_grid_scale 2.0                                                             
%block species                                                                  
N   N   7 4 8.0                                                                 
H   H   1 1 8.0                                                                 
C   C   6 4 8.0                                                                 
S   S  16 9 8.0                                                                 
O   O   8 4 8.0                                                                 
%endblock species                                                               
%block species_pot                                                              
N   N_00.recpot                                                                 
H   H_04.recpot                                                                 
C   C_01.recpot                                                                 
S   S_00.recpot                                                                 
O   O_02.recpot                                                                 
%endblock species_pot                                                           
%block lattice_cart                                                             
137.793   0.000   0.000                                                         
0.000 143.498   0.000                                                           
0.000   0.000   162.326                                                         
%endblock lattice_cart                                                          
%block positions_abs                                                            
     Hash =  -000006236210107382345890
%endblock positions_abs                                                         

--------------------------------------------------------------------------------
-------------------------------- END INPUT FILE --------------------------------
--------------------------------------------------------------------------------


 
 ESDF WARNING(1): "kernelcutoff" (esdf_physical) has no units. Assume "bohr".
 ESDF WARNING(2): "kzero" (esdf_physical) has no units. Assume "1/bohr".
 ESDF WARNING(3
 ): "issmearedionwidth" (esdf_physical) has no units. Assume "bohr".
<<<<<<<<<<<<<<<<<<<<<<<<<<<<<<<<< Full system >>>>>>>>>>>>>>>>>>>>>>>>>>>>>>>>>>
<<<<<<<<<<<<<<<<<<<<<<<<< Pseudopotential information >>>>>>>>>>>>>>>>>>>>>>>>>>
File: N_00.recpot [ 2001 points up to Gmax=  52.9 (1/bohr)]
  Atomic number:  7;  ionic charge:  5.000000
    Shell 1: l = 0; rc = 1.48 bohr
File: H_04.recpot [ 2001 points up to Gmax=  52.9 (1/bohr)]
  Atomic number:  1;  ionic charge:  1.000000
    Local potential
File: C_01.recpot [ 2001 points up to Gmax=  52.9 (1/bohr)]
  Atomic number:  6;  ionic charge:  4.000000
    Shell 1: l = 0; rc = 1.48 bohr
File: S_00.recpot [ 2001 points up to Gmax=  52.9 (1/bohr)]
  Atomic number: 16;  ionic charge:  6.000000
    Shell 1: l = 0; rc = 1.90 bohr
    Shell 2: l = 2; rc = 1.84 bohr
File: O_02.recpot [ 2001 points up to Gmax=  52.9 (1/bohr)]
  Atomic number:  8;  ionic charge:  6.000000
    Shell 1: l = 0; rc = 1.31 bohr
<<<<<<<<<<<<<<<<<<<<<<<<<<<<<<<<<<<<<<<<>>>>>>>>>>>>>>>>>>>>>>>>>>>>>>>>>>>>>>>>

-------------------------- Atom counting information ---------------------------
Symbol    Natoms    Nngwfs    Nprojs
  N        236       944       236
  H       1311      1311         0
  C        810      3240       810
  S          6        54        36
  O        239       956       239
.......   ......    ......    ......
Totals:   2602      6505      1321
--------------------------------------------------------------------------------

=============================== PSINC grid sizes ===============================
                      Simulation cell:  273 x 286 x 320
                              FFT-box:   99 x  99 x  99
                                  PPD:    7 x  11 x   1
Grid space d1=  0.504736263736a0 (KE cutoff=  29.81776Eh = 811.38248eV)
Grid space d2=  0.501741258741a0 (KE cutoff=  30.17480Eh = 821.09803eV)
Grid space d3=  0.507268750000a0 (KE cutoff=  29.52078Eh = 803.30122eV)
================================================================================

********************* Fourier parallelisation information **********************
       Coarse grid (whole simulation cell) dimensions:    273   286   320
          Real-space ('12') slabs/node (min max mean):      5     6     5
         Recip-space ('23') slabs/node (min max mean):      2     3     2
********************************************************************************

********************* Fourier parallelisation information **********************
       Double grid (whole simulation cell) dimensions:    546   572   640
          Real-space ('12') slabs/node (min max mean):     10    11    10
         Recip-space ('23') slabs/node (min max mean):      4     5     4
********************************************************************************
ONETEP fine grid is 546 x 572 x 640 gridpoints, 137.7930 x 143.4980 x 162.3260 bohr.
FD multigrid is     545 x 569 x 633 gridpoints, 137.5406 x 142.7454 x 160.5506 bohr.


Calculating local pseudopotential in open BC on a radial grid ...
Discrepancy between calculated realspace psloc and -Z/x on [5a0,256.765a0]:
max |rel. diff| # avg |rel. diff| #  avg rel. diff #  f # pseudopotential file
 0.000264355666    0.000005356805   0.000000075547   55  'N_00.recpot'
 0.000427657517    0.000018087302  -0.000000066616   55  'H_04.recpot'
 0.000358839426    0.000016594043   0.000000139912   55  'C_01.recpot'
 0.000443229003    0.000019135969   0.000000483695   55  'S_00.recpot'
 0.000720897146    0.000029350350   0.000000143497   55  'O_02.recpot'
... done

Atom SCF Calculation for N  : Z (AE atom) =   7 : Z (PS atom) =   5
Config String:
Orbitals (num,occ):  2     2.00 3.00
Orbitals   (num,l):  2        0    1
Real-space Grid (nr,dr,rmax): 1203    0.0066555740    8.0000000000
Spherical Bessel Basis (nsws,lmax,cutoff):   47    1  176.3951722778
Confining potential (l,width,scale):  0    3.0000000000  100.0000000000
Confining potential (l,width,scale):  1    3.0000000000  100.0000000000
  1         -4.7312375307   -3.4155304497    7.0523828109   -1.9351020946
  2         -9.7309464766   -2.0532547791    8.2966052865   -2.2494486027
  3         -9.6627394379   -2.1124926340    8.2327997121   -2.2369778124
  4         -9.6814993499   -2.1215521045    8.2229805960   -2.2365178421
  5         -9.6843326483   -2.1250939529    8.2191374534   -2.2362718126
  6         -9.6859628709   -2.1267894855    8.2172963573   -2.2362066344
  7         -9.6867347035   -2.1276425665    8.2163697352   -2.2361903369
  8         -9.6870802100   -2.1280764625    8.2158983890   -2.2361891460
  9         -9.6872290423   -2.1282977424    8.2156580222   -2.2361920435
 10         -9.6872901988   -2.1284107021    8.2155353368   -2.2361953393
 11         -9.6873135296   -2.1284684031    8.2154726809   -2.2361979819
 12         -9.6873212476   -2.1284978948    8.2154406648   -2.2361998431
 13         -9.6873229586   -2.1285129774    8.2154242957   -2.2362010676
 14         -9.6873226456   -2.1285206957    8.2154159216   -2.2362018403
 15         -9.6873218534   -2.1285246479    8.2154116349   -2.2362023142
 16         -9.6873212599   -2.1285262679    8.2154098784   -2.2362025420
 17         -9.6873207834   -2.1285272564    8.2154088068   -2.2362026955
 18         -9.6873204210   -2.1285278596    8.2154081529   -2.2362027982
 19         -9.6873201550   -2.1285282280    8.2154077538   -2.2362028667
 20         -9.6873199645   -2.1285284529    8.2154075102   -2.2362029121
 21         -9.6873198305   -2.1285285903    8.2154073614   -2.2362029421
 22         -9.6873197377   -2.1285286742    8.2154072705   -2.2362029618
Atom SCF converged after  22 iterations to a total energy of     -9.68731974

Atom SCF Calculation for H  : Z (AE atom) =   1 : Z (PS atom) =   1
Config String:
Orbitals (num,occ):  1     1.00
Orbitals   (num,l):  1        0
Real-space Grid (nr,dr,rmax): 1203    0.0066555740    8.0000000000
Spherical Bessel Basis (nsws,lmax,cutoff):   47    0  176.3951722778
Confining potential (l,width,scale):  0    3.0000000000  100.0000000000
  1         -0.3194257691   -0.2393854593    0.2820953124   -0.2424203209
  2         -0.3951823392   -0.2377116493    0.2886404059   -0.2475147891
  3         -0.4317044583   -0.2352244387    0.2921333887   -0.2514046172
  4         -0.4470703708   -0.2341892222    0.2934391879   -0.2531009782
  5         -0.4532132900   -0.2338556667    0.2938388426   -0.2537313520
  6         -0.4556579251   -0.2337612552    0.2939448584   -0.2539550462
  7         -0.4566418315   -0.2337377355    0.2939680120   -0.2540342273
  8         -0.4570437922   -0.2337331116    0.2939708287   -0.2540627372
  9         -0.4572102946   -0.2337328328    0.2939698291   -0.2540732650
 10         -0.4572800424   -0.2337332404    0.2939687193   -0.2540772588
 11         -0.4573095100   -0.2337335791    0.2939680317   -0.2540788122
 12         -0.4573220379   -0.2337337762    0.2939676699   -0.2540794294
 13         -0.4573273880   -0.2337338775    0.2939674931   -0.2540796787
 14         -0.4573296803   -0.2337339266    0.2939674099   -0.2540797808
 15         -0.4573306647   -0.2337339495    0.2939673718   -0.2540798230
 16         -0.4573310882   -0.2337339601    0.2939673545   -0.2540798406
 17         -0.4573312706   -0.2337339649    0.2939673467   -0.2540798479
 18         -0.4573313493   -0.2337339670    0.2939673433   -0.2540798510
Atom SCF converged after  18 iterations to a total energy of     -0.45733135

Atom SCF Calculation for C  : Z (AE atom) =   6 : Z (PS atom) =   4
Config String:
Orbitals (num,occ):  2     2.00 2.00
Orbitals   (num,l):  2        0    1
Real-space Grid (nr,dr,rmax): 1203    0.0066555740    8.0000000000
Spherical Bessel Basis (nsws,lmax,cutoff):   47    1  176.3951722778
Confining potential (l,width,scale):  0    3.0000000000  100.0000000000
Confining potential (l,width,scale):  1    3.0000000000  100.0000000000
  1         -5.2976922011   -1.3069684169    4.5135249990   -1.4493313817
  2         -5.3721716256   -1.3429755895    4.4750154450   -1.4361613026
  3         -5.3809959565   -1.3617365618    4.4541655428   -1.4305930207
  4         -5.3918938866   -1.3667928461    4.4484735100   -1.4294652294
  5         -5.3956096428   -1.3688539142    4.4461376126   -1.4290734646
  6         -5.3968271862   -1.3696852393    4.4451910874   -1.4289366866
  7         -5.3972028401   -1.3700178062    4.4448112275   -1.4288900460
  8         -5.3973067903   -1.3701500158    4.4446598370   -1.4288749220
  9         -5.3973286940   -1.3702023868    4.4445997329   -1.4288704293
 10         -5.3973289850   -1.3702230869    4.4445759233   -1.4288693188
 11         -5.3973254264   -1.3702312560    4.4445665049   -1.4288691775
 12         -5.3973224003   -1.3702344755    4.4445627836   -1.4288692549
 13         -5.3973208708   -1.3702354890    4.4445616088   -1.4288693270
 14         -5.3973198783   -1.3702360102    4.4445610034   -1.4288693814
 15         -5.3973192535   -1.3702362780    4.4445606917   -1.4288694190
 16         -5.3973188684   -1.3702364155    4.4445605313   -1.4288694437
 17         -5.3973186349   -1.3702364860    4.4445604489   -1.4288694595
 18         -5.3973184951   -1.3702365221    4.4445604065   -1.4288694693
 19         -5.3973184122   -1.3702365405    4.4445603848   -1.4288694753
Atom SCF converged after  19 iterations to a total energy of     -5.39731841

Atom SCF Calculation for S  : Z (AE atom) =  16 : Z (PS atom) =   6
Config String:
Orbitals (num,occ):  3     2.00 4.00 0.00
Orbitals   (num,l):  3        0    1    2
Real-space Grid (nr,dr,rmax): 1203    0.0066555740    8.0000000000
Spherical Bessel Basis (nsws,lmax,cutoff):   47    2  176.3951722778
Confining potential (l,width,scale):  0    3.0000000000  100.0000000000
Confining potential (l,width,scale):  1    3.0000000000  100.0000000000
Confining potential (l,width,scale):  2    3.0000000000  100.0000000000
  1        -12.4735062396   -1.0328741412   10.1554312477   -2.4512393157
  2         -9.9458301913   -2.4607392455    8.3041325857   -2.0306994528
  3        -10.1450417646   -2.2931184565    8.4831893826   -2.0812538287
  4        -10.1528335592   -2.2733105793    8.5050388867   -2.0896035179
  5        -10.1571940363   -2.2633716629    8.5160794258   -2.0939370707
  6        -10.1594380571   -2.2584938667    8.5215163935   -2.0961289008
  7        -10.1605856507   -2.2561081821    8.5241804044   -2.0972291378
  8        -10.1611799191   -2.2549395235    8.5254868240   -2.0977806248
  9        -10.1614918752   -2.2543658586    8.5261285885   -2.0980571586
 10        -10.1616572884   -2.2540839121    8.5264441898   -2.0981959233
 11        -10.1617455602   -2.2539453058    8.5265994231   -2.0982656006
 12        -10.1617928447   -2.2538772062    8.5266757320   -2.0983006047
 13        -10.1618182292   -2.2538437891    8.5267131983   -2.0983181961
 14        -10.1618318741   -2.2538274201    8.5267315620   -2.0983270391
 15        -10.1618392144   -2.2538194197    8.5267405433   -2.0983314852
 16        -10.1618431651   -2.2538155200    8.5267449245   -2.0983337210
 17        -10.1618452923   -2.2538136252    8.5267470551   -2.0983348455
 18        -10.1618464380   -2.2538127080    8.5267480875   -2.0983354110
 19        -10.1618470552   -2.2538122659    8.5267485856   -2.0983356955
 20        -10.1618473878   -2.2538120540    8.5267488248   -2.0983358386
 21        -10.1618475670   -2.2538119530    8.5267489389   -2.0983359106
 22        -10.1618476637   -2.2538119053    8.5267489929   -2.0983359468
Atom SCF converged after  22 iterations to a total energy of    -10.16184766

Atom SCF Calculation for O  : Z (AE atom) =   8 : Z (PS atom) =   6
Config String:
Orbitals (num,occ):  2     2.00 4.00
Orbitals   (num,l):  2        0    1
Real-space Grid (nr,dr,rmax): 1203    0.0066555740    8.0000000000
Spherical Bessel Basis (nsws,lmax,cutoff):   47    1  176.3951722778
Confining potential (l,width,scale):  0    3.0000000000  100.0000000000
Confining potential (l,width,scale):  1    3.0000000000  100.0000000000
  1         -1.8735052164   -7.5539365035   10.1554312477   -2.4512393157
  2        -16.0318313751   -3.1285771268   13.6395848164   -3.2358799643
  3        -15.9524020423   -3.0762819706   13.6967272503   -3.2536856837
  4        -15.8521515939   -3.0781493909   13.6951909330   -3.2561700440
  5        -15.8357139793   -3.0748501933   13.6988803334   -3.2580493133
  6        -15.8246052853   -3.0740779781   13.6997881576   -3.2588327446
  7        -15.8189019501   -3.0737449687   13.7001869911   -3.2592378801
  8        -15.8159785510   -3.0736026016   13.7003615168   -3.2594475790
  9        -15.8144776168   -3.0735437994   13.7004360379   -3.2595560735
 10        -15.8137058024   -3.0735207882   13.7004667348   -3.2596122456
 11        -15.8133083127   -3.0735125946   13.7004786868   -3.2596413656
 12        -15.8131032938   -3.0735102195   13.7004828997   -3.2596564858
 13        -15.8129973902   -3.0735099286   13.7004840891   -3.2596643505
 14        -15.8129426040   -3.0735102506   13.7004842061   -3.2596684489
 15        -15.8129142203   -3.0735106556   13.7004840157   -3.2596705887
 16        -15.8128994940   -3.0735109855   13.7004837906   -3.2596717080
 17        -15.8128918425   -3.0735112169   13.7004836103   -3.2596722946
 18        -15.8128878614   -3.0735113674   13.7004834848   -3.2596726026
 19        -15.8128857871   -3.0735114608   13.7004834035   -3.2596727646
 20        -15.8128847048   -3.0735115170   13.7004833533   -3.2596728500
 21        -15.8128841394   -3.0735115501   13.7004833231   -3.2596728951
 22        -15.8128838436   -3.0735115693   13.7004833054   -3.2596729190
 23        -15.8128836887   -3.0735115802   13.7004832951   -3.2596729316
 24        -15.8128836074   -3.0735115864   13.7004832893   -3.2596729383
Atom SCF converged after  24 iterations to a total energy of    -15.81288361

========================== Calculation in vacuum ==============================
= Adjusting the following parameters: 
= is_implicit_solvent: F
= is_include_apolar: F
= write_denskern: T
= write_tightbox_ngwfs: T
= restart read filename prefix: ""
= restart write filename prefix: "vacuum_"
===============================================================================

Determining parallel strategy ...
... using space-filling curve
... NGWF load balancing: max    109;  min    108;  average    108
... Projector load balancing: max     25;  min     21;  average     22
... done
Calculating direct Ion-Ion energy ...
Ion-Ion Energy        :    832828.49305716063827
======================= Empirical dispersion information =======================
Model : Elstner
Dispersion Correction Energy: -0.32862959E+01 Hartree
================================================================================
Basis initialisation ...... NGWF spheres initialised
... Projector spheres initialised
... NGWF tight boxes initialised
... Tight-boxes gathered
... NGWF basis size (local,global):     927012  55710171
... Nonlocal pseudopotential projector initialisation
... done

========================== Sparse matrix information ===========================
                        Overlap matrix filling:   6.80%
                        Density kernel filling: 100.00%
              NGWF-Proj overlap matrix filling:   1.79%
                    Hamiltonian matrix filling:   7.68%
                  NGWF diagonal matrix filling:   0.05%
                             KS matrix filling: 100.00% 
                           KSKS matrix filling: 100.00% 
================================================================================

Sparse matrix initialisation ... done

Generating smeared ion density ... done
Smeared ion self correction:     -14457.169564
Smeared ion non-self correction: -832780.359007
NGWF initialisation ...... done
============ Calculation of NGWF S^-1 using Hotelling algorithm ================ 
         Iteration  |  Frobenius norm and Maximum abs value    (of I-S*S_n^-1)   
               1       0.78467520E+02     0.98251005E+00
               2       0.76607748E+02     0.96545477E+00
               3       0.73599414E+02     0.93258301E+00
               4       0.69327926E+02     0.87138801E+00
               5       0.64011657E+02     0.76743181E+00
               6       0.58042399E+02     0.70362484E+00
               7       0.52046625E+02     0.66767050E+00
               8       0.46503808E+02     0.64436679E+00
               9       0.40431696E+02     0.60328584E+00
              10       0.32156858E+02     0.53120565E+00
              11       0.21587992E+02     0.41476248E+00
              12       0.11010538E+02     0.27064420E+00
              13       0.36216201E+01     0.12418207E+00
              14       0.57688975E+00     0.31626675E-01
              15       0.29140805E-01     0.25372340E-02
              16       0.18071685E-03     0.19808406E-04
              17       0.12147326E-07     0.14869441E-08
              18       0.91863129E-13     0.39968029E-14
================================================================================
Calculating local pseudopotential in open BC on the fine real space grid ...
... done

MG BCs: +ve charge blocks (gridpoints):     20057 (   15832286).
MG BCs: -ve charge blocks (gridpoints):      8012 (    1077545).
MG BCs:     Elided blocks (gridpoints):    180583 (  179386634).
MG BCs: Computational effort saved:  99.9857%.
MG BCs: Charge after coarse-graining:           -9.0002145.
MG DL_MG: Calling solver with defect correction order = 8
MG DL_MG: Solver finished
MG Hartree energy from (\int phi*rho dr):              1462.578016
MG Hartree energy from (\int eps (grad phi)^2 dr):     1461.963832
MG Discrepancy due to finite box and discretization:     -0.614184 (  -0.04199%)
MG Correction to account for finite box:                  0.461797
MG Remaining discrepancy, due to discretization:         -0.152388 (  -0.01042%)
Up spin density kernel initialisation ... 
======= Optimisation of K by Palser-Manolopoulos canonical purification ======== 
         Iteration  |  Band structure energy |    c_n   
               1       -2589.12836932456412    0.5269027
               2       -2764.82929992640584    0.5171310
               3       -2944.88217382207495    0.5155113
               4       -3095.19837720724945    0.5289281
               5       -3187.64455707620937    0.5643425
               6       -3226.35929090421996    0.6085687
               7       -3239.52724179086454    0.6191733
               8       -3245.24137131812995    0.6148322
               9       -3248.02222267436309    0.6245069
              10       -3249.16941480823971    0.6472256
              11       -3249.60106791409726    0.6731865
              12       -3249.77156377027359    0.6875352
              13       -3249.84943284771089    0.6666898
              14       -3249.89475377530198    0.6207426
              15       -3249.92310222387914    0.5776702
              16       -3249.93725031074973    0.5314925
              17       -3249.94275775191909    0.4905805
              18       -3249.94424573872857    0.4899642
              19       -3249.94472431605300    0.4991021
              20       -3249.94494531893451    0.4999950
              21       -3249.94498288552677    0.5000000
              22       -3249.94498376654747    0.5000042
              23       -3249.94498376701358    0.5000042
Termination criterion satisfied: band energy change below threshold.
Final occupancy bounds: [    0.00000000000000:    1.00000000000000]
Closest occupancy to 0.5:     1.00000000000000
================================================================================
... done

Writing density kernel to file "host_18341.vacuum_dkn" ... done

>>> Optimising kernel for current NGWFs:
   Initial electron number for spin 1:    7192.00000000
     Final electron number for spin 1:    7192.00000000

=================== Penalty functional idempotency correction ==================
 RMS occupancy error at iteration   1:  0.000000 (step -0.5000 Ne1=   7192.0000)
            Final RMS occupancy error   :  0.000000 (Ne1=   7192.0000)
               Final occupancy bounds   : [ -0.0000,  1.0000]
================================================================================

................................................................................
<<<<<<<<<<<<<< LNV (Original version) density kernel optimisation >>>>>>>>>>>>>>
~~~~~~~~~~~~~~~~~~~~~~~~~~~~~~~~~~~~~~~~~~~~~~~~~~~~~~~~~~~~~~~~~~~~~~~~~~~~~~~~
   iter  |      energy (Eh)       | rms gradient |  commutator  |   dE (Eh)
MG BCs: +ve charge blocks (gridpoints):     30247 (   16937071).
MG BCs: -ve charge blocks (gridpoints):      8338 (    1109492).
MG BCs:     Elided blocks (gridpoints):    170385 (  178249902).
MG BCs: Computational effort saved:  99.9803%.
MG BCs: Charge after coarse-graining:           -9.0009143.
MG DL_MG: Calling solver with defect correction order = 8
MG DL_MG: Solver finished
MG Hartree energy from (\int phi*rho dr):              1418.194966
MG Hartree energy from (\int eps (grad phi)^2 dr):     1417.523423
MG Discrepancy due to finite box and discretization:     -0.671543 (  -0.04735%)
MG Correction to account for finite box:                  0.476356
MG Remaining discrepancy, due to discretization:         -0.195187 (  -0.01376%)
      ideal mu1:      -0.705833840553
             Q0:  -11506.560951836873
             G0:    -145.021263545237
   RMS gradient:       0.001851264791
MG BCs: +ve charge blocks (gridpoints):     30248 (   17019573).
MG BCs: -ve charge blocks (gridpoints):      8236 (    1089677).
MG BCs:     Elided blocks (gridpoints):    170380 (  178187215).
MG BCs: Computational effort saved:  99.9804%.
MG BCs: Charge after coarse-graining:           -9.0009317.
MG DL_MG: Calling solver with defect correction order = 8
MG DL_MG: Solver finished
MG Hartree energy from (\int phi*rho dr):              1443.592739
MG Hartree energy from (\int eps (grad phi)^2 dr):     1442.939349
MG Discrepancy due to finite box and discretization:     -0.653390 (  -0.04526%)
MG Correction to account for finite box:                  0.474123
MG Remaining discrepancy, due to discretization:         -0.179267 (  -0.01242%)
     Trial step:       0.500000000000
             Q1:  -11518.041176752653
 Quadratic coef:      61.030406856838
 Linear coef   :     -72.510631772618
           Qmin:  -11528.098542649588
Quadratic minimum step length (  0.297026660590) accepted
    Initial Ne1:    7192.00000000
      Final Ne1:    7192.00000000

=================== Penalty functional idempotency correction ==================
 RMS occupancy error at iteration   1:  0.003398 (step -0.4885 Ne1=   7192.0000)
 RMS occupancy error at iteration   2:  0.000027 (step -0.5001 Ne1=   7192.0000)
            Final RMS occupancy error   :  0.000000 (Ne1=   7192.0000)
               Final occupancy bounds   : [  0.0000,  1.0000]
================================================================================

    1        -1.150656095184E+04     1.8513E-03     1.6744E-03
MG BCs: +ve charge blocks (gridpoints):     30246 (   16988426).
MG BCs: -ve charge blocks (gridpoints):      8288 (    1097918).
MG BCs:     Elided blocks (gridpoints):    170384 (  178210121).
MG BCs: Computational effort saved:  99.9804%.
MG BCs: Charge after coarse-graining:           -9.0009240.
MG DL_MG: Calling solver with defect correction order = 8
MG DL_MG: Solver finished
MG Hartree energy from (\int phi*rho dr):              1425.338825
MG Hartree energy from (\int eps (grad phi)^2 dr):     1424.679000
MG Discrepancy due to finite box and discretization:     -0.659825 (  -0.04629%)
MG Correction to account for finite box:                  0.474934
MG Remaining discrepancy, due to discretization:         -0.184891 (  -0.01297%)
      ideal mu1:      -0.751767577091
             Q0:  -11528.497579882503
             G0:     -12.134776220723
   RMS gradient:       0.000531926560
MG BCs: +ve charge blocks (gridpoints):     30245 (   17005083).
MG BCs: -ve charge blocks (gridpoints):      8254 (    1092830).
MG BCs:     Elided blocks (gridpoints):    170385 (  178198552).
MG BCs: Computational effort saved:  99.9804%.
MG BCs: Charge after coarse-graining:           -9.0009275.
MG DL_MG: Calling solver with defect correction order = 8
MG DL_MG: Solver finished
MG Hartree energy from (\int phi*rho dr):              1430.546042
MG Hartree energy from (\int eps (grad phi)^2 dr):     1429.890647
MG Discrepancy due to finite box and discretization:     -0.655395 (  -0.04581%)
MG Correction to account for finite box:                  0.473663
MG Remaining discrepancy, due to discretization:         -0.181732 (  -0.01270%)
     Trial step:       0.385374273006
             Q1:  -11531.330782812205
 Quadratic coef:       1.843227634454
 Linear coef   :      -4.676430564156
           Qmin:  -11531.463708755111
Quadratic minimum step length (  0.488864206254) accepted
    Initial Ne1:    7191.99988563
      Final Ne1:    7192.00000000

=================== Penalty functional idempotency correction ==================
 RMS occupancy error at iteration   1:  0.001789 (step -0.4931 Ne1=   7192.0000)
 RMS occupancy error at iteration   2:  0.000011 (step -0.5002 Ne1=   7192.0000)
            Final RMS occupancy error   :  0.000000 (Ne1=   7192.0000)
               Final occupancy bounds   : [  0.0000,  1.0000]
================================================================================

    2        -1.152849757988E+04     5.3193E-04     4.8112E-04    -2.1937E+01
MG BCs: +ve charge blocks (gridpoints):     30244 (   17009485).
MG BCs: -ve charge blocks (gridpoints):      8248 (    1091443).
MG BCs:     Elided blocks (gridpoints):    170386 (  178195537).
MG BCs: Computational effort saved:  99.9804%.
MG BCs: Charge after coarse-graining:           -9.0009286.
MG DL_MG: Calling solver with defect correction order = 8
MG DL_MG: Solver finished
MG Hartree energy from (\int phi*rho dr):              1431.993128
MG Hartree energy from (\int eps (grad phi)^2 dr):     1431.338845
MG Discrepancy due to finite box and discretization:     -0.654283 (  -0.04569%)
MG Correction to account for finite box:                  0.473338
MG Remaining discrepancy, due to discretization:         -0.180944 (  -0.01264%)
      ideal mu1:      -0.776659477723
             Q0:  -11531.500461868709
             G0:      -1.940213751110
   RMS gradient:       0.000212764141
MG BCs: +ve charge blocks (gridpoints):     30247 (   17008999).
MG BCs: -ve charge blocks (gridpoints):      8251 (    1092371).
MG BCs:     Elided blocks (gridpoints):    170383 (  178195095).
MG BCs: Computational effort saved:  99.9804%.
MG BCs: Charge after coarse-graining:           -9.0009283.
MG DL_MG: Calling solver with defect correction order = 8
MG DL_MG: Solver finished
MG Hartree energy from (\int phi*rho dr):              1429.728914
MG Hartree energy from (\int eps (grad phi)^2 dr):     1429.075245
MG Discrepancy due to finite box and discretization:     -0.653670 (  -0.04572%)
MG Correction to account for finite box:                  0.472940
MG Remaining discrepancy, due to discretization:         -0.180729 (  -0.01264%)
     Trial step:       0.434045721191
             Q1:  -11531.995178218232
 Quadratic coef:       0.347425127342
 Linear coef   :      -0.842141476865
           Qmin:  -11532.010789282620
Quadratic minimum step length (  0.526052774978) accepted
    Initial Ne1:    7191.99993123
      Final Ne1:    7192.00000000

=================== Penalty functional idempotency correction ==================
 RMS occupancy error at iteration   1:  0.000637 (step -0.4971 Ne1=   7192.0000)
 RMS occupancy error at iteration   2:  0.000003 (step -0.5000 Ne1=   7192.0000)
            Final RMS occupancy error   :  0.000000 (Ne1=   7192.0000)
               Final occupancy bounds   : [  0.0000,  1.0000]
================================================================================

    3        -1.153150046187E+04     2.1276E-04     1.9244E-04    -3.0029E+00
MG BCs: +ve charge blocks (gridpoints):     30246 (   17008931).
MG BCs: -ve charge blocks (gridpoints):      8254 (    1092627).
MG BCs:     Elided blocks (gridpoints):    170384 (  178194907).
MG BCs: Computational effort saved:  99.9804%.
MG BCs: Charge after coarse-graining:           -9.0009281.
MG DL_MG: Calling solver with defect correction order = 8
MG DL_MG: Solver finished
MG Hartree energy from (\int phi*rho dr):              1429.258821
MG Hartree energy from (\int eps (grad phi)^2 dr):     1428.605271
MG Discrepancy due to finite box and discretization:     -0.653550 (  -0.04573%)
MG Correction to account for finite box:                  0.472857
MG Remaining discrepancy, due to discretization:         -0.180694 (  -0.01264%)
      ideal mu1:      -0.777187540408
             Q0:  -11532.015547058312
             G0:      -0.503212784951
   RMS gradient:       0.000108497612
MG BCs: +ve charge blocks (gridpoints):     30243 (   17009762).
MG BCs: -ve charge blocks (gridpoints):      8250 (    1092396).
MG BCs:     Elided blocks (gridpoints):    170387 (  178194307).
MG BCs: Computational effort saved:  99.9804%.
MG BCs: Charge after coarse-graining:           -9.0009284.
MG DL_MG: Calling solver with defect correction order = 8
MG DL_MG: Solver finished
MG Hartree energy from (\int phi*rho dr):              1430.576571
MG Hartree energy from (\int eps (grad phi)^2 dr):     1429.923063
MG Discrepancy due to finite box and discretization:     -0.653508 (  -0.04568%)
MG Correction to account for finite box:                  0.472702
MG Remaining discrepancy, due to discretization:         -0.180805 (  -0.01264%)
     Trial step:       0.477839885422
             Q1:  -11532.141009152168
 Quadratic coef:       0.114993045647
 Linear coef   :      -0.240455139503
           Qmin:  -11532.141247429558
Quadratic minimum step length (  0.499591325993) accepted
    Initial Ne1:    7191.99998305
      Final Ne1:    7192.00000000

=================== Penalty functional idempotency correction ==================
 RMS occupancy error at iteration   1:  0.000281 (step -0.4960 Ne1=   7192.0000)
 RMS occupancy error at iteration   2:  0.000003 (step -0.5000 Ne1=   7192.0000)
            Final RMS occupancy error   :  0.000000 (Ne1=   7192.0000)
               Final occupancy bounds   : [  0.0000,  1.0000]
================================================================================

    4        -1.153201554706E+04     1.0850E-04     9.8134E-05    -5.1509E-01
MG BCs: +ve charge blocks (gridpoints):     30243 (   17009807).
MG BCs: -ve charge blocks (gridpoints):      8250 (    1092378).
MG BCs:     Elided blocks (gridpoints):    170387 (  178194280).
MG BCs: Computational effort saved:  99.9804%.
MG BCs: Charge after coarse-graining:           -9.0009284.
MG DL_MG: Calling solver with defect correction order = 8
MG DL_MG: Solver finished
MG Hartree energy from (\int phi*rho dr):              1430.637152
MG Hartree energy from (\int eps (grad phi)^2 dr):     1429.983646
MG Discrepancy due to finite box and discretization:     -0.653506 (  -0.04568%)
MG Correction to account for finite box:                  0.472695
MG Remaining discrepancy, due to discretization:         -0.180811 (  -0.01264%)
      ideal mu1:      -0.777568761003
             Q0:  -11532.141851911321
             G0:      -0.189076300786
   RMS gradient:       0.000066696980
MG BCs: +ve charge blocks (gridpoints):     30245 (   17009984).
MG BCs: -ve charge blocks (gridpoints):      8250 (    1092187).
MG BCs:     Elided blocks (gridpoints):    170385 (  178194294).
MG BCs: Computational effort saved:  99.9804%.
MG BCs: Charge after coarse-graining:           -9.0009284.
MG DL_MG: Calling solver with defect correction order = 8
MG DL_MG: Solver finished
MG Hartree energy from (\int phi*rho dr):              1431.035373
MG Hartree energy from (\int eps (grad phi)^2 dr):     1430.381814
MG Discrepancy due to finite box and discretization:     -0.653560 (  -0.04567%)
MG Correction to account for finite box:                  0.472598
MG Remaining discrepancy, due to discretization:         -0.180962 (  -0.01265%)
     Trial step:       0.488594578327
             Q1:  -11532.203137369826
 Quadratic coef:       0.031096196948
 Linear coef   :      -0.092381655454
           Qmin:  -11532.210464564170
Quadratic minimum step length (  0.725766820732) accepted
    Initial Ne1:    7191.99999069
      Final Ne1:    7192.00000000

=================== Penalty functional idempotency correction ==================
 RMS occupancy error at iteration   1:  0.000492 (step -0.4715 Ne1=   7192.0000)
 RMS occupancy error at iteration   2:  0.000012 (step -0.5000 Ne1=   7192.0000)
            Final RMS occupancy error   :  0.000000 (Ne1=   7192.0000)
               Final occupancy bounds   : [  0.0000,  1.0000]
================================================================================

    5        -1.153214185191E+04     6.6697E-05     6.0326E-05    -1.2630E-01
MG BCs: +ve charge blocks (gridpoints):     30245 (   17010131).
MG BCs: -ve charge blocks (gridpoints):      8244 (    1092069).
MG BCs:     Elided blocks (gridpoints):    170385 (  178194265).
MG BCs: Computational effort saved:  99.9804%.
MG BCs: Charge after coarse-graining:           -9.0009283.
MG DL_MG: Calling solver with defect correction order = 8
MG DL_MG: Solver finished
MG Hartree energy from (\int phi*rho dr):              1431.226567
MG Hartree energy from (\int eps (grad phi)^2 dr):     1430.572984
MG Discrepancy due to finite box and discretization:     -0.653583 (  -0.04567%)
MG Correction to account for finite box:                  0.472547
MG Remaining discrepancy, due to discretization:         -0.181036 (  -0.01265%)
      ideal mu1:      -0.777622651259
             Q0:  -11532.209611931234
             G0:      -0.189469939126
   RMS gradient:       0.000067502478
MG BCs: +ve charge blocks (gridpoints):     30244 (   17009432).
MG BCs: -ve charge blocks (gridpoints):      8247 (    1092529).
MG BCs:     Elided blocks (gridpoints):    170386 (  178194504).
MG BCs: Computational effort saved:  99.9804%.
MG BCs: Charge after coarse-graining:           -9.0009281.
MG DL_MG: Calling solver with defect correction order = 8
MG DL_MG: Solver finished
MG Hartree energy from (\int phi*rho dr):              1429.897102
MG Hartree energy from (\int eps (grad phi)^2 dr):     1429.243741
MG Discrepancy due to finite box and discretization:     -0.653361 (  -0.04569%)
MG Correction to account for finite box:                  0.472339
MG Remaining discrepancy, due to discretization:         -0.181022 (  -0.01266%)
     Trial step:       0.595487811579
             Q1:  -11532.295242443215
 Quadratic coef:       0.027196527430
 Linear coef   :      -0.112827039410
           Qmin:  -11532.326630003256
Quadratic minimum step length (  1.235215175157) accepted
    Initial Ne1:    7191.99995215
      Final Ne1:    7192.00000000

=================== Penalty functional idempotency correction ==================
 RMS occupancy error at iteration   1:  0.004576 (step -0.3031 Ne1=   7192.0000)
 RMS occupancy error at iteration   2:  0.000403 (step -0.4816 Ne1=   7192.0000)
 RMS occupancy error at iteration   3:  0.000011 (step -0.5003 Ne1=   7192.0000)
            Final RMS occupancy error   :  0.000000 (Ne1=   7192.0000)
               Final occupancy bounds   : [  0.0000,  1.0000]
================================================================================

    6        -1.153220961193E+04     6.7502E-05     6.1054E-05    -6.7760E-02
MG BCs: +ve charge blocks (gridpoints):     30248 (   17008695).
MG BCs: -ve charge blocks (gridpoints):      8254 (    1093025).
MG BCs:     Elided blocks (gridpoints):    170382 (  178194745).
MG BCs: Computational effort saved:  99.9804%.
MG BCs: Charge after coarse-graining:           -9.0009279.
MG DL_MG: Calling solver with defect correction order = 8
MG DL_MG: Solver finished
MG Hartree energy from (\int phi*rho dr):              1428.488503
MG Hartree energy from (\int eps (grad phi)^2 dr):     1427.835350
MG Discrepancy due to finite box and discretization:     -0.653153 (  -0.04572%)
MG Correction to account for finite box:                  0.472142
MG Remaining discrepancy, due to discretization:         -0.181011 (  -0.01267%)
      ideal mu1:      -0.777896116446
             Q0:  -11532.299119014526
             G0:      -0.395276328992
   RMS gradient:       0.000096650277
MG BCs: +ve charge blocks (gridpoints):     30241 (   17011352).
MG BCs: -ve charge blocks (gridpoints):      8249 (    1091705).
MG BCs:     Elided blocks (gridpoints):    170389 (  178193408).
MG BCs: Computational effort saved:  99.9804%.
MG BCs: Charge after coarse-graining:           -9.0009287.
MG DL_MG: Calling solver with defect correction order = 8
MG DL_MG: Solver finished
MG Hartree energy from (\int phi*rho dr):              1432.044624
MG Hartree energy from (\int eps (grad phi)^2 dr):     1431.391758
MG Discrepancy due to finite box and discretization:     -0.652866 (  -0.04559%)
MG Correction to account for finite box:                  0.472061
MG Remaining discrepancy, due to discretization:         -0.180804 (  -0.01263%)
     Trial step:       0.857645370467
             Q1:  -11532.410309053841
 Quadratic coef:       0.227816874300
 Linear coef   :      -0.339006913615
           Qmin:  -11532.425235317183
Quadratic minimum step length (  0.638117152015) accepted
    Initial Ne1:    7191.99991488
      Final Ne1:    7192.00000000

=================== Penalty functional idempotency correction ==================
 RMS occupancy error at iteration   1:  0.000213 (step -0.4875 Ne1=   7192.0000)
 RMS occupancy error at iteration   2:  0.000002 (step -0.5000 Ne1=   7192.0000)
            Final RMS occupancy error   :  0.000000 (Ne1=   7192.0000)
               Final occupancy bounds   : [  0.0000,  1.0000]
================================================================================

    7        -1.153229911901E+04     9.6650E-05     8.7418E-05    -8.9507E-02
MG BCs: +ve charge blocks (gridpoints):     30243 (   17010700).
MG BCs: -ve charge blocks (gridpoints):      8247 (    1092041).
MG BCs:     Elided blocks (gridpoints):    170387 (  178193724).
MG BCs: Computational effort saved:  99.9804%.
MG BCs: Charge after coarse-graining:           -9.0009285.
MG DL_MG: Calling solver with defect correction order = 8
MG DL_MG: Solver finished
MG Hartree energy from (\int phi*rho dr):              1431.130235
MG Hartree energy from (\int eps (grad phi)^2 dr):     1430.477300
MG Discrepancy due to finite box and discretization:     -0.652936 (  -0.04562%)
MG Correction to account for finite box:                  0.472080
MG Remaining discrepancy, due to discretization:         -0.180855 (  -0.01264%)
      ideal mu1:      -0.779172192537
             Q0:  -11532.425536261755
             G0:      -0.295022654206
   RMS gradient:       0.000083415696
MG BCs: +ve charge blocks (gridpoints):     30245 (   17010642).
MG BCs: -ve charge blocks (gridpoints):      8248 (    1092046).
MG BCs:     Elided blocks (gridpoints):    170385 (  178193777).
MG BCs: Computational effort saved:  99.9804%.
MG BCs: Charge after coarse-graining:           -9.0009285.
MG DL_MG: Calling solver with defect correction order = 8
MG DL_MG: Solver finished
MG Hartree energy from (\int phi*rho dr):              1430.883067
MG Hartree energy from (\int eps (grad phi)^2 dr):     1430.230175
MG Discrepancy due to finite box and discretization:     -0.652891 (  -0.04563%)
MG Correction to account for finite box:                  0.472230
MG Remaining discrepancy, due to discretization:         -0.180661 (  -0.01263%)
     Trial step:       0.739782549971
             Q1:  -11532.549589110189
 Quadratic coef:       0.094199762994
 Linear coef   :      -0.218252611428
           Qmin:  -11532.551954314415
Quadratic minimum step length (  0.857005730627) accepted
    Initial Ne1:    7191.99991453
      Final Ne1:    7192.00000000

=================== Penalty functional idempotency correction ==================
 RMS occupancy error at iteration   1:  0.001701 (step -0.4139 Ne1=   7192.0000)
 RMS occupancy error at iteration   2:  0.000055 (step -0.4990 Ne1=   7192.0000)
 RMS occupancy error at iteration   3:  0.000000 (step -0.5000 Ne1=   7192.0000)
            Final RMS occupancy error   :  0.000000 (Ne1=   7192.0000)
               Final occupancy bounds   : [  0.0000,  1.0000]
================================================================================

    8        -1.153242553626E+04     8.3416E-05     7.5448E-05    -1.2642E-01
MG BCs: +ve charge blocks (gridpoints):     30246 (   17010612).
MG BCs: -ve charge blocks (gridpoints):      8247 (    1092072).
MG BCs:     Elided blocks (gridpoints):    170384 (  178193781).
MG BCs: Computational effort saved:  99.9804%.
MG BCs: Charge after coarse-graining:           -9.0009285.
MG DL_MG: Calling solver with defect correction order = 8
MG DL_MG: Solver finished
MG Hartree energy from (\int phi*rho dr):              1430.849516
MG Hartree energy from (\int eps (grad phi)^2 dr):     1430.196634
MG Discrepancy due to finite box and discretization:     -0.652881 (  -0.04563%)
MG Correction to account for finite box:                  0.472250
MG Remaining discrepancy, due to discretization:         -0.180632 (  -0.01262%)
      ideal mu1:      -0.778379983309
             Q0:  -11532.550010807347
             G0:      -0.305673718190
   RMS gradient:       0.000085427620
MG BCs: +ve charge blocks (gridpoints):     30240 (   17009581).
MG BCs: -ve charge blocks (gridpoints):      8249 (    1092611).
MG BCs:     Elided blocks (gridpoints):    170390 (  178194273).
MG BCs: Computational effort saved:  99.9804%.
MG BCs: Charge after coarse-graining:           -9.0009283.
MG DL_MG: Calling solver with defect correction order = 8
MG DL_MG: Solver finished
MG Hartree energy from (\int phi*rho dr):              1429.285019
MG Hartree energy from (\int eps (grad phi)^2 dr):     1428.631945
MG Discrepancy due to finite box and discretization:     -0.653074 (  -0.04569%)
MG Correction to account for finite box:                  0.472516
MG Remaining discrepancy, due to discretization:         -0.180558 (  -0.01263%)
     Trial step:       0.796239841218
             Q1:  -11532.630114337779
 Quadratic coef:       0.163286062405
 Linear coef   :      -0.243389592836
           Qmin:  -11532.640708220568
Quadratic minimum step length (  0.593426309324) accepted
    Initial Ne1:    7191.99993792
      Final Ne1:    7192.00000000

=================== Penalty functional idempotency correction ==================
 RMS occupancy error at iteration   1:  0.003349 (step -0.3575 Ne1=   7192.0000)
 RMS occupancy error at iteration   2:  0.000136 (step -0.4977 Ne1=   7192.0000)
 RMS occupancy error at iteration   3:  0.000002 (step -0.5000 Ne1=   7192.0000)
            Final RMS occupancy error   :  0.000000 (Ne1=   7192.0000)
               Final occupancy bounds   : [  0.0000,  1.0000]
================================================================================

    9        -1.153255001081E+04     8.5428E-05     7.7267E-05    -1.2447E-01
MG BCs: +ve charge blocks (gridpoints):     30241 (   17009813).
MG BCs: -ve charge blocks (gridpoints):      8249 (    1092474).
MG BCs:     Elided blocks (gridpoints):    170389 (  178194178).
MG BCs: Computational effort saved:  99.9804%.
MG BCs: Charge after coarse-graining:           -9.0009284.
MG DL_MG: Calling solver with defect correction order = 8
MG DL_MG: Solver finished
MG Hartree energy from (\int phi*rho dr):              1429.676150
MG Hartree energy from (\int eps (grad phi)^2 dr):     1429.023171
MG Discrepancy due to finite box and discretization:     -0.652979 (  -0.04567%)
MG Correction to account for finite box:                  0.472411
MG Remaining discrepancy, due to discretization:         -0.180568 (  -0.01263%)
      ideal mu1:      -0.777437062885
   10        -1.153264885651E+04     6.6350E-05     6.0012E-05    -9.8846E-02
Finished density kernel iterations (  10)

Writing density kernel to file "host_18341.vacuum_dkn" ... done


>>> Density kernel optimised for the current NGWF basis:
     ~~~~~~~~~~~~~~~~~~~~~~~~~~~~~~~~~~~~~~~~~~~~~~~~~~~~~~~~~~~
     Total energy                =  -1.15326488565146E+04  Eh
     Estimated bandgap           =  -3.9049E-01  Eh
     RMS occupancy error         =   2.8255E-10
     [H,K] commutator            =   6.0012E-05
     Occupancy bounds            = [  0.000:  1.000]
     ~~~~~~~~~~~~~~~~~~~~~~~~~~~~~~~~~~~~~~~~~~~~~~~~~~~~~~~~~~~




################################################################################
########################### NGWF CG iteration  001 #############################
################################################################################
****** Reciprocal space K.E. preconditioning with k_zero =  3.5000 a0^-1 *******

>>> Checking for convergence of NGWFs:   NOT CONVERGED
  ========================================================================
         NGWF RMS gradient =  1.5942E-03 >  2.0000E-06  | above tolerance
  ========================================================================

>>> Improving NGWFs using line search:
============ Calculation of NGWF S^-1 using Hotelling algorithm ================ 
         Iteration  |  Frobenius norm and Maximum abs value    (of I-S*S_n^-1)   
               1       0.19749674E+00     0.51570396E-02
               2       0.91215100E-03     0.39493561E-04
               3       0.33474112E-07     0.22796611E-08
               4       0.12648919E-12     0.66613381E-14
================================================================================
MG BCs: +ve charge blocks (gridpoints):     29797 (   16954443).
MG BCs: -ve charge blocks (gridpoints):      8274 (    1092334).
MG BCs:     Elided blocks (gridpoints):    170835 (  178249688).
MG BCs: Computational effort saved:  99.9806%.
MG BCs: Charge after coarse-graining:           -9.0009328.
MG DL_MG: Calling solver with defect correction order = 8
MG DL_MG: Solver finished
MG Hartree energy from (\int phi*rho dr):              1397.941301
MG Hartree energy from (\int eps (grad phi)^2 dr):     1397.289169
MG Discrepancy due to finite box and discretization:     -0.652133 (  -0.04665%)
MG Correction to account for finite box:                  0.472281
MG Remaining discrepancy, due to discretization:         -0.179852 (  -0.01287%)
============ Calculation of NGWF S^-1 using Hotelling algorithm ================ 
         Iteration  |  Frobenius norm and Maximum abs value    (of I-S*S_n^-1)   
               1       0.18435635E+01     0.41592318E-01
               2       0.70959812E-01     0.23177490E-02
               3       0.14391346E-03     0.78644879E-05
               4       0.10739195E-08     0.11029611E-09
               5       0.10954151E-12     0.62172489E-14
================================================================================
------------------------------- NGWF line search -------------------------------
RMS gradient                =       0.00159421671397
Trial step length           =               0.122474
Gradient along search dir.  =       -276.00576589873
Functional at step 0        =  -11532.64885651459917
Functional at step 1        =  -11563.86536063870881
Functional predicted        =  -11643.06795704493743
Selected quadratic step     =               0.800122
--------------------------- NGWF line search finished --------------------------
                                               
Writing NGWFs to file "host_18341.vacuum_tightbox_ngwfs"....  done

>>> Optimising kernel for current NGWFs:
   Initial electron number for spin 1:    7226.35531871
     Final electron number for spin 1:    7192.00000000

=================== Penalty functional idempotency correction ==================
 RMS occupancy error at iteration   1:  0.004272 (step -0.4860 Ne1=   7192.0000)
 RMS occupancy error at iteration   2:  0.000070 (step -0.5003 Ne1=   7192.0000)
            Final RMS occupancy error   :  0.000000 (Ne1=   7192.0000)
               Final occupancy bounds   : [  0.0000,  1.0000]
================================================================================

................................................................................
<<<<<<<<<<<<<< LNV (Original version) density kernel optimisation >>>>>>>>>>>>>>
~~~~~~~~~~~~~~~~~~~~~~~~~~~~~~~~~~~~~~~~~~~~~~~~~~~~~~~~~~~~~~~~~~~~~~~~~~~~~~~~
   iter  |      energy (Eh)       | rms gradient |  commutator  |   dE (Eh)
MG BCs: +ve charge blocks (gridpoints):     24040 (   16677769).
MG BCs: -ve charge blocks (gridpoints):      8443 (    1076228).
MG BCs:     Elided blocks (gridpoints):    176600 (  178542468).
MG BCs: Computational effort saved:  99.9835%.
MG BCs: Charge after coarse-graining:           -9.0006363.
MG DL_MG: Calling solver with defect correction order = 8
MG DL_MG: Solver finished
MG Hartree energy from (\int phi*rho dr):              1244.392753
MG Hartree energy from (\int eps (grad phi)^2 dr):     1243.740588
MG Discrepancy due to finite box and discretization:     -0.652165 (  -0.05241%)
MG Correction to account for finite box:                  0.471645
MG Remaining discrepancy, due to discretization:         -0.180520 (  -0.01451%)
      ideal mu1:      -0.718086158830
             Q0:  -11642.272902724333
             G0:      -9.868950278394
   RMS gradient:       0.000482934442
MG BCs: +ve charge blocks (gridpoints):     24084 (   16690650).
MG BCs: -ve charge blocks (gridpoints):      8428 (    1073316).
MG BCs:     Elided blocks (gridpoints):    176556 (  178532499).
MG BCs: Computational effort saved:  99.9834%.
MG BCs: Charge after coarse-graining:           -9.0006326.
MG DL_MG: Calling solver with defect correction order = 8
MG DL_MG: Solver finished
MG Hartree energy from (\int phi*rho dr):              1258.898696
MG Hartree energy from (\int eps (grad phi)^2 dr):     1258.241394
MG Discrepancy due to finite box and discretization:     -0.657302 (  -0.05221%)
MG Correction to account for finite box:                  0.471049
MG Remaining discrepancy, due to discretization:         -0.186253 (  -0.01479%)
     Trial step:       0.687393388323
             Q1:  -11642.023671696545
 Quadratic coef:       7.033082198848
 Linear coef   :      -6.783851171060
           Qmin:  -11643.908765757422
Quadratic minimum step length (  0.331517129369) accepted
    Initial Ne1:    7191.99958943
      Final Ne1:    7192.00000000

=================== Penalty functional idempotency correction ==================
 RMS occupancy error at iteration   1:  0.000360 (step -0.4985 Ne1=   7192.0000)
 RMS occupancy error at iteration   2:  0.000000 (step -0.5000 Ne1=   7192.0000)
            Final RMS occupancy error   :  0.000000 (Ne1=   7192.0000)
               Final occupancy bounds   : [  0.0000,  1.0000]
================================================================================

    1        -1.164227290272E+04     4.8293E-04     4.3680E-04
MG BCs: +ve charge blocks (gridpoints):     24060 (   16684085).
MG BCs: -ve charge blocks (gridpoints):      8436 (    1074787).
MG BCs:     Elided blocks (gridpoints):    176580 (  178537593).
MG BCs: Computational effort saved:  99.9834%.
MG BCs: Charge after coarse-graining:           -9.0006345.
MG DL_MG: Calling solver with defect correction order = 8
MG DL_MG: Solver finished
MG Hartree energy from (\int phi*rho dr):              1250.529483
MG Hartree energy from (\int eps (grad phi)^2 dr):     1249.874928
MG Discrepancy due to finite box and discretization:     -0.654555 (  -0.05234%)
MG Correction to account for finite box:                  0.471338
MG Remaining discrepancy, due to discretization:         -0.183217 (  -0.01465%)
      ideal mu1:      -0.723775493266
             Q0:  -11643.885805467027
             G0:      -1.040986928327
   RMS gradient:       0.000157388839
MG BCs: +ve charge blocks (gridpoints):     24058 (   16683363).
MG BCs: -ve charge blocks (gridpoints):      8440 (    1075718).
MG BCs:     Elided blocks (gridpoints):    176582 (  178537384).
MG BCs: Computational effort saved:  99.9834%.
MG BCs: Charge after coarse-graining:           -9.0006345.
MG DL_MG: Calling solver with defect correction order = 8
MG DL_MG: Solver finished
MG Hartree energy from (\int phi*rho dr):              1251.459290
MG Hartree energy from (\int eps (grad phi)^2 dr):     1250.804403
MG Discrepancy due to finite box and discretization:     -0.654887 (  -0.05233%)
MG Correction to account for finite box:                  0.471266
MG Remaining discrepancy, due to discretization:         -0.183621 (  -0.01467%)
     Trial step:       0.477370592773
             Q1:  -11644.106584120309
 Quadratic coef:       0.276157893763
 Linear coef   :      -0.496936547044
           Qmin:  -11644.109360485158
Quadratic minimum step length (  0.429505908379) accepted
    Initial Ne1:    7191.99994349
      Final Ne1:    7192.00000000

=================== Penalty functional idempotency correction ==================
 RMS occupancy error at iteration   1:  0.000158 (step -0.4992 Ne1=   7192.0000)
 RMS occupancy error at iteration   2:  0.000000 (step -0.5000 Ne1=   7192.0000)
            Final RMS occupancy error   :  0.000000 (Ne1=   7192.0000)
               Final occupancy bounds   : [  0.0000,  1.0000]
================================================================================

    2        -1.164388580547E+04     1.5739E-04     1.4235E-04    -1.6129E+00
MG BCs: +ve charge blocks (gridpoints):     24059 (   16683449).
MG BCs: -ve charge blocks (gridpoints):      8441 (    1075634).
MG BCs:     Elided blocks (gridpoints):    176581 (  178537382).
MG BCs: Computational effort saved:  99.9834%.
MG BCs: Charge after coarse-graining:           -9.0006345.
MG DL_MG: Calling solver with defect correction order = 8
MG DL_MG: Solver finished
MG Hartree energy from (\int phi*rho dr):              1251.365917
MG Hartree energy from (\int eps (grad phi)^2 dr):     1250.711064
MG Discrepancy due to finite box and discretization:     -0.654853 (  -0.05233%)
MG Correction to account for finite box:                  0.471273
MG Remaining discrepancy, due to discretization:         -0.183579 (  -0.01467%)
      ideal mu1:      -0.724346363474
             Q0:  -11644.109846244217
             G0:      -0.172616979553
   RMS gradient:       0.000063800065
MG BCs: +ve charge blocks (gridpoints):     24060 (   16682786).
MG BCs: -ve charge blocks (gridpoints):      8443 (    1076049).
MG BCs:     Elided blocks (gridpoints):    176580 (  178537630).
MG BCs: Computational effort saved:  99.9834%.
MG BCs: Charge after coarse-graining:           -9.0006345.
MG DL_MG: Calling solver with defect correction order = 8
MG DL_MG: Solver finished
MG Hartree energy from (\int phi*rho dr):              1250.832869
MG Hartree energy from (\int eps (grad phi)^2 dr):     1250.178093
MG Discrepancy due to finite box and discretization:     -0.654776 (  -0.05235%)
MG Correction to account for finite box:                  0.471212
MG Remaining discrepancy, due to discretization:         -0.183565 (  -0.01468%)
     Trial step:       0.452806239005
             Q1:  -11644.163408374647
 Quadratic coef:       0.024599914870
 Linear coef   :      -0.078162045300
           Qmin:  -11644.171932895306
Quadratic minimum step length (  0.719357403310) accepted
    Initial Ne1:    7191.99998444
      Final Ne1:    7192.00000000

=================== Penalty functional idempotency correction ==================
 RMS occupancy error at iteration   1:  0.000155 (step -0.4938 Ne1=   7192.0000)
 RMS occupancy error at iteration   2:  0.000001 (step -0.5000 Ne1=   7192.0000)
            Final RMS occupancy error   :  0.000000 (Ne1=   7192.0000)
               Final occupancy bounds   : [  0.0000,  1.0000]
================================================================================

    3        -1.164410984624E+04     6.3800E-05     5.7706E-05    -2.2404E-01
MG BCs: +ve charge blocks (gridpoints):     24060 (   16682345).
MG BCs: -ve charge blocks (gridpoints):      8445 (    1076333).
MG BCs:     Elided blocks (gridpoints):    176580 (  178537787).
MG BCs: Computational effort saved:  99.9834%.
MG BCs: Charge after coarse-graining:           -9.0006345.
MG DL_MG: Calling solver with defect correction order = 8
MG DL_MG: Solver finished
MG Hartree energy from (\int phi*rho dr):              1250.519454
MG Hartree energy from (\int eps (grad phi)^2 dr):     1249.864723
MG Discrepancy due to finite box and discretization:     -0.654732 (  -0.05236%)
MG Correction to account for finite box:                  0.471175
MG Remaining discrepancy, due to discretization:         -0.183557 (  -0.01468%)
      ideal mu1:      -0.723298806847
             Q0:  -11644.172019305639
             G0:      -0.064157427849
   RMS gradient:       0.000038886758
MG BCs: +ve charge blocks (gridpoints):     24061 (   16682367).
MG BCs: -ve charge blocks (gridpoints):      8444 (    1076311).
MG BCs:     Elided blocks (gridpoints):    176579 (  178537787).
MG BCs: Computational effort saved:  99.9834%.
MG BCs: Charge after coarse-graining:           -9.0006345.
MG DL_MG: Calling solver with defect correction order = 8
MG DL_MG: Solver finished
MG Hartree energy from (\int phi*rho dr):              1250.541210
MG Hartree energy from (\int eps (grad phi)^2 dr):     1249.886646
MG Discrepancy due to finite box and discretization:     -0.654564 (  -0.05234%)
MG Correction to account for finite box:                  0.471136
MG Remaining discrepancy, due to discretization:         -0.183427 (  -0.01467%)
     Trial step:       0.570727185521
             Q1:  -11644.194017405389
 Quadratic coef:       0.014618288476
 Linear coef   :      -0.036616388227
           Qmin:  -11644.194948800581
Quadratic minimum step length (  0.714788473021) accepted
    Initial Ne1:    7191.99999410
      Final Ne1:    7192.00000000

=================== Penalty functional idempotency correction ==================
 RMS occupancy error at iteration   1:  0.000211 (step -0.4882 Ne1=   7192.0000)
 RMS occupancy error at iteration   2:  0.000001 (step -0.5000 Ne1=   7192.0000)
            Final RMS occupancy error   :  0.000000 (Ne1=   7192.0000)
               Final occupancy bounds   : [  0.0000,  1.0000]
================================================================================

    4        -1.164417201931E+04     3.8887E-05     3.5172E-05    -6.2173E-02
MG BCs: +ve charge blocks (gridpoints):     24061 (   16682384).
MG BCs: -ve charge blocks (gridpoints):      8444 (    1076307).
MG BCs:     Elided blocks (gridpoints):    176579 (  178537774).
MG BCs: Computational effort saved:  99.9834%.
MG BCs: Charge after coarse-graining:           -9.0006345.
MG DL_MG: Calling solver with defect correction order = 8
MG DL_MG: Solver finished
MG Hartree energy from (\int phi*rho dr):              1250.547697
MG Hartree energy from (\int eps (grad phi)^2 dr):     1249.893176
MG Discrepancy due to finite box and discretization:     -0.654521 (  -0.05234%)
MG Correction to account for finite box:                  0.471126
MG Remaining discrepancy, due to discretization:         -0.183395 (  -0.01467%)
      ideal mu1:      -0.723532138791
             Q0:  -11644.194965977455
             G0:      -0.050421202415
   RMS gradient:       0.000034465760
MG BCs: +ve charge blocks (gridpoints):     24060 (   16683697).
MG BCs: -ve charge blocks (gridpoints):      8442 (    1075827).
MG BCs:     Elided blocks (gridpoints):    176580 (  178536941).
MG BCs: Computational effort saved:  99.9834%.
MG BCs: Charge after coarse-graining:           -9.0006342.
MG DL_MG: Calling solver with defect correction order = 8
MG DL_MG: Solver finished
MG Hartree energy from (\int phi*rho dr):              1251.344904
MG Hartree energy from (\int eps (grad phi)^2 dr):     1250.690514
MG Discrepancy due to finite box and discretization:     -0.654389 (  -0.05229%)
MG Correction to account for finite box:                  0.471059
MG Remaining discrepancy, due to discretization:         -0.183330 (  -0.01465%)
     Trial step:       0.638709020956
             Q1:  -11644.213610519539
 Quadratic coef:       0.013559934745
 Linear coef   :      -0.032204476830
           Qmin:  -11644.214087166962
Quadratic minimum step length (  0.758458291030) accepted
    Initial Ne1:    7191.99999488
      Final Ne1:    7192.00000000

=================== Penalty functional idempotency correction ==================
 RMS occupancy error at iteration   1:  0.000496 (step -0.4715 Ne1=   7192.0000)
 RMS occupancy error at iteration   2:  0.000005 (step -0.5000 Ne1=   7192.0000)
            Final RMS occupancy error   :  0.000000 (Ne1=   7192.0000)
               Final occupancy bounds   : [ -0.0000,  1.0000]
================================================================================

    5        -1.164419496598E+04     3.4466E-05     3.1173E-05    -2.2947E-02
MG BCs: +ve charge blocks (gridpoints):     24060 (   16683908).
MG BCs: -ve charge blocks (gridpoints):      8442 (    1075761).
MG BCs:     Elided blocks (gridpoints):    176580 (  178536796).
MG BCs: Computational effort saved:  99.9834%.
MG BCs: Charge after coarse-graining:           -9.0006341.
MG DL_MG: Calling solver with defect correction order = 8
MG DL_MG: Solver finished
MG Hartree energy from (\int phi*rho dr):              1251.495209
MG Hartree energy from (\int eps (grad phi)^2 dr):     1250.840844
MG Discrepancy due to finite box and discretization:     -0.654365 (  -0.05229%)
MG Correction to account for finite box:                  0.471047
MG Remaining discrepancy, due to discretization:         -0.183318 (  -0.01465%)
      ideal mu1:      -0.724549325573
             Q0:  -11644.214182110969
             G0:      -0.036624449840
   RMS gradient:       0.000029174784
MG BCs: +ve charge blocks (gridpoints):     24059 (   16683819).
MG BCs: -ve charge blocks (gridpoints):      8442 (    1075841).
MG BCs:     Elided blocks (gridpoints):    176581 (  178536805).
MG BCs: Computational effort saved:  99.9834%.
MG BCs: Charge after coarse-graining:           -9.0006342.
MG DL_MG: Calling solver with defect correction order = 8
MG DL_MG: Solver finished
MG Hartree energy from (\int phi*rho dr):              1251.273898
MG Hartree energy from (\int eps (grad phi)^2 dr):     1250.619628
MG Discrepancy due to finite box and discretization:     -0.654270 (  -0.05229%)
MG Correction to account for finite box:                  0.470937
MG Remaining discrepancy, due to discretization:         -0.183333 (  -0.01465%)
     Trial step:       0.696013040467
             Q1:  -11644.230745630921
 Quadratic coef:       0.008927574736
 Linear coef   :      -0.025491094689
           Qmin:  -11644.232378427652
Quadratic minimum step length (  0.993670444881) accepted
    Initial Ne1:    7191.99999970
      Final Ne1:    7192.00000000

=================== Penalty functional idempotency correction ==================
 RMS occupancy error at iteration   1:  0.001068 (step -0.4408 Ne1=   7192.0000)
 RMS occupancy error at iteration   2:  0.000025 (step -0.4994 Ne1=   7192.0000)
            Final RMS occupancy error   :  0.000000 (Ne1=   7192.0000)
               Final occupancy bounds   : [ -0.0000,  1.0000]
================================================================================

    6        -1.164421418211E+04     2.9175E-05     2.6388E-05    -1.9216E-02
MG BCs: +ve charge blocks (gridpoints):     24059 (   16683792).
MG BCs: -ve charge blocks (gridpoints):      8442 (    1075879).
MG BCs:     Elided blocks (gridpoints):    176581 (  178536794).
MG BCs: Computational effort saved:  99.9834%.
MG BCs: Charge after coarse-graining:           -9.0006342.
MG DL_MG: Calling solver with defect correction order = 8
MG DL_MG: Solver finished
MG Hartree energy from (\int phi*rho dr):              1251.180538
MG Hartree energy from (\int eps (grad phi)^2 dr):     1250.526306
MG Discrepancy due to finite box and discretization:     -0.654232 (  -0.05229%)
MG Correction to account for finite box:                  0.470892
MG Remaining discrepancy, due to discretization:         -0.183339 (  -0.01465%)
      ideal mu1:      -0.724463198600
             Q0:  -11644.232651221566
             G0:      -0.034948562846
   RMS gradient:       0.000028738716
MG BCs: +ve charge blocks (gridpoints):     24060 (   16682736).
MG BCs: -ve charge blocks (gridpoints):      8444 (    1076197).
MG BCs:     Elided blocks (gridpoints):    176580 (  178537532).
MG BCs: Computational effort saved:  99.9834%.
MG BCs: Charge after coarse-graining:           -9.0006343.
MG DL_MG: Calling solver with defect correction order = 8
MG DL_MG: Solver finished
MG Hartree energy from (\int phi*rho dr):              1250.701524
MG Hartree energy from (\int eps (grad phi)^2 dr):     1250.047255
MG Discrepancy due to finite box and discretization:     -0.654269 (  -0.05231%)
MG Correction to account for finite box:                  0.470889
MG Remaining discrepancy, due to discretization:         -0.183380 (  -0.01466%)
     Trial step:       0.831629477330
             Q1:  -11644.238687328063
 Quadratic coef:       0.023028148556
 Linear coef   :      -0.029064255053
           Qmin:  -11644.241821855929
Quadratic minimum step length (  0.524807523705) accepted
    Initial Ne1:    7192.00011198
      Final Ne1:    7192.00000000

=================== Penalty functional idempotency correction ==================
 RMS occupancy error at iteration   1:  0.000013 (step -0.4993 Ne1=   7192.0000)
            Final RMS occupancy error   :  0.000000 (Ne1=   7192.0000)
               Final occupancy bounds   : [ -0.0000,  1.0000]
================================================================================

    7        -1.164423265122E+04     2.8739E-05     2.5993E-05    -1.8469E-02
MG BCs: +ve charge blocks (gridpoints):     24060 (   16683117).
MG BCs: -ve charge blocks (gridpoints):      8442 (    1076075).
MG BCs:     Elided blocks (gridpoints):    176580 (  178537273).
MG BCs: Computational effort saved:  99.9834%.
MG BCs: Charge after coarse-graining:           -9.0006343.
MG DL_MG: Calling solver with defect correction order = 8
MG DL_MG: Solver finished
MG Hartree energy from (\int phi*rho dr):              1250.876643
MG Hartree energy from (\int eps (grad phi)^2 dr):     1250.222387
MG Discrepancy due to finite box and discretization:     -0.654256 (  -0.05230%)
MG Correction to account for finite box:                  0.470891
MG Remaining discrepancy, due to discretization:         -0.183365 (  -0.01466%)
      ideal mu1:      -0.724103476152
             Q0:  -11644.241822780110
             G0:      -0.022743451463
   RMS gradient:       0.000023180783
MG BCs: +ve charge blocks (gridpoints):     24060 (   16682911).
MG BCs: -ve charge blocks (gridpoints):      8443 (    1076134).
MG BCs:     Elided blocks (gridpoints):    176580 (  178537420).
MG BCs: Computational effort saved:  99.9834%.
MG BCs: Charge after coarse-graining:           -9.0006343.
MG DL_MG: Calling solver with defect correction order = 8
MG DL_MG: Solver finished
MG Hartree energy from (\int phi*rho dr):              1250.707575
MG Hartree energy from (\int eps (grad phi)^2 dr):     1250.053358
MG Discrepancy due to finite box and discretization:     -0.654217 (  -0.05231%)
MG Correction to account for finite box:                  0.470812
MG Remaining discrepancy, due to discretization:         -0.183405 (  -0.01466%)
     Trial step:       0.660640149126
             Q1:  -11644.252304831636
 Quadratic coef:       0.004543185640
 Linear coef   :      -0.015025237166
           Qmin:  -11644.254245657459
[...]
MG Discrepancy due to finite box and discretization:     -0.189008 (  -0.01564%)
MG Correction to account for finite box:                  0.006367
MG Remaining discrepancy, due to discretization:         -0.182642 (  -0.01511%)
     Trial step:       0.660408624435
             Q1:  -11678.853794899187
 Quadratic coef:       0.000000000786
 Linear coef   :      -0.000000002533
           Qmin:  -11678.853794899482
Quadratic minimum step length (  1.064282207993) accepted
    Initial Ne1:    7192.00000000
      Final Ne1:    7192.00000000

=================== Penalty functional idempotency correction ==================
 RMS occupancy error at iteration   1:  0.000000 (step -0.5000 Ne1=   7192.0000)
            Final RMS occupancy error   :  0.000000 (Ne1=   7192.0000)
               Final occupancy bounds   : [  0.0000,  1.0000]
================================================================================

    7        -1.167885379490E+04     9.5201E-09     8.6107E-09    -2.9104E-09

Reusing previously generated solute cavity.
MG BCs: +ve charge blocks (gridpoints):     28348 (   18781945).
MG BCs: -ve charge blocks (gridpoints):      8439 (    1045002).
MG BCs:     Elided blocks (gridpoints):    172292 (  176469518).
MG BCs: Computational effort saved:  99.9813%.
MG BCs: Charge after coarse-graining:           -9.0009070.
MG DL_MG: Calling solver with defect correction order = 8
MG DL_MG: Solver finished
MG Hartree energy from (\int phi*rho dr):              1208.740124
MG Hartree energy from (\int eps (grad phi)^2 dr):     1208.551116
MG Discrepancy due to finite box and discretization:     -0.189008 (  -0.01564%)
MG Correction to account for finite box:                  0.006367
MG Remaining discrepancy, due to discretization:         -0.182642 (  -0.01511%)
      ideal mu1:      -0.481146370038
             Q0:  -11678.853794898721
             G0:      -0.000000000645
   RMS gradient:       0.000000015787

Reusing previously generated solute cavity.
MG BCs: +ve charge blocks (gridpoints):     28348 (   18781945).
MG BCs: -ve charge blocks (gridpoints):      8439 (    1045002).
MG BCs:     Elided blocks (gridpoints):    172292 (  176469518).
MG BCs: Computational effort saved:  99.9813%.
MG BCs: Charge after coarse-graining:           -9.0009070.
MG DL_MG: Calling solver with defect correction order = 8
MG DL_MG: Solver finished
MG Hartree energy from (\int phi*rho dr):              1208.740209
MG Hartree energy from (\int eps (grad phi)^2 dr):     1208.551201
MG Discrepancy due to finite box and discretization:     -0.189008 (  -0.01564%)
MG Correction to account for finite box:                  0.006367
MG Remaining discrepancy, due to discretization:         -0.182642 (  -0.01511%)
     Trial step:       0.838368146455
             Q1:  -11678.853794896160
 Quadratic coef:       0.000000003101
 Linear coef   :      -0.000000000541
           Qmin:  -11678.853794898745
Quadratic minimum step length (  0.073139004852) accepted
    Initial Ne1:    7192.00000000
      Final Ne1:    7192.00000000

=================== Penalty functional idempotency correction ==================
 RMS occupancy error at iteration   1:  0.000000 (step -0.5000 Ne1=   7192.0000)
            Final RMS occupancy error   :  0.000000 (Ne1=   7192.0000)
               Final occupancy bounds   : [ -0.0000,  1.0000]
================================================================================

    8        -1.167885379490E+04     1.5787E-08     1.4279E-08    -1.2806E-09

Reusing previously generated solute cavity.
MG BCs: +ve charge blocks (gridpoints):     28348 (   18781945).
MG BCs: -ve charge blocks (gridpoints):      8439 (    1045002).
MG BCs:     Elided blocks (gridpoints):    172292 (  176469518).
MG BCs: Computational effort saved:  99.9813%.
MG BCs: Charge after coarse-graining:           -9.0009070.
MG DL_MG: Calling solver with defect correction order = 8
MG DL_MG: Solver finished
MG Hartree energy from (\int phi*rho dr):              1208.740132
MG Hartree energy from (\int eps (grad phi)^2 dr):     1208.551124
MG Discrepancy due to finite box and discretization:     -0.189008 (  -0.01564%)
MG Correction to account for finite box:                  0.006367
MG Remaining discrepancy, due to discretization:         -0.182642 (  -0.01511%)
      ideal mu1:      -0.481146374434
             Q0:  -11678.853794898838
             G0:      -0.000000011353
   RMS gradient:       0.000000016470

Reusing previously generated solute cavity.
MG BCs: +ve charge blocks (gridpoints):     28348 (   18781945).
MG BCs: -ve charge blocks (gridpoints):      8439 (    1045002).
MG BCs:     Elided blocks (gridpoints):    172292 (  176469518).
MG BCs: Computational effort saved:  99.9813%.
MG BCs: Charge after coarse-graining:           -9.0009070.
MG DL_MG: Calling solver with defect correction order = 8
MG DL_MG: Solver finished
MG Hartree energy from (\int phi*rho dr):              1208.740111
MG Hartree energy from (\int eps (grad phi)^2 dr):     1208.551103
MG Discrepancy due to finite box and discretization:     -0.189008 (  -0.01564%)
MG Correction to account for finite box:                  0.006367
MG Remaining discrepancy, due to discretization:         -0.182642 (  -0.01511%)
     Trial step:       0.247623528630
             Q1:  -11678.853794900235
 Quadratic coef:       0.000000001415
 Linear coef   :      -0.000000002811
           Qmin:  -11678.853794900235
Quadratic minimum step length (  0.245964047837) accepted
    Initial Ne1:    7192.00000000
      Final Ne1:    7192.00000000

=================== Penalty functional idempotency correction ==================
 RMS occupancy error at iteration   1:  0.000000 (step -0.5000 Ne1=   7192.0000)
            Final RMS occupancy error   :  0.000000 (Ne1=   7192.0000)
               Final occupancy bounds   : [  0.0000,  1.0000]
================================================================================

    9        -1.167885379490E+04     1.6470E-08     1.4896E-08    -1.1642E-10

Reusing previously generated solute cavity.
MG BCs: +ve charge blocks (gridpoints):     28348 (   18781945).
MG BCs: -ve charge blocks (gridpoints):      8439 (    1045002).
MG BCs:     Elided blocks (gridpoints):    172292 (  176469518).
MG BCs: Computational effort saved:  99.9813%.
MG BCs: Charge after coarse-graining:           -9.0009070.
MG DL_MG: Calling solver with defect correction order = 8
MG DL_MG: Solver finished
MG Hartree energy from (\int phi*rho dr):              1208.740111
MG Hartree energy from (\int eps (grad phi)^2 dr):     1208.551103
MG Discrepancy due to finite box and discretization:     -0.189008 (  -0.01564%)
MG Correction to account for finite box:                  0.006367
MG Remaining discrepancy, due to discretization:         -0.182642 (  -0.01511%)
      ideal mu1:      -0.481146331815
   10        -1.167885379490E+04     9.0705E-09     8.2040E-09    -1.3970E-09
Finished density kernel iterations (  10)

Writing density kernel to file "host_18341.dkn" ... done


>>> Density kernel optimised for the current NGWF basis:
     ~~~~~~~~~~~~~~~~~~~~~~~~~~~~~~~~~~~~~~~~~~~~~~~~~~~~~~~~~~~
     Total energy                =  -1.16788537949002E+04  Eh
     Estimated bandgap           =   8.4156E-02  Eh
     RMS occupancy error         =   4.6933E-16
     [H,K] commutator            =   8.2040E-09
     Occupancy bounds            = [  0.000:  1.000]
     ~~~~~~~~~~~~~~~~~~~~~~~~~~~~~~~~~~~~~~~~~~~~~~~~~~~~~~~~~~~




################################################################################
########################### NGWF CG iteration  004 #############################
################################################################################
****** Reciprocal space K.E. preconditioning with k_zero =  3.5000 a0^-1 *******

>>> Checking for convergence of NGWFs: 
           ........................................................
           |         *** NGWF optimisation converged ***          |
           | RMS NGWF gradient =    0.00000187081383              |
           | Criteria satisfied:                                  |
           | -> RMS NGWF gradient lower than set threshold.       |
           ========================================================

Reusing previously generated solute cavity.
MG BCs: +ve charge blocks (gridpoints):     28348 (   18781945).
MG BCs: -ve charge blocks (gridpoints):      8439 (    1045002).
MG BCs:     Elided blocks (gridpoints):    172292 (  176469518).
MG BCs: Computational effort saved:  99.9813%.
MG BCs: Charge after coarse-graining:           -9.0009070.
MG DL_MG: Calling solver with defect correction order = 8
MG DL_MG: Solver finished
MG Hartree energy from (\int phi*rho dr):              1208.740111
MG Hartree energy from (\int eps (grad phi)^2 dr):     1208.551103
MG Discrepancy due to finite box and discretization:     -0.189008 (  -0.01564%)
MG Correction to account for finite box:                  0.006367
MG Remaining discrepancy, due to discretization:         -0.182642 (  -0.01511%)

================================================================================
           ---------------- ENERGY COMPONENTS (Eh) ----------------
           | Kinetic                    :     8530.12766786015891 |
           | Pseudo. (local,OBC,corr'd) :    -5051.41228808110372 |
           | Pseudopotential (non-local):     1403.13662769120856 |
           | Hartree (molecular)        :     1208.74011080657419 |
           | Exchange-correlation       :    -3357.77375687320864 |
           | Ion-ion (open BC)          :   832828.49305716063827 |
           | Dispersion Correction      :       -3.28629591768222 |
           | Smeared ion non-self corr. :  -832780.35900726076216 |
           | Smeared ion self corr.     :   -14457.16956389741972 |
           | Solvent cavitation energy  :        2.31131766025257 |
           | Solute-solvent dis-rep en. :       -1.66166404889708 |
           | Total                      :   -11678.85379490033301 |
           --------------------------------------------------------
           ------ LOCAL ENERGY COMPONENTS FROM MATRIX TRACES ------
           | Pseudopotential (local)    :    -5051.41228808109372 |
           | Hartree                    :    -1990.36285479863363 |
           --------------------------------------------------------
           Integrated density           :     7191.99999999905231
           Integrated density tr(KS)    :     7192.00000000000091
================================================================================


                        <<<<< CALCULATION SUMMARY >>>>>                         
|ITER|    RMS GRADIENT   |     TOTAL ENERGY    |   step   |     Epredicted              
   0     0.00004025348999 -11678.78991290018894   0.626810 -11678.84506172391593        
   1     0.00000963943542 -11678.85329398710746   0.082518 -11678.85371032539297        
   2     0.00000422028734 -11678.85377846099436   0.014900 -11678.85379287077012        
   3     0.00000187081383 -11678.85379490023479  <-- CG                                 

=================== Finished the calculation in solvent ========================
= Adjusting the following parameters: 
= read_denskern: F
= read_tightbox_ngwfs: F
= maxit_pen: 0 (restored to user-specified value)
= restart read filename prefix: ""
= restart write filename prefix: ""
================================================================================

================================================================================
IS: Calculation in solvent completed (NGWFs converged).      

Individual components of total energy in solvent:     hartree           kcal/mol
- Usual non-electrostatic DFT terms:    -12888.24355931816535    -8087494.762046
- Electrostatic fixed charge energy:      1208.74011080657419      758495.854756
- Apolar cavitation energy:                  2.31131766025257        1450.373698
- Apolar dispersion-repulsion energy:       -1.66166404889708       -1042.709911
 -------------------------------------------------------------------------------
- Total energy in solvent:              -11678.85379490023479    -7328591.243503

Components of total energy in solvent:                hartree           kcal/mol
- Usual non-electrostatic DFT terms:    -12888.24355931816535    -8087494.762046
- Electrostatic energy:                   1208.74011080657419      758495.854756
- Apolar energy terms:                       0.64965361135549         407.663787
 -------------------------------------------------------------------------------
- Total energy in solvent:              -11678.85379490023479    -7328591.243503

Calculation of free energy of solvation:              hartree           kcal/mol
- Total energy in solvent:         (+)  -11678.85379490023479    -7328591.243503
- Total energy in vacuum:          (-)  -11675.00150523323100    -7326173.895293
 -------------------------------------------------------------------------------
- Total free energy of solvation:           -3.85228966700379       -2417.348210

Components of polar term in f.e. of solvation:        hartree           kcal/mol
- Electrostatic:                            -4.66514194231786       -2927.420703
- Change in nonelectrostatic DFT terms:      0.16319866395861         102.408706
 -------------------------------------------------------------------------------
- Polar term in f.e. of solvation:          -4.50194327835925       -2825.011998

Components of free energy of solvation:               hartree           kcal/mol
- Polar term in f.e. of solvation: (+)      -4.50194327835925       -2825.011998
- Apolar (cavitation, dis., rep.): (+)       0.64965361135549         407.663787
 -------------------------------------------------------------------------------
- Total free energy of solvation:           -3.85228966700376       -2417.348210
================================================================================


------------------------------ TIMING INFORMATION ------------------------------
AVERAGE TIME:   29838.961s on     60 node(s)                                    
TOTAL TIME:     29838.962s on     60 node(s)                                    
================= AVERAGE TIMINGS FROM ALL NODES (CUMULATIVE) ==================
|| TAG                                    #calls    cpu time   %total  Gflops ||
|| work_imbalance                       :     1        0.00s   0.000%  ------ ||
|| sparse_set_to_garbage                :   164        0.03s   0.000%  ------ ||
|| parallel_prepare_fd_halos_request    :  1821        0.03s   0.000%  ------ ||
|| ngwfs_initialise_from_radial         :     1        0.11s   0.000%  ------ ||
|| basis_extract_function_from_box      :  3360        0.14s   0.000%  ------ ||
|| parallel_prepare_fd_halos_alloc      :  1821        0.52s   0.002%  ------ ||
|| parallel_prepare_fd_halos_satisfy    :  1821        0.60s   0.002%  ------ ||
|| pseudopotentials_nonlocal_mat        :    28        1.99s   0.007%  ------ ||
|| density_init_guess_real              :     1        3.57s   0.012%  ------ ||
|| openbc_locps_radial                  :     1        4.66s   0.016%  ------ ||
|| restart_ngwfs_tightbox_input         :     1        7.21s   0.024%  ------ ||
|| parallel_prepare_fd_halos_comms_imbal:  1821       10.51s   0.035%  ------ ||
|| restart_kernel_read                  :     1       12.60s   0.042%  ------ ||
|| parallel_prepare_fd_halos_clear      :  1821       17.82s   0.060%  ------ ||
|| sparse_init                          :     2       23.30s   0.078%  ------ ||
|| projectors_func_ovlp_box             :    28       25.91s   0.087%  ------ ||
|| parallel_prepare_fd_halos_comms_wait :  1821       26.23s   0.088%  ------ ||
|| function_ops_brappd_ketppd           :    28       29.47s   0.099%  ------ ||
|| projectors_init_fftbox_recip         :   133       30.19s   0.101%  ------ ||
|| palser_mano_kernel_optimise          :     1       31.76s   0.106%  ------ ||
|| basis_copy_function_to_box           : 54425       38.78s   0.130%  ------ ||
|| ngwf_gradient_coeffs                 :    15       48.34s   0.162%  ------ ||
|| fourier_apply_box_pair               :  4776       49.60s   0.166% 557.435 ||
|| pseudo_make_structure_factor         :     2       54.22s   0.182%  ------ ||
|| parallel_prepare_fd_halos            :  1821       55.72s   0.187%  ------ ||
|| sparse_embed_hotelling_invert_embed  :    28       75.75s   0.254%  ------ ||
|| restart_kernel_write                 :    16       99.98s   0.335%  ------ ||
|| finite_difference_derivative         :  1821      137.90s   0.462%  ------ ||
|| projectors_gradient_batch            :   105      143.03s   0.479%  ------ ||
|| integrals_kinetic                    :    28      147.09s   0.493%  ------ ||
|| basis_dot_function_with_box          : 8.369M     160.37s   0.537%  ------ ||
|| fourier_apply_cell_backward          :  1215      167.40s   0.561% 100.252 ||
|| sparse_trace                         :  5232      195.57s   0.655%  ------ ||
|| fourier_apply_cell_forward           :  1213      224.93s   0.754%  74.490 ||
|| openbc_locps_on_grid                 :     2      266.73s   0.894%  ------ ||
|| kernel_purify                        :   463      290.38s   0.973%  ------ ||
|| basis_add_function_to_box            : 17.36M     394.06s   1.321%  ------ ||
|| lnv_gradient_norm                    :   150      427.49s   1.433%  ------ ||
|| xc_energy_potential                  :   303      451.99s   1.515%  ------ ||
|| hamiltonian_energy_components        :     4      491.01s   1.646%  ------ ||
|| kernel_fix                           :   150      566.39s   1.898%  ------ ||
|| ngwf_gradient_build_batch            :   105      716.27s   2.400%  ------ ||
|| integrals_locpot_mat_els_batch       :  1113      767.46s   2.572%  ------ ||
|| ngwf_gradient_batch                  :   105     1018.61s   3.414%  ------ ||
|| restart_ngwfs_tightbox_output        :    13     1056.41s   3.540%  ------ ||
|| density_batch_row_sums               :  2114     1109.75s   3.719%  ------ ||
|| ngwf_gradient_lnv                    :    15     1162.91s   3.897%  ------ ||
|| cell_grid_deposit_box_real           : 34782     1194.36s   4.003%  ------ ||
|| cell_grid_extract_box_real           : 38517     1458.81s   4.889%  ------ ||
|| density_fftbox_deposit_to_cell       : 32918     1722.30s   5.772%  ------ ||
|| sparse_product                       :  6404     1842.34s   6.174%  ------ ||
|| potential_apply_to_ngwf_batch        :  1113     3323.77s  11.139%  ------ ||
|| density_fftbox_interpolate_multiply  : 32918     3457.17s  11.586%  ------ ||
|| integrals_locpot_dbl_grid            :   159     4109.53s  13.772%  ------ ||
|| multigrid_prepare_bound_cond         :   303     4239.57s  14.208%  ------ ||
|| fourier_apply_box                    : 113.6k    4268.38s  14.305% 747.367 ||
|| density_batch_interp_deposit         :  2114     6004.08s  20.122%  ------ ||
|| dl_mg_solver_calls                   :   303     7461.32s  25.005%  ------ ||
|| density_on_dbl_grid                  :   302     7507.81s  25.161%  ------ ||
|| multigrid_calculate_hartree          :   303    11890.74s  39.850%  ------ ||
|| hamiltonian_lhxc_calculate           :   298    19797.98s  66.349%  ------ ||
|| lnv_denskernel_optimise_cg           :    15    24876.65s  83.370%  ------ ||
|| ngwf_cg_optimise                     :     2    28848.13s  96.679%  ------ ||
|| total_time                           :     1    29838.96s 100.000%  ------ ||
================================================================================
Overhead of generating timer report: 
- 0 ms averaging over threads,
- 15 ms ensuring consistency across MPI ranks,
- 0 ms printing in order.

Job completed: 13-07-2020 20:04 (+0100)

Application 41067980 resources: utime ~6238601s, stime ~207102s, Rss ~3684488, inblocks ~316303030, outblocks ~61267555
