 +---------------------------------------------------------------+
 |                                                               |
 |        ####### #     # ####### ####### ####### ######         |
 |        #     # ##    # #          #    #       #     #        |
 |        #     # # #   # #          #    #       #     #        |
 |        #     # #  #  # #####      #    #####   ######         |
 |        #     # #   # # #          #    #       #              |
 |        #     # #    ## #          #    #       #              |
 |        ####### #     # #######    #    ####### #              |
 |                                                               |
 |        Linear-Scaling Ab Initio Total Energy Program          |
 |                                                               |
 |          Release for academic collaborators of ODG            |
 |                                             Version 5.3.2.6.  |
 |                                                               |
 +---------------------------------------------------------------+
 |                                                               |
 |  Authors:                                                     |
 |  Jacek Dziedzic, Peter D. Haynes, Nicholas D. M. Hine,        |
 |  Arash. A. Mostofi, Mike C. Payne and Chris-Kriton Skylaris   |
 |                                                               |
 |  Contributors:                                                |
 |  J. Aarons, L. Andrinopoulos, P. W. Avraam, R. A. Bell,       |
 |  A. Bhandari, G. A. Bramley, R. J. Charlton, S. J. Clark,     |
 |  R. J. Clements, G. C. Constantinescu, F. Corsetti,           |
 |  N. Corsini, O. Dieguez, S. M. M. Dubois, K. K. B. Duff,      |
 |  J. M. Escartin, A. Greco, H. Helal, Q. O. Hill, L. P. Lee,   |
 |  J.-H. Li, E. B. Linscott, G. Moynihan, D. D. O`Regan,        |
 |  O. K. Okan, M. J. S. Phipps, C. J. Pickard,                  |
 |  J. C. A. Prentice, M. I. J. Probert, L. E. Ratcliff,         |
 |  M. Robinson, A. Ruiz Serrano, J. S. Spencer, E. W. Tait,     |
 |  G. Teobaldi, D. Turban, V. Vitale, K. A. Wilkinson,          |
 |  C. Weber, J. C. Womack, N. Yeung and T. J. Zuehlsdorff       |
 |                                                               |
 |                                   Copyright (c) 2004-2019     |
 |                                                               |
 |  Please cite:                                                 |
 |  "Introducing ONETEP: Linear-scaling density functional       |
 |   simulations on parallel computers".                         |
 |   C.-K. Skylaris, P. D. Haynes, A. A. Mostofi, M. C. Payne.   |
 |   J. Chem. Phys. 122 084119 (2005).                           |
 |                                                               |
 |          in all publications arising from your use of ONETEP. |
 |                                                               |
 +---------------------------------------------------------------+
 |                                                               |
 |   ONETEP is based on developments described in the following  |
 |   publications:                                               |
 |                                                               |
 |  "Nonorthogonal generalized Wannier function pseudopotential  |
 |   plane-wave method".                                         |
 |   C.-K. Skylaris, A. A. Mostofi, P. D. Haynes, O. Dieguez,    |
 |   M. C. Payne.                                                |
 |   Phys. Rev. B 66 035119 (2002).                              |
 |                                                               |
 |  "Preconditioned iterative minimization for linear-scaling    |
 |   electronic structure calculations".                         |
 |   A. A. Mostofi, P. D. Haynes, C.-K. Skylaris, M. C. Payne.   |
 |   J. Chem. Phys. 119(17), pp.8842-8848 (2003).                |
 |                                                               |
 |  "Total-energy calculations on a real space grid with         |
 |   localized functions and a plane-wave basis".                |
 |   A. A. Mostofi, C.-K. Skylaris, P. D. Haynes, M. C. Payne.   |
 |   Comput. Phys. Commun. 147, pp.788-802 (2002).               |
 |                                                               |
 |  "Accurate kinetic energy evaluation in electronic structure  |
 |   calculations with localized functions on real space grids"  |
 |   C.-K. Skylaris, A. A. Mostofi, P. D. Haynes, C. J. Pickard, |
 |   M. C. Payne.                                                |
 |   Comput. Phys. Commun. 140, pp.315-322 (2001).               |
 |                                                               |
 |  "Accurate ionic forces and geometry optimization in linear-  |
 |   scaling density-functional theory with local orbitals"      |
 |   N. D. M. Hine, M. Robinson, P. D. Haynes, C.-K. Skylaris,   |
 |   M. C. Payne, and A. A. Mostofi.                             |
 |   Phys. Rev. B 83 195102 (2011).                              |
 |                                                               |
 +---------------------------------------------------------------+

Job started: 19-07-2020 09:51 (+0100)
 
Reading parameters from file "host_19481.dat" ...... done

If your calculation crashes here, before "Checking processes and threads..."
is displayed, then your stack size is insufficient.
If so, use "ulimit -s unlimited" at runtime.
You can disable this check with "check_stack_size F".

Checking processes and threads...
   Determining the default number of threads...
      No default threads set at compilation time: defaulting to 1.
      OpenMP library call suggests 4 threads.
      Hybrid MPI-OpenMP compilation detected.
      Number of MPI processes > 1.
      OMP_NUM_THREADS environment variable present and
      its value matches the one obtained from the OpenMP library call.
      Using this value as default.
      Default threads: 4
      Default applies to threads_max and threads_num_fftboxes.
      Settings in the input file override this default.
   ... done

   Running with 40 MPI processes.
   There are 10 MPI processes running on the same node as the root process.
   Each MPI process is using: 
               1 threads for simulation cell FFTs.
               1 threads for parallel FFT box operations.
               4 threads for loops over batched FFT box operations.
               4 threads in other parallel regions.
... done

Basic input checks...... done

Reading geometry and species blocks from file "host_19481.dat" ...
  <species_atomic_set> block not found: NGWF initialisation set to SOLVE
IS: Dielectric excluded regions:
    - NONE.
    
  Number of PPD points along a3 set to 1.  This is 
  the default value, it may have been provided also in the input file.
... done
 Writing xyz coordinates to file "host_19481.xyz" ... done


--------------------------------------------------------------------------------
---------------------------------- INPUT FILE ----------------------------------
--------------------------------------------------------------------------------

cutoff_energy       : 800 eV                                                    
xc_functional PBE                                                               
task SINGLEPOINT                                                                
write_xyz true                                                                  
output_detail VERBOSE                                                           
ngwf_threshold_orig : 0.000002                                                  
kernel_cutoff       : 1000                                                      
k_zero              : 3.5                                                       
elec_cg_max 0                                                                   
occ_mix 1.0                                                                     
dispersion 1                                                                    
maxit_ngwf_cg 40                                                                
minit_lnv 10                                                                    
maxit_lnv 10                                                                    
write_denskern T                                                                
write_tightbox_ngwfs T                                                          
charge 9                                                                        
is_implicit_solvent T                                                           
is_auto_solvation T                                                             
is_include_apolar T                                                             
is_smeared_ion_rep T                                                            
is_solvent_surf_tension 4.7624E-5 Ha/bohr**2                                    
is_apolar_scaling_factor 0.281075                                               
is_solvation_beta 1.3                                                           
is_density_threshold 0.00035                                                    
is_bulk_permittivity 78.54                                                      
is_dielectric_model fix_initial                                                 
is_smeared_ion_width 0.8                                                        
mg_defco_fd_order 8                                                             
is_bc_coarseness 10                                                             
is_bc_surface_coarseness 1                                                      
fine_grid_scale 2.0                                                             
%block species                                                                  
N   N   7 4 8.0                                                                 
H   H   1 1 8.0                                                                 
C   C   6 4 8.0                                                                 
S   S  16 9 8.0                                                                 
O   O   8 4 8.0                                                                 
%endblock species                                                               
%block species_pot                                                              
N   N_00.recpot                                                                 
H   H_04.recpot                                                                 
C   C_01.recpot                                                                 
S   S_00.recpot                                                                 
O   O_02.recpot                                                                 
%endblock species_pot                                                           
%block lattice_cart                                                             
137.793   0.000   0.000                                                         
0.000 143.498   0.000                                                           
0.000   0.000   162.326                                                         
%endblock lattice_cart                                                          
%block positions_abs                                                            
     Hash =   000005596374913030090862
%endblock positions_abs                                                         

--------------------------------------------------------------------------------
-------------------------------- END INPUT FILE --------------------------------
--------------------------------------------------------------------------------


 
 ESDF WARNING(1): "kernelcutoff" (esdf_physical) has no units. Assume "bohr".
 ESDF WARNING(2): "kzero" (esdf_physical) has no units. Assume "1/bohr".
 ESDF WARNING(3
 ): "issmearedionwidth" (esdf_physical) has no units. Assume "bohr".
<<<<<<<<<<<<<<<<<<<<<<<<<<<<<<<<< Full system >>>>>>>>>>>>>>>>>>>>>>>>>>>>>>>>>>
<<<<<<<<<<<<<<<<<<<<<<<<< Pseudopotential information >>>>>>>>>>>>>>>>>>>>>>>>>>
File: N_00.recpot [ 2001 points up to Gmax=  52.9 (1/bohr)]
  Atomic number:  7;  ionic charge:  5.000000
    Shell 1: l = 0; rc = 1.48 bohr
File: H_04.recpot [ 2001 points up to Gmax=  52.9 (1/bohr)]
  Atomic number:  1;  ionic charge:  1.000000
    Local potential
File: C_01.recpot [ 2001 points up to Gmax=  52.9 (1/bohr)]
  Atomic number:  6;  ionic charge:  4.000000
    Shell 1: l = 0; rc = 1.48 bohr
File: S_00.recpot [ 2001 points up to Gmax=  52.9 (1/bohr)]
  Atomic number: 16;  ionic charge:  6.000000
    Shell 1: l = 0; rc = 1.90 bohr
    Shell 2: l = 2; rc = 1.84 bohr
File: O_02.recpot [ 2001 points up to Gmax=  52.9 (1/bohr)]
  Atomic number:  8;  ionic charge:  6.000000
    Shell 1: l = 0; rc = 1.31 bohr
<<<<<<<<<<<<<<<<<<<<<<<<<<<<<<<<<<<<<<<<>>>>>>>>>>>>>>>>>>>>>>>>>>>>>>>>>>>>>>>>

-------------------------- Atom counting information ---------------------------
Symbol    Natoms    Nngwfs    Nprojs
  N        236       944       236
  H       1311      1311         0
  C        810      3240       810
  S          6        54        36
  O        239       956       239
.......   ......    ......    ......
Totals:   2602      6505      1321
--------------------------------------------------------------------------------

=============================== PSINC grid sizes ===============================
                      Simulation cell:  273 x 286 x 320
                              FFT-box:   99 x  99 x  99
                                  PPD:    7 x  11 x   1
Grid space d1=  0.504736263736a0 (KE cutoff=  29.81776Eh = 811.38248eV)
Grid space d2=  0.501741258741a0 (KE cutoff=  30.17480Eh = 821.09803eV)
Grid space d3=  0.507268750000a0 (KE cutoff=  29.52078Eh = 803.30122eV)
================================================================================

********************* Fourier parallelisation information **********************
       Coarse grid (whole simulation cell) dimensions:    273   286   320
          Real-space ('12') slabs/node (min max mean):      8     8     8
         Recip-space ('23') slabs/node (min max mean):      3     4     3
********************************************************************************

********************* Fourier parallelisation information **********************
       Double grid (whole simulation cell) dimensions:    546   572   640
          Real-space ('12') slabs/node (min max mean):     16    16    16
         Recip-space ('23') slabs/node (min max mean):      6     7     6
********************************************************************************
ONETEP fine grid is 546 x 572 x 640 gridpoints, 137.7930 x 143.4980 x 162.3260 bohr.
FD multigrid is     545 x 569 x 633 gridpoints, 137.5406 x 142.7454 x 160.5506 bohr.


Calculating local pseudopotential in open BC on a radial grid ...
Discrepancy between calculated realspace psloc and -Z/x on [5a0,256.765a0]:
max |rel. diff| # avg |rel. diff| #  avg rel. diff #  f # pseudopotential file
 0.000264355666    0.000005356805   0.000000075547   55  'N_00.recpot'
 0.000427657517    0.000018087302  -0.000000066616   55  'H_04.recpot'
 0.000358839426    0.000016594043   0.000000139912   55  'C_01.recpot'
 0.000443229003    0.000019135969   0.000000483695   55  'S_00.recpot'
 0.000720897146    0.000029350350   0.000000143497   55  'O_02.recpot'
... done

Atom SCF Calculation for N  : Z (AE atom) =   7 : Z (PS atom) =   5
Config String:
Orbitals (num,occ):  2     2.00 3.00
Orbitals   (num,l):  2        0    1
Real-space Grid (nr,dr,rmax): 1203    0.0066555740    8.0000000000
Spherical Bessel Basis (nsws,lmax,cutoff):   47    1  176.3951722778
Confining potential (l,width,scale):  0    3.0000000000  100.0000000000
Confining potential (l,width,scale):  1    3.0000000000  100.0000000000
  1         -4.7312375307   -3.4155304497    7.0523828109   -1.9351020946
  2         -9.7309464766   -2.0532547791    8.2966052865   -2.2494486027
  3         -9.6627394379   -2.1124926340    8.2327997121   -2.2369778124
  4         -9.6814993499   -2.1215521045    8.2229805960   -2.2365178421
  5         -9.6843326483   -2.1250939529    8.2191374534   -2.2362718126
  6         -9.6859628709   -2.1267894855    8.2172963573   -2.2362066344
  7         -9.6867347035   -2.1276425665    8.2163697352   -2.2361903369
  8         -9.6870802100   -2.1280764625    8.2158983890   -2.2361891460
  9         -9.6872290423   -2.1282977424    8.2156580222   -2.2361920435
 10         -9.6872901988   -2.1284107021    8.2155353368   -2.2361953393
 11         -9.6873135296   -2.1284684031    8.2154726809   -2.2361979819
 12         -9.6873212476   -2.1284978948    8.2154406648   -2.2361998431
 13         -9.6873229586   -2.1285129774    8.2154242957   -2.2362010676
 14         -9.6873226456   -2.1285206957    8.2154159216   -2.2362018403
 15         -9.6873218534   -2.1285246479    8.2154116349   -2.2362023142
 16         -9.6873212599   -2.1285262679    8.2154098784   -2.2362025420
 17         -9.6873207834   -2.1285272564    8.2154088068   -2.2362026955
 18         -9.6873204210   -2.1285278597    8.2154081529   -2.2362027982
 19         -9.6873201550   -2.1285282280    8.2154077538   -2.2362028667
 20         -9.6873199645   -2.1285284529    8.2154075102   -2.2362029121
 21         -9.6873198305   -2.1285285903    8.2154073614   -2.2362029421
 22         -9.6873197377   -2.1285286742    8.2154072705   -2.2362029618
Atom SCF converged after  22 iterations to a total energy of     -9.68731974

Atom SCF Calculation for H  : Z (AE atom) =   1 : Z (PS atom) =   1
Config String:
Orbitals (num,occ):  1     1.00
Orbitals   (num,l):  1        0
Real-space Grid (nr,dr,rmax): 1203    0.0066555740    8.0000000000
Spherical Bessel Basis (nsws,lmax,cutoff):   47    0  176.3951722778
Confining potential (l,width,scale):  0    3.0000000000  100.0000000000
  1         -0.3194257691   -0.2393854593    0.2820953124   -0.2424203209
  2         -0.3951823392   -0.2377116493    0.2886404059   -0.2475147891
  3         -0.4317044583   -0.2352244387    0.2921333887   -0.2514046172
  4         -0.4470703708   -0.2341892222    0.2934391879   -0.2531009782
  5         -0.4532132900   -0.2338556667    0.2938388426   -0.2537313520
  6         -0.4556579251   -0.2337612552    0.2939448584   -0.2539550462
  7         -0.4566418315   -0.2337377355    0.2939680120   -0.2540342273
  8         -0.4570437922   -0.2337331116    0.2939708287   -0.2540627372
  9         -0.4572102946   -0.2337328328    0.2939698291   -0.2540732650
 10         -0.4572800424   -0.2337332404    0.2939687193   -0.2540772588
 11         -0.4573095100   -0.2337335791    0.2939680317   -0.2540788122
 12         -0.4573220379   -0.2337337762    0.2939676699   -0.2540794294
 13         -0.4573273880   -0.2337338775    0.2939674931   -0.2540796787
 14         -0.4573296803   -0.2337339266    0.2939674099   -0.2540797808
 15         -0.4573306647   -0.2337339495    0.2939673718   -0.2540798230
 16         -0.4573310882   -0.2337339601    0.2939673545   -0.2540798406
 17         -0.4573312706   -0.2337339649    0.2939673467   -0.2540798479
 18         -0.4573313493   -0.2337339670    0.2939673433   -0.2540798510
Atom SCF converged after  18 iterations to a total energy of     -0.45733135

Atom SCF Calculation for C  : Z (AE atom) =   6 : Z (PS atom) =   4
Config String:
Orbitals (num,occ):  2     2.00 2.00
Orbitals   (num,l):  2        0    1
Real-space Grid (nr,dr,rmax): 1203    0.0066555740    8.0000000000
Spherical Bessel Basis (nsws,lmax,cutoff):   47    1  176.3951722778
Confining potential (l,width,scale):  0    3.0000000000  100.0000000000
Confining potential (l,width,scale):  1    3.0000000000  100.0000000000
  1         -5.2976922011   -1.3069684169    4.5135249990   -1.4493313817
  2         -5.3721716256   -1.3429755895    4.4750154450   -1.4361613026
  3         -5.3809959565   -1.3617365618    4.4541655428   -1.4305930207
  4         -5.3918938866   -1.3667928461    4.4484735100   -1.4294652294
  5         -5.3956096428   -1.3688539142    4.4461376126   -1.4290734646
  6         -5.3968271862   -1.3696852393    4.4451910874   -1.4289366866
  7         -5.3972028401   -1.3700178062    4.4448112275   -1.4288900460
  8         -5.3973067903   -1.3701500158    4.4446598370   -1.4288749220
  9         -5.3973286940   -1.3702023868    4.4445997329   -1.4288704293
 10         -5.3973289850   -1.3702230869    4.4445759233   -1.4288693188
 11         -5.3973254264   -1.3702312560    4.4445665049   -1.4288691775
 12         -5.3973224003   -1.3702344755    4.4445627836   -1.4288692549
 13         -5.3973208708   -1.3702354890    4.4445616088   -1.4288693270
 14         -5.3973198783   -1.3702360102    4.4445610034   -1.4288693814
 15         -5.3973192535   -1.3702362780    4.4445606917   -1.4288694190
 16         -5.3973188684   -1.3702364155    4.4445605313   -1.4288694437
 17         -5.3973186349   -1.3702364860    4.4445604489   -1.4288694595
 18         -5.3973184951   -1.3702365221    4.4445604065   -1.4288694693
 19         -5.3973184122   -1.3702365405    4.4445603848   -1.4288694753
Atom SCF converged after  19 iterations to a total energy of     -5.39731841

Atom SCF Calculation for S  : Z (AE atom) =  16 : Z (PS atom) =   6
Config String:
Orbitals (num,occ):  3     2.00 4.00 0.00
Orbitals   (num,l):  3        0    1    2
Real-space Grid (nr,dr,rmax): 1203    0.0066555740    8.0000000000
Spherical Bessel Basis (nsws,lmax,cutoff):   47    2  176.3951722778
Confining potential (l,width,scale):  0    3.0000000000  100.0000000000
Confining potential (l,width,scale):  1    3.0000000000  100.0000000000
Confining potential (l,width,scale):  2    3.0000000000  100.0000000000
  1        -12.4735062396   -1.0328741412   10.1554312477   -2.4512393157
  2         -9.9458301913   -2.4607392455    8.3041325857   -2.0306994528
  3        -10.1450417646   -2.2931184565    8.4831893826   -2.0812538287
  4        -10.1528335592   -2.2733105793    8.5050388867   -2.0896035179
  5        -10.1571940363   -2.2633716629    8.5160794258   -2.0939370707
  6        -10.1594380571   -2.2584938667    8.5215163935   -2.0961289008
  7        -10.1605856507   -2.2561081821    8.5241804044   -2.0972291378
  8        -10.1611799191   -2.2549395235    8.5254868240   -2.0977806248
  9        -10.1614918752   -2.2543658586    8.5261285885   -2.0980571586
 10        -10.1616572884   -2.2540839121    8.5264441898   -2.0981959233
 11        -10.1617455602   -2.2539453058    8.5265994231   -2.0982656006
 12        -10.1617928447   -2.2538772062    8.5266757320   -2.0983006047
 13        -10.1618182292   -2.2538437891    8.5267131983   -2.0983181961
 14        -10.1618318741   -2.2538274201    8.5267315620   -2.0983270391
 15        -10.1618392144   -2.2538194197    8.5267405433   -2.0983314852
 16        -10.1618431651   -2.2538155200    8.5267449245   -2.0983337210
 17        -10.1618452923   -2.2538136252    8.5267470551   -2.0983348455
 18        -10.1618464380   -2.2538127080    8.5267480875   -2.0983354110
 19        -10.1618470552   -2.2538122659    8.5267485856   -2.0983356955
 20        -10.1618473878   -2.2538120540    8.5267488248   -2.0983358386
 21        -10.1618475670   -2.2538119530    8.5267489389   -2.0983359106
 22        -10.1618476637   -2.2538119053    8.5267489929   -2.0983359468
Atom SCF converged after  22 iterations to a total energy of    -10.16184766

Atom SCF Calculation for O  : Z (AE atom) =   8 : Z (PS atom) =   6
Config String:
Orbitals (num,occ):  2     2.00 4.00
Orbitals   (num,l):  2        0    1
Real-space Grid (nr,dr,rmax): 1203    0.0066555740    8.0000000000
Spherical Bessel Basis (nsws,lmax,cutoff):   47    1  176.3951722778
Confining potential (l,width,scale):  0    3.0000000000  100.0000000000
Confining potential (l,width,scale):  1    3.0000000000  100.0000000000
  1         -1.8735052164   -7.5539365035   10.1554312477   -2.4512393157
  2        -16.0318313751   -3.1285771268   13.6395848164   -3.2358799643
  3        -15.9524020423   -3.0762819706   13.6967272503   -3.2536856837
  4        -15.8521515939   -3.0781493909   13.6951909330   -3.2561700440
  5        -15.8357139793   -3.0748501933   13.6988803334   -3.2580493133
  6        -15.8246052853   -3.0740779781   13.6997881576   -3.2588327446
  7        -15.8189019501   -3.0737449687   13.7001869911   -3.2592378801
  8        -15.8159785510   -3.0736026016   13.7003615168   -3.2594475790
  9        -15.8144776168   -3.0735437994   13.7004360379   -3.2595560735
 10        -15.8137058024   -3.0735207882   13.7004667348   -3.2596122456
 11        -15.8133083127   -3.0735125946   13.7004786868   -3.2596413656
 12        -15.8131032938   -3.0735102195   13.7004828997   -3.2596564858
 13        -15.8129973902   -3.0735099286   13.7004840891   -3.2596643505
 14        -15.8129426040   -3.0735102506   13.7004842061   -3.2596684489
 15        -15.8129142203   -3.0735106556   13.7004840157   -3.2596705887
 16        -15.8128994940   -3.0735109855   13.7004837906   -3.2596717080
 17        -15.8128918425   -3.0735112169   13.7004836103   -3.2596722946
 18        -15.8128878614   -3.0735113674   13.7004834848   -3.2596726026
 19        -15.8128857871   -3.0735114608   13.7004834035   -3.2596727646
 20        -15.8128847048   -3.0735115170   13.7004833533   -3.2596728500
 21        -15.8128841394   -3.0735115501   13.7004833231   -3.2596728951
 22        -15.8128838436   -3.0735115693   13.7004833054   -3.2596729190
 23        -15.8128836887   -3.0735115802   13.7004832951   -3.2596729316
 24        -15.8128836074   -3.0735115864   13.7004832893   -3.2596729383
Atom SCF converged after  24 iterations to a total energy of    -15.81288361

========================== Calculation in vacuum ==============================
= Adjusting the following parameters: 
= is_implicit_solvent: F
= is_include_apolar: F
= write_denskern: T
= write_tightbox_ngwfs: T
= restart read filename prefix: ""
= restart write filename prefix: "vacuum_"
===============================================================================

Determining parallel strategy ...
... using space-filling curve
... NGWF load balancing: max    163;  min    162;  average    163
... Projector load balancing: max     36;  min     32;  average     33
... done
Calculating direct Ion-Ion energy ...
Ion-Ion Energy        :    827423.02346872305498
======================= Empirical dispersion information =======================
Model : Elstner
Dispersion Correction Energy: -0.32611423E+01 Hartree
================================================================================
Basis initialisation ...... NGWF spheres initialised
... Projector spheres initialised
... NGWF tight boxes initialised
... Tight-boxes gathered
... NGWF basis size (local,global):    1109945  44352403
... Nonlocal pseudopotential projector initialisation
... done

========================== Sparse matrix information ===========================
                        Overlap matrix filling:   6.75%
                        Density kernel filling: 100.00%
              NGWF-Proj overlap matrix filling:   1.78%
                    Hamiltonian matrix filling:   7.61%
                  NGWF diagonal matrix filling:   0.05%
                             KS matrix filling: 100.00% 
                           KSKS matrix filling: 100.00% 
================================================================================

Sparse matrix initialisation ... done

Generating smeared ion density ... done
Smeared ion self correction:     -14457.169564
Smeared ion non-self correction: -827375.102155
NGWF initialisation ...... done
============ Calculation of NGWF S^-1 using Hotelling algorithm ================ 
         Iteration  |  Frobenius norm and Maximum abs value    (of I-S*S_n^-1)   
               1       0.78698008E+02     0.98453136E+00
               2       0.77005295E+02     0.96939649E+00
               3       0.74212999E+02     0.94008378E+00
               4       0.70150863E+02     0.88500959E+00
               5       0.64989912E+02     0.78886721E+00
               6       0.59096976E+02     0.71089602E+00
               7       0.53050357E+02     0.67561710E+00
               8       0.47446886E+02     0.65240523E+00
               9       0.41597438E+02     0.61845854E+00
              10       0.33765763E+02     0.55911381E+00
              11       0.23489281E+02     0.46033604E+00
              12       0.12679292E+02     0.31797354E+00
              13       0.45835435E+01     0.15876235E+00
              14       0.85750987E+00     0.46639195E-01
              15       0.55932662E-01     0.57219319E-02
              16       0.55841982E-03     0.95180681E-04
              17       0.10447885E-06     0.27472064E-07
              18       0.11332852E-12     0.59952043E-14
================================================================================
Calculating local pseudopotential in open BC on the fine real space grid ...
... done

MG BCs: +ve charge blocks (gridpoints):     20300 (   15921881).
MG BCs: -ve charge blocks (gridpoints):      7990 (    1077367).
MG BCs:     Elided blocks (gridpoints):    180340 (  179297217).
MG BCs: Computational effort saved:  99.9856%.
MG BCs: Charge after coarse-graining:           -9.0002246.
MG DL_MG: Calling solver with defect correction order = 8
MG DL_MG: Solver finished
MG Hartree energy from (\int phi*rho dr):              1461.822802
MG Hartree energy from (\int eps (grad phi)^2 dr):     1461.208223
MG Discrepancy due to finite box and discretization:     -0.614579 (  -0.04204%)
MG Correction to account for finite box:                  0.462193
MG Remaining discrepancy, due to discretization:         -0.152386 (  -0.01042%)
Up spin density kernel initialisation ... 
======= Optimisation of K by Palser-Manolopoulos canonical purification ======== 
         Iteration  |  Band structure energy |    c_n   
               1       -2577.96968256822583    0.5274459
               2       -2753.78965986310686    0.5174038
               3       -2934.56147097403118    0.5154133
               4       -3086.24323093931662    0.5285162
               5       -3180.16262279543434    0.5636614
               6       -3219.74739079293522    0.6083192
               7       -3233.19746603408475    0.6192527
               8       -3239.01245992100621    0.6135404
               9       -3241.86364179659813    0.6222162
              10       -3243.04079221595703    0.6449380
              11       -3243.47735521016330    0.6669737
              12       -3243.65076830962244    0.6735044
              13       -3243.73072271136243    0.6314712
              14       -3243.77930733859603    0.5506968
              15       -3243.80897227122023    0.4394322
              16       -3243.81729110615333    0.3628305
              17       -3243.81824175226575    0.3870371
              18       -3243.81894003341404    0.4344719
              19       -3243.81952342696968    0.4756350
              20       -3243.81983001375784    0.4962666
              21       -3243.81989173476359    0.4999071
              22       -3243.81989378439175    0.5000064
              23       -3243.81989378659046    0.5000064
Termination criterion satisfied: band energy change below threshold.
Final occupancy bounds: [    0.00000000000000:    1.00000000000000]
Closest occupancy to 0.5:     1.00000000000000
================================================================================
... done

Writing density kernel to file "host_19481.vacuum_dkn" ... done

>>> Optimising kernel for current NGWFs:
   Initial electron number for spin 1:    7192.00000000
     Final electron number for spin 1:    7192.00000000

=================== Penalty functional idempotency correction ==================
 RMS occupancy error at iteration   1:  0.000000 (step -0.5000 Ne1=   7192.0000)
            Final RMS occupancy error   :  0.000000 (Ne1=   7192.0000)
               Final occupancy bounds   : [  0.0000,  1.0000]
================================================================================

................................................................................
<<<<<<<<<<<<<< LNV (Original version) density kernel optimisation >>>>>>>>>>>>>>
~~~~~~~~~~~~~~~~~~~~~~~~~~~~~~~~~~~~~~~~~~~~~~~~~~~~~~~~~~~~~~~~~~~~~~~~~~~~~~~~
   iter  |      energy (Eh)       | rms gradient |  commutator  |   dE (Eh)
MG BCs: +ve charge blocks (gridpoints):     30657 (   17041008).
MG BCs: -ve charge blocks (gridpoints):      8320 (    1110274).
MG BCs:     Elided blocks (gridpoints):    169971 (  178145183).
MG BCs: Computational effort saved:  99.9801%.
MG BCs: Charge after coarse-graining:           -9.0009425.
MG DL_MG: Calling solver with defect correction order = 8
MG DL_MG: Solver finished
MG Hartree energy from (\int phi*rho dr):              1416.809407
MG Hartree energy from (\int eps (grad phi)^2 dr):     1416.133575
MG Discrepancy due to finite box and discretization:     -0.675832 (  -0.04770%)
MG Correction to account for finite box:                  0.480755
MG Remaining discrepancy, due to discretization:         -0.195077 (  -0.01377%)
      ideal mu1:      -0.696288569696
             Q0:  -11506.111890494591
             G0:    -146.063409947282
   RMS gradient:       0.001857904629
MG BCs: +ve charge blocks (gridpoints):     30633 (   17126617).
MG BCs: -ve charge blocks (gridpoints):      8215 (    1089819).
MG BCs:     Elided blocks (gridpoints):    169996 (  178080029).
MG BCs: Computational effort saved:  99.9802%.
MG BCs: Charge after coarse-graining:           -9.0009628.
MG DL_MG: Calling solver with defect correction order = 8
MG DL_MG: Solver finished
MG Hartree energy from (\int phi*rho dr):              1441.404973
MG Hartree energy from (\int eps (grad phi)^2 dr):     1440.747377
MG Discrepancy due to finite box and discretization:     -0.657596 (  -0.04562%)
MG Correction to account for finite box:                  0.478344
MG Remaining discrepancy, due to discretization:         -0.179253 (  -0.01244%)
     Trial step:       0.500000000000
             Q1:  -11517.821016929578
 Quadratic coef:      61.322578538653
 Linear coef   :     -73.031704973641
           Qmin:  -11527.856042723915
Quadratic minimum step length (  0.297735788000) accepted
    Initial Ne1:    7192.00000000
      Final Ne1:    7192.00000000

=================== Penalty functional idempotency correction ==================
 RMS occupancy error at iteration   1:  0.003451 (step -0.4883 Ne1=   7192.0000)
 RMS occupancy error at iteration   2:  0.000027 (step -0.5001 Ne1=   7192.0000)
            Final RMS occupancy error   :  0.000000 (Ne1=   7192.0000)
               Final occupancy bounds   : [  0.0000,  1.0000]
================================================================================

    1        -1.150611189049E+04     1.8579E-03     1.6804E-03
MG BCs: +ve charge blocks (gridpoints):     30648 (   17093705).
MG BCs: -ve charge blocks (gridpoints):      8264 (    1098254).
MG BCs:     Elided blocks (gridpoints):    169981 (  178104506).
MG BCs: Computational effort saved:  99.9802%.
MG BCs: Charge after coarse-graining:           -9.0009546.
MG DL_MG: Calling solver with defect correction order = 8
MG DL_MG: Solver finished
MG Hartree energy from (\int phi*rho dr):              1423.465728
MG Hartree energy from (\int eps (grad phi)^2 dr):     1422.801712
MG Discrepancy due to finite box and discretization:     -0.664016 (  -0.04665%)
MG Correction to account for finite box:                  0.479199
MG Remaining discrepancy, due to discretization:         -0.184817 (  -0.01298%)
      ideal mu1:      -0.742626976353
             Q0:  -11528.265265778173
             G0:     -12.290547774848
   RMS gradient:       0.000535292345
MG BCs: +ve charge blocks (gridpoints):     30643 (   17111610).
MG BCs: -ve charge blocks (gridpoints):      8236 (    1093066).
MG BCs:     Elided blocks (gridpoints):    169985 (  178091789).
MG BCs: Computational effort saved:  99.9802%.
MG BCs: Charge after coarse-graining:           -9.0009583.
MG DL_MG: Calling solver with defect correction order = 8
MG DL_MG: Solver finished
MG Hartree energy from (\int phi*rho dr):              1428.580337
MG Hartree energy from (\int eps (grad phi)^2 dr):     1427.921014
MG Discrepancy due to finite box and discretization:     -0.659323 (  -0.04615%)
MG Correction to account for finite box:                  0.477694
MG Remaining discrepancy, due to discretization:         -0.181629 (  -0.01271%)
     Trial step:       0.385834023902
             Q1:  -11531.143970969249
 Quadratic coef:       1.863406312848
 Linear coef   :      -4.742111503924
           Qmin:  -11531.282270357447
Quadratic minimum step length (  0.490947130192) accepted
    Initial Ne1:    7191.99989767
      Final Ne1:    7192.00000000

=================== Penalty functional idempotency correction ==================
 RMS occupancy error at iteration   1:  0.001824 (step -0.4931 Ne1=   7192.0000)
 RMS occupancy error at iteration   2:  0.000011 (step -0.5001 Ne1=   7192.0000)
            Final RMS occupancy error   :  0.000000 (Ne1=   7192.0000)
               Final occupancy bounds   : [  0.0000,  1.0000]
================================================================================

    2        -1.152826526578E+04     5.3529E-04     4.8416E-04    -2.2153E+01
MG BCs: +ve charge blocks (gridpoints):     30632 (   17116584).
MG BCs: -ve charge blocks (gridpoints):      8230 (    1091626).
MG BCs:     Elided blocks (gridpoints):    169996 (  178088255).
MG BCs: Computational effort saved:  99.9802%.
MG BCs: Charge after coarse-graining:           -9.0009593.
MG DL_MG: Calling solver with defect correction order = 8
MG DL_MG: Solver finished
MG Hartree energy from (\int phi*rho dr):              1430.024798
MG Hartree energy from (\int eps (grad phi)^2 dr):     1429.366672
MG Discrepancy due to finite box and discretization:     -0.658126 (  -0.04602%)
MG Correction to account for finite box:                  0.477303
MG Remaining discrepancy, due to discretization:         -0.180823 (  -0.01264%)
      ideal mu1:      -0.768296729757
             Q0:  -11531.319751151255
             G0:      -1.955351155945
   RMS gradient:       0.000213613603
MG BCs: +ve charge blocks (gridpoints):     30639 (   17116181).
MG BCs: -ve charge blocks (gridpoints):      8231 (    1092647).
MG BCs:     Elided blocks (gridpoints):    169989 (  178087637).
MG BCs: Computational effort saved:  99.9802%.
MG BCs: Charge after coarse-graining:           -9.0009593.
MG DL_MG: Calling solver with defect correction order = 8
MG DL_MG: Solver finished
MG Hartree energy from (\int phi*rho dr):              1427.895262
MG Hartree energy from (\int eps (grad phi)^2 dr):     1427.237881
MG Discrepancy due to finite box and discretization:     -0.657381 (  -0.04604%)
MG Correction to account for finite box:                  0.476745
MG Remaining discrepancy, due to discretization:         -0.180637 (  -0.01265%)
     Trial step:       0.435228798180
             Q1:  -11531.820512344013
 Quadratic coef:       0.350263940863
 Linear coef   :      -0.851025133621
           Qmin:  -11531.836678312147
Quadratic minimum step length (  0.528730769735) accepted
    Initial Ne1:    7191.99994391
      Final Ne1:    7192.00000000

=================== Penalty functional idempotency correction ==================
 RMS occupancy error at iteration   1:  0.000648 (step -0.4969 Ne1=   7192.0000)
 RMS occupancy error at iteration   2:  0.000003 (step -0.5000 Ne1=   7192.0000)
            Final RMS occupancy error   :  0.000000 (Ne1=   7192.0000)
               Final occupancy bounds   : [  0.0000,  1.0000]
================================================================================

    3        -1.153131975115E+04     2.1361E-04     1.9321E-04    -3.0545E+00
MG BCs: +ve charge blocks (gridpoints):     30641 (   17116047).
MG BCs: -ve charge blocks (gridpoints):      8230 (    1092855).
MG BCs:     Elided blocks (gridpoints):    169987 (  178087563).
MG BCs: Computational effort saved:  99.9802%.
MG BCs: Charge after coarse-graining:           -9.0009593.
MG DL_MG: Calling solver with defect correction order = 8
MG DL_MG: Solver finished
MG Hartree energy from (\int phi*rho dr):              1427.447324
MG Hartree energy from (\int eps (grad phi)^2 dr):     1426.790091
MG Discrepancy due to finite box and discretization:     -0.657233 (  -0.04604%)
MG Correction to account for finite box:                  0.476626
MG Remaining discrepancy, due to discretization:         -0.180607 (  -0.01265%)
      ideal mu1:      -0.769329842465
             Q0:  -11531.841576840263
             G0:      -0.515147561651
   RMS gradient:       0.000109758539
MG BCs: +ve charge blocks (gridpoints):     30638 (   17117095).
MG BCs: -ve charge blocks (gridpoints):      8236 (    1092566).
MG BCs:     Elided blocks (gridpoints):    169990 (  178086804).
MG BCs: Computational effort saved:  99.9802%.
MG BCs: Charge after coarse-graining:           -9.0009594.
MG DL_MG: Calling solver with defect correction order = 8
MG DL_MG: Solver finished
MG Hartree energy from (\int phi*rho dr):              1428.665247
MG Hartree energy from (\int eps (grad phi)^2 dr):     1428.008140
MG Discrepancy due to finite box and discretization:     -0.657107 (  -0.04599%)
MG Correction to account for finite box:                  0.476400
MG Remaining discrepancy, due to discretization:         -0.180707 (  -0.01265%)
     Trial step:       0.479707053807
             Q1:  -11531.968659380917
 Quadratic coef:       0.120037378421
 Linear coef   :      -0.247119919076
           Qmin:  -11531.968762753533
Quadratic minimum step length (  0.493784393978) accepted
    Initial Ne1:    7191.99998630
      Final Ne1:    7192.00000000

=================== Penalty functional idempotency correction ==================
 RMS occupancy error at iteration   1:  0.000288 (step -0.4955 Ne1=   7192.0000)
 RMS occupancy error at iteration   2:  0.000003 (step -0.5000 Ne1=   7192.0000)
            Final RMS occupancy error   :  0.000000 (Ne1=   7192.0000)
               Final occupancy bounds   : [  0.0000,  1.0000]
================================================================================

    4        -1.153184157684E+04     1.0976E-04     9.9274E-05    -5.2183E-01
MG BCs: +ve charge blocks (gridpoints):     30638 (   17117096).
MG BCs: -ve charge blocks (gridpoints):      8236 (    1092569).
MG BCs:     Elided blocks (gridpoints):    169990 (  178086800).
MG BCs: Computational effort saved:  99.9802%.
MG BCs: Charge after coarse-graining:           -9.0009594.
MG DL_MG: Calling solver with defect correction order = 8
MG DL_MG: Solver finished
MG Hartree energy from (\int phi*rho dr):              1428.701549
MG Hartree energy from (\int eps (grad phi)^2 dr):     1428.044445
MG Discrepancy due to finite box and discretization:     -0.657104 (  -0.04599%)
MG Correction to account for finite box:                  0.476394
MG Remaining discrepancy, due to discretization:         -0.180710 (  -0.01265%)
      ideal mu1:      -0.769473578888
             Q0:  -11531.969406423392
             G0:      -0.182518043530
   RMS gradient:       0.000065519522
MG BCs: +ve charge blocks (gridpoints):     30643 (   17117386).
MG BCs: -ve charge blocks (gridpoints):      8236 (    1092329).
MG BCs:     Elided blocks (gridpoints):    169985 (  178086750).
MG BCs: Computational effort saved:  99.9802%.
MG BCs: Charge after coarse-graining:           -9.0009592.
MG DL_MG: Calling solver with defect correction order = 8
MG DL_MG: Solver finished
MG Hartree energy from (\int phi*rho dr):              1429.140709
MG Hartree energy from (\int eps (grad phi)^2 dr):     1428.483555
MG Discrepancy due to finite box and discretization:     -0.657154 (  -0.04598%)
MG Correction to account for finite box:                  0.476277
MG Remaining discrepancy, due to discretization:         -0.180877 (  -0.01266%)
     Trial step:       0.486694829283
             Q1:  -11532.026573527837
 Quadratic coef:       0.031663483593
 Linear coef   :      -0.088830588037
           Qmin:  -11532.031709054654
Quadratic minimum step length (  0.682701064041) accepted
    Initial Ne1:    7191.99999319
      Final Ne1:    7192.00000000

=================== Penalty functional idempotency correction ==================
 RMS occupancy error at iteration   1:  0.000416 (step -0.4759 Ne1=   7192.0000)
 RMS occupancy error at iteration   2:  0.000009 (step -0.5000 Ne1=   7192.0000)
            Final RMS occupancy error   :  0.000000 (Ne1=   7192.0000)
               Final occupancy bounds   : [  0.0000,  1.0000]
================================================================================

    5        -1.153196940642E+04     6.5520E-05     5.9261E-05    -1.2783E-01
MG BCs: +ve charge blocks (gridpoints):     30643 (   17117439).
MG BCs: -ve charge blocks (gridpoints):      8235 (    1092266).
MG BCs:     Elided blocks (gridpoints):    169985 (  178086760).
MG BCs: Computational effort saved:  99.9802%.
MG BCs: Charge after coarse-graining:           -9.0009592.
MG DL_MG: Calling solver with defect correction order = 8
MG DL_MG: Solver finished
MG Hartree energy from (\int phi*rho dr):              1429.316437
MG Hartree energy from (\int eps (grad phi)^2 dr):     1428.659264
MG Discrepancy due to finite box and discretization:     -0.657172 (  -0.04598%)
MG Correction to account for finite box:                  0.476228
MG Remaining discrepancy, due to discretization:         -0.180944 (  -0.01266%)
      ideal mu1:      -0.769608214935
             Q0:  -11532.031373732723
             G0:      -0.154563636895
   RMS gradient:       0.000060657719
MG BCs: +ve charge blocks (gridpoints):     30645 (   17116636).
MG BCs: -ve charge blocks (gridpoints):      8235 (    1092704).
MG BCs:     Elided blocks (gridpoints):    169983 (  178087125).
MG BCs: Computational effort saved:  99.9802%.
MG BCs: Charge after coarse-graining:           -9.0009590.
MG DL_MG: Calling solver with defect correction order = 8
MG DL_MG: Solver finished
MG Hartree energy from (\int phi*rho dr):              1428.063036
MG Hartree energy from (\int eps (grad phi)^2 dr):     1427.406035
MG Discrepancy due to finite box and discretization:     -0.657001 (  -0.04601%)
MG Correction to account for finite box:                  0.476067
MG Remaining discrepancy, due to discretization:         -0.180934 (  -0.01267%)
     Trial step:       0.576426125201
             Q1:  -11532.099736121134
 Quadratic coef:       0.020732129902
 Linear coef   :      -0.089094518313
           Qmin:  -11532.127092711318
Quadratic minimum step length (  1.238570475152) accepted
    Initial Ne1:    7191.99996302
      Final Ne1:    7192.00000000

=================== Penalty functional idempotency correction ==================
 RMS occupancy error at iteration   1:  0.003247 (step -0.3411 Ne1=   7192.0000)
 RMS occupancy error at iteration   2:  0.000239 (step -0.4896 Ne1=   7192.0000)
 RMS occupancy error at iteration   3:  0.000004 (step -0.5000 Ne1=   7192.0000)
            Final RMS occupancy error   :  0.000000 (Ne1=   7192.0000)
               Final occupancy bounds   : [  0.0000,  1.0000]
================================================================================

    6        -1.153203137373E+04     6.0658E-05     5.4864E-05    -6.1967E-02
MG BCs: +ve charge blocks (gridpoints):     30647 (   17115733).
MG BCs: -ve charge blocks (gridpoints):      8235 (    1093251).
MG BCs:     Elided blocks (gridpoints):    169981 (  178087481).
MG BCs: Computational effort saved:  99.9802%.
MG BCs: Charge after coarse-graining:           -9.0009588.
MG DL_MG: Calling solver with defect correction order = 8
MG DL_MG: Solver finished
MG Hartree energy from (\int phi*rho dr):              1426.627884
MG Hartree energy from (\int eps (grad phi)^2 dr):     1425.971069
MG Discrepancy due to finite box and discretization:     -0.656814 (  -0.04604%)
MG Correction to account for finite box:                  0.475893
MG Remaining discrepancy, due to discretization:         -0.180921 (  -0.01268%)
      ideal mu1:      -0.769478589008
             Q0:  -11532.111353706918
             G0:      -0.304466741571
   RMS gradient:       0.000084824758
MG BCs: +ve charge blocks (gridpoints):     30643 (   17118466).
MG BCs: -ve charge blocks (gridpoints):      8231 (    1091780).
MG BCs:     Elided blocks (gridpoints):    169985 (  178086219).
MG BCs: Computational effort saved:  99.9802%.
MG BCs: Charge after coarse-graining:           -9.0009596.
MG DL_MG: Calling solver with defect correction order = 8
MG DL_MG: Solver finished
MG Hartree energy from (\int phi*rho dr):              1430.209511
MG Hartree energy from (\int eps (grad phi)^2 dr):     1429.552991
MG Discrepancy due to finite box and discretization:     -0.656520 (  -0.04590%)
MG Correction to account for finite box:                  0.475753
MG Remaining discrepancy, due to discretization:         -0.180767 (  -0.01264%)
     Trial step:       0.844952294382
             Q1:  -11532.191168776597
 Quadratic coef:       0.177444802175
 Linear coef   :      -0.257259871854
           Qmin:  -11532.204597691603
Quadratic minimum step length (  0.612506864981) accepted
    Initial Ne1:    7191.99999861
      Final Ne1:    7192.00000000

=================== Penalty functional idempotency correction ==================
 RMS occupancy error at iteration   1:  0.000159 (step -0.4906 Ne1=   7192.0000)
 RMS occupancy error at iteration   2:  0.000001 (step -0.5000 Ne1=   7192.0000)
            Final RMS occupancy error   :  0.000000 (Ne1=   7192.0000)
               Final occupancy bounds   : [  0.0000,  1.0000]
================================================================================

    7        -1.153211135371E+04     8.4825E-05     7.6722E-05    -7.9980E-02
MG BCs: +ve charge blocks (gridpoints):     30644 (   17117761).
MG BCs: -ve charge blocks (gridpoints):      8233 (    1092159).
MG BCs:     Elided blocks (gridpoints):    169984 (  178086545).
MG BCs: Computational effort saved:  99.9802%.
MG BCs: Charge after coarse-graining:           -9.0009593.
MG DL_MG: Calling solver with defect correction order = 8
MG DL_MG: Solver finished
MG Hartree energy from (\int phi*rho dr):              1429.219525
MG Hartree energy from (\int eps (grad phi)^2 dr):     1428.562925
MG Discrepancy due to finite box and discretization:     -0.656600 (  -0.04594%)
MG Correction to account for finite box:                  0.475792
MG Remaining discrepancy, due to discretization:         -0.180808 (  -0.01265%)
      ideal mu1:      -0.770681091544
             Q0:  -11532.204784323461
             G0:      -0.222293438376
   RMS gradient:       0.000072418078
MG BCs: +ve charge blocks (gridpoints):     30634 (   17117770).
MG BCs: -ve charge blocks (gridpoints):      8230 (    1092135).
MG BCs:     Elided blocks (gridpoints):    169994 (  178086560).
MG BCs: Computational effort saved:  99.9802%.
MG BCs: Charge after coarse-graining:           -9.0009595.
MG DL_MG: Calling solver with defect correction order = 8
MG DL_MG: Solver finished
MG Hartree energy from (\int phi*rho dr):              1429.118566
MG Hartree energy from (\int eps (grad phi)^2 dr):     1428.462172
MG Discrepancy due to finite box and discretization:     -0.656394 (  -0.04593%)
MG Correction to account for finite box:                  0.475767
MG Remaining discrepancy, due to discretization:         -0.180627 (  -0.01264%)
     Trial step:       0.719401891081
             Q1:  -11532.304552930058
 Quadratic coef:       0.060149713347
 Linear coef   :      -0.159918319942
           Qmin:  -11532.311076887592
Quadratic minimum step length (  0.956326600611) accepted
    Initial Ne1:    7191.99999832
      Final Ne1:    7192.00000000

=================== Penalty functional idempotency correction ==================
 RMS occupancy error at iteration   1:  0.001608 (step -0.4190 Ne1=   7192.0000)
 RMS occupancy error at iteration   2:  0.000036 (step -0.4996 Ne1=   7192.0000)
            Final RMS occupancy error   :  0.000000 (Ne1=   7192.0000)
               Final occupancy bounds   : [ -0.0000,  1.0000]
================================================================================

    8        -1.153220478432E+04     7.2418E-05     6.5501E-05    -9.3431E-02
MG BCs: +ve charge blocks (gridpoints):     30636 (   17117866).
MG BCs: -ve charge blocks (gridpoints):      8227 (    1092116).
MG BCs:     Elided blocks (gridpoints):    169992 (  178086483).
MG BCs: Computational effort saved:  99.9802%.
MG BCs: Charge after coarse-graining:           -9.0009595.
MG DL_MG: Calling solver with defect correction order = 8
MG DL_MG: Solver finished
MG Hartree energy from (\int phi*rho dr):              1429.089689
MG Hartree energy from (\int eps (grad phi)^2 dr):     1428.433360
MG Discrepancy due to finite box and discretization:     -0.656329 (  -0.04593%)
MG Correction to account for finite box:                  0.475761
MG Remaining discrepancy, due to discretization:         -0.180568 (  -0.01264%)
      ideal mu1:      -0.770108195885
             Q0:  -11532.307416735683
             G0:      -0.275874585814
   RMS gradient:       0.000082125737
MG BCs: +ve charge blocks (gridpoints):     30637 (   17116872).
MG BCs: -ve charge blocks (gridpoints):      8231 (    1092782).
MG BCs:     Elided blocks (gridpoints):    169991 (  178086811).
MG BCs: Computational effort saved:  99.9802%.
MG BCs: Charge after coarse-graining:           -9.0009592.
MG DL_MG: Calling solver with defect correction order = 8
MG DL_MG: Solver finished
MG Hartree energy from (\int phi*rho dr):              1427.351143
MG Hartree energy from (\int eps (grad phi)^2 dr):     1426.694938
MG Discrepancy due to finite box and discretization:     -0.656205 (  -0.04597%)
MG Correction to account for finite box:                  0.475750
MG Remaining discrepancy, due to discretization:         -0.180455 (  -0.01264%)
     Trial step:       0.829447505856
             Q1:  -11532.382197670988
 Quadratic coef:       0.154042551827
 Linear coef   :      -0.228823487132
           Qmin:  -11532.392393561311
Quadratic minimum step length (  0.616054033227) accepted
    Initial Ne1:    7192.00014864
      Final Ne1:    7192.00000000

=================== Penalty functional idempotency correction ==================
 RMS occupancy error at iteration   1:  0.003739 (step -0.3486 Ne1=   7192.0000)
 RMS occupancy error at iteration   2:  0.000094 (step -0.4989 Ne1=   7192.0000)
 RMS occupancy error at iteration   3:  0.000001 (step -0.5000 Ne1=   7192.0000)
            Final RMS occupancy error   :  0.000000 (Ne1=   7192.0000)
               Final occupancy bounds   : [  0.0000,  1.0000]
================================================================================

    9        -1.153230741674E+04     8.2126E-05     7.4281E-05    -1.0263E-01
MG BCs: +ve charge blocks (gridpoints):     30636 (   17117115).
MG BCs: -ve charge blocks (gridpoints):      8231 (    1092576).
MG BCs:     Elided blocks (gridpoints):    169992 (  178086774).
MG BCs: Computational effort saved:  99.9802%.
MG BCs: Charge after coarse-graining:           -9.0009593.
MG DL_MG: Calling solver with defect correction order = 8
MG DL_MG: Solver finished
MG Hartree energy from (\int phi*rho dr):              1427.791941
MG Hartree energy from (\int eps (grad phi)^2 dr):     1427.135724
MG Discrepancy due to finite box and discretization:     -0.656218 (  -0.04596%)
MG Correction to account for finite box:                  0.475739
MG Remaining discrepancy, due to discretization:         -0.180479 (  -0.01264%)
      ideal mu1:      -0.769456222473
   10        -1.153239822047E+04     6.7222E-05     6.0800E-05    -9.0804E-02
Finished density kernel iterations (  10)

Writing density kernel to file "host_19481.vacuum_dkn" ... done


>>> Density kernel optimised for the current NGWF basis:
     ~~~~~~~~~~~~~~~~~~~~~~~~~~~~~~~~~~~~~~~~~~~~~~~~~~~~~~~~~~~
     Total energy                =  -1.15323982204748E+04  Eh
     Estimated bandgap           =  -4.9551E-01  Eh
     RMS occupancy error         =   2.9533E-11
     [H,K] commutator            =   6.0800E-05
     Occupancy bounds            = [  0.000:  1.000]
     ~~~~~~~~~~~~~~~~~~~~~~~~~~~~~~~~~~~~~~~~~~~~~~~~~~~~~~~~~~~




################################################################################
########################### NGWF CG iteration  001 #############################
################################################################################
****** Reciprocal space K.E. preconditioning with k_zero =  3.5000 a0^-1 *******

>>> Checking for convergence of NGWFs:   NOT CONVERGED
  ========================================================================
         NGWF RMS gradient =  1.5933E-03 >  2.0000E-06  | above tolerance
  ========================================================================

>>> Improving NGWFs using line search:
============ Calculation of NGWF S^-1 using Hotelling algorithm ================ 
         Iteration  |  Frobenius norm and Maximum abs value    (of I-S*S_n^-1)   
               1       0.19661369E+00     0.51713605E-02
               2       0.89390132E-03     0.37653500E-04
               3       0.31407769E-07     0.20922871E-08
               4       0.12890434E-12     0.57731597E-14
================================================================================
MG BCs: +ve charge blocks (gridpoints):     30107 (   17067658).
MG BCs: -ve charge blocks (gridpoints):      8254 (    1092702).
MG BCs:     Elided blocks (gridpoints):    170522 (  178136105).
MG BCs: Computational effort saved:  99.9805%.
MG BCs: Charge after coarse-graining:           -9.0009588.
MG DL_MG: Calling solver with defect correction order = 8
MG DL_MG: Solver finished
MG Hartree energy from (\int phi*rho dr):              1396.158075
MG Hartree energy from (\int eps (grad phi)^2 dr):     1395.502719
MG Discrepancy due to finite box and discretization:     -0.655356 (  -0.04694%)
MG Correction to account for finite box:                  0.475586
MG Remaining discrepancy, due to discretization:         -0.179770 (  -0.01288%)
============ Calculation of NGWF S^-1 using Hotelling algorithm ================ 
         Iteration  |  Frobenius norm and Maximum abs value    (of I-S*S_n^-1)   
               1       0.18404141E+01     0.39926721E-01
               2       0.70190238E-01     0.21158718E-02
               3       0.13718170E-03     0.69750120E-05
               4       0.91913764E-09     0.93720809E-10
               5       0.10951010E-12     0.59952043E-14
================================================================================
------------------------------- NGWF line search -------------------------------
RMS gradient                =       0.00159331520121
Trial step length           =               0.122474
Gradient along search dir.  =       -275.69369745338
Functional at step 0        =  -11532.39822047483176
Functional at step 1        =  -11563.58044003637042
Functional predicted        =  -11642.73562627850879
Selected quadratic step     =               0.800435
--------------------------- NGWF line search finished --------------------------
                                               
Writing NGWFs to file "host_19481.vacuum_tightbox_ngwfs"....  done

>>> Optimising kernel for current NGWFs:
   Initial electron number for spin 1:    7226.32232330
     Final electron number for spin 1:    7192.00000000

=================== Penalty functional idempotency correction ==================
 RMS occupancy error at iteration   1:  0.004269 (step -0.4858 Ne1=   7192.0000)
 RMS occupancy error at iteration   2:  0.000072 (step -0.5003 Ne1=   7192.0000)
            Final RMS occupancy error   :  0.000000 (Ne1=   7192.0000)
               Final occupancy bounds   : [  0.0000,  1.0000]
================================================================================

................................................................................
<<<<<<<<<<<<<< LNV (Original version) density kernel optimisation >>>>>>>>>>>>>>
~~~~~~~~~~~~~~~~~~~~~~~~~~~~~~~~~~~~~~~~~~~~~~~~~~~~~~~~~~~~~~~~~~~~~~~~~~~~~~~~
   iter  |      energy (Eh)       | rms gradient |  commutator  |   dE (Eh)
MG BCs: +ve charge blocks (gridpoints):     24486 (   16792206).
MG BCs: -ve charge blocks (gridpoints):      8392 (    1076820).
MG BCs:     Elided blocks (gridpoints):    176154 (  178427439).
MG BCs: Computational effort saved:  99.9833%.
MG BCs: Charge after coarse-graining:           -9.0006625.
MG DL_MG: Calling solver with defect correction order = 8
MG DL_MG: Solver finished
MG Hartree energy from (\int phi*rho dr):              1243.041964
MG Hartree energy from (\int eps (grad phi)^2 dr):     1242.386653
MG Discrepancy due to finite box and discretization:     -0.655311 (  -0.05272%)
MG Correction to account for finite box:                  0.474839
MG Remaining discrepancy, due to discretization:         -0.180472 (  -0.01452%)
      ideal mu1:      -0.710849586183
             Q0:  -11641.945041015744
             G0:      -9.909710104266
   RMS gradient:       0.000483930700
MG BCs: +ve charge blocks (gridpoints):     24563 (   16805782).
MG BCs: -ve charge blocks (gridpoints):      8388 (    1073405).
MG BCs:     Elided blocks (gridpoints):    176077 (  178417278).
MG BCs: Computational effort saved:  99.9832%.
MG BCs: Charge after coarse-graining:           -9.0006589.
MG DL_MG: Calling solver with defect correction order = 8
MG DL_MG: Solver finished
MG Hartree energy from (\int phi*rho dr):              1258.705775
MG Hartree energy from (\int eps (grad phi)^2 dr):     1258.045463
MG Discrepancy due to finite box and discretization:     -0.660312 (  -0.05246%)
MG Correction to account for finite box:                  0.473868
MG Remaining discrepancy, due to discretization:         -0.186444 (  -0.01481%)
     Trial step:       0.714831785340
             Q1:  -11641.392760089366
 Quadratic coef:       7.636056692412
 Linear coef   :      -7.083775766033
           Qmin:  -11643.587900711682
Quadratic minimum step length (  0.331565641911) accepted
    Initial Ne1:    7191.99954987
      Final Ne1:    7192.00000000

=================== Penalty functional idempotency correction ==================
 RMS occupancy error at iteration   1:  0.000360 (step -0.4986 Ne1=   7192.0000)
 RMS occupancy error at iteration   2:  0.000000 (step -0.5000 Ne1=   7192.0000)
            Final RMS occupancy error   :  0.000000 (Ne1=   7192.0000)
               Final occupancy bounds   : [  0.0000,  1.0000]
================================================================================

    1        -1.164194504102E+04     4.8393E-04     4.3770E-04
MG BCs: +ve charge blocks (gridpoints):     24528 (   16798541).
MG BCs: -ve charge blocks (gridpoints):      8386 (    1075317).
MG BCs:     Elided blocks (gridpoints):    176112 (  178422607).
MG BCs: Computational effort saved:  99.9832%.
MG BCs: Charge after coarse-graining:           -9.0006608.
MG DL_MG: Calling solver with defect correction order = 8
MG DL_MG: Solver finished
MG Hartree energy from (\int phi*rho dr):              1249.373262
MG Hartree energy from (\int eps (grad phi)^2 dr):     1248.715732
MG Discrepancy due to finite box and discretization:     -0.657530 (  -0.05263%)
MG Correction to account for finite box:                  0.474361
MG Remaining discrepancy, due to discretization:         -0.183169 (  -0.01466%)
      ideal mu1:      -0.716642951415
             Q0:  -11643.562434606021
             G0:      -1.053411475179
   RMS gradient:       0.000158439020
MG BCs: +ve charge blocks (gridpoints):     24534 (   16797699).
MG BCs: -ve charge blocks (gridpoints):      8391 (    1076226).
MG BCs:     Elided blocks (gridpoints):    176106 (  178422540).
MG BCs: Computational effort saved:  99.9832%.
MG BCs: Charge after coarse-graining:           -9.0006609.
MG DL_MG: Calling solver with defect correction order = 8
MG DL_MG: Solver finished
MG Hartree energy from (\int phi*rho dr):              1250.322917
MG Hartree energy from (\int eps (grad phi)^2 dr):     1249.665142
MG Discrepancy due to finite box and discretization:     -0.657775 (  -0.05261%)
MG Correction to account for finite box:                  0.474185
MG Remaining discrepancy, due to discretization:         -0.183590 (  -0.01468%)
     Trial step:       0.486840486982
             Q1:  -11643.786337358179
 Quadratic coef:       0.288940603412
 Linear coef   :      -0.512843355569
           Qmin:  -11643.789997212527
Quadratic minimum step length (  0.432048846756) accepted
    Initial Ne1:    7191.99993712
      Final Ne1:    7192.00000000

=================== Penalty functional idempotency correction ==================
 RMS occupancy error at iteration   1:  0.000160 (step -0.4992 Ne1=   7192.0000)
 RMS occupancy error at iteration   2:  0.000000 (step -0.5000 Ne1=   7192.0000)
            Final RMS occupancy error   :  0.000000 (Ne1=   7192.0000)
               Final occupancy bounds   : [  0.0000,  1.0000]
================================================================================

    2        -1.164356243461E+04     1.5844E-04     1.4330E-04    -1.6174E+00
MG BCs: +ve charge blocks (gridpoints):     24534 (   16797736).
MG BCs: -ve charge blocks (gridpoints):      8390 (    1076149).
MG BCs:     Elided blocks (gridpoints):    176106 (  178422580).
MG BCs: Computational effort saved:  99.9832%.
MG BCs: Charge after coarse-graining:           -9.0006609.
MG DL_MG: Calling solver with defect correction order = 8
MG DL_MG: Solver finished
MG Hartree energy from (\int phi*rho dr):              1250.215947
MG Hartree energy from (\int eps (grad phi)^2 dr):     1249.558201
MG Discrepancy due to finite box and discretization:     -0.657746 (  -0.05261%)
MG Correction to account for finite box:                  0.474204
MG Remaining discrepancy, due to discretization:         -0.183541 (  -0.01468%)
      ideal mu1:      -0.717357766714
             Q0:  -11643.790499999537
             G0:      -0.173242976837
   RMS gradient:       0.000063914013
MG BCs: +ve charge blocks (gridpoints):     24533 (   16796902).
MG BCs: -ve charge blocks (gridpoints):      8392 (    1076625).
MG BCs:     Elided blocks (gridpoints):    176107 (  178422938).
MG BCs: Computational effort saved:  99.9832%.
MG BCs: Charge after coarse-graining:           -9.0006609.
MG DL_MG: Calling solver with defect correction order = 8
MG DL_MG: Solver finished
MG Hartree energy from (\int phi*rho dr):              1249.615605
MG Hartree energy from (\int eps (grad phi)^2 dr):     1248.957998
MG Discrepancy due to finite box and discretization:     -0.657607 (  -0.05262%)
MG Correction to account for finite box:                  0.474083
MG Remaining discrepancy, due to discretization:         -0.183524 (  -0.01469%)
     Trial step:       0.458627158981
             Q1:  -11643.845105827320
 Quadratic coef:       0.024848106497
 Linear coef   :      -0.079453934280
           Qmin:  -11643.854015177980
Quadratic minimum step length (  0.733249677451) accepted
    Initial Ne1:    7191.99998263
      Final Ne1:    7192.00000000

=================== Penalty functional idempotency correction ==================
 RMS occupancy error at iteration   1:  0.000166 (step -0.4931 Ne1=   7192.0000)
 RMS occupancy error at iteration   2:  0.000001 (step -0.5000 Ne1=   7192.0000)
            Final RMS occupancy error   :  0.000000 (Ne1=   7192.0000)
               Final occupancy bounds   : [  0.0000,  1.0000]
================================================================================

    3        -1.164379050000E+04     6.3914E-05     5.7809E-05    -2.2807E-01
MG BCs: +ve charge blocks (gridpoints):     24531 (   16796352).
MG BCs: -ve charge blocks (gridpoints):      8391 (    1076923).
MG BCs:     Elided blocks (gridpoints):    176109 (  178423190).
MG BCs: Computational effort saved:  99.9832%.
MG BCs: Charge after coarse-graining:           -9.0006610.
MG DL_MG: Calling solver with defect correction order = 8
MG DL_MG: Solver finished
MG Hartree energy from (\int phi*rho dr):              1249.256193
MG Hartree energy from (\int eps (grad phi)^2 dr):     1248.598670
MG Discrepancy due to finite box and discretization:     -0.657523 (  -0.05263%)
MG Correction to account for finite box:                  0.474008
MG Remaining discrepancy, due to discretization:         -0.183515 (  -0.01469%)
      ideal mu1:      -0.716253300252
             Q0:  -11643.854085738421
             G0:      -0.069938315644
   RMS gradient:       0.000040607087
MG BCs: +ve charge blocks (gridpoints):     24531 (   16796529).
MG BCs: -ve charge blocks (gridpoints):      8388 (    1076840).
MG BCs:     Elided blocks (gridpoints):    176109 (  178423096).
MG BCs: Computational effort saved:  99.9832%.
MG BCs: Charge after coarse-graining:           -9.0006609.
MG DL_MG: Calling solver with defect correction order = 8
MG DL_MG: Solver finished
MG Hartree energy from (\int phi*rho dr):              1249.323942
MG Hartree energy from (\int eps (grad phi)^2 dr):     1248.666678
MG Discrepancy due to finite box and discretization:     -0.657264 (  -0.05261%)
MG Correction to account for finite box:                  0.473882
MG Remaining discrepancy, due to discretization:         -0.183382 (  -0.01468%)
     Trial step:       0.579903626815
             Q1:  -11643.879516953952
 Quadratic coef:       0.015126267364
 Linear coef   :      -0.040557482895
           Qmin:  -11643.881272045843
Quadratic minimum step length (  0.777436721788) accepted
    Initial Ne1:    7191.99999233
      Final Ne1:    7192.00000000

=================== Penalty functional idempotency correction ==================
 RMS occupancy error at iteration   1:  0.000293 (step -0.4836 Ne1=   7192.0000)
 RMS occupancy error at iteration   2:  0.000002 (step -0.5000 Ne1=   7192.0000)
            Final RMS occupancy error   :  0.000000 (Ne1=   7192.0000)
               Final occupancy bounds   : [  0.0000,  1.0000]
================================================================================

    4        -1.164385408574E+04     4.0607E-05     3.6728E-05    -6.3586E-02
MG BCs: +ve charge blocks (gridpoints):     24530 (   16796579).
MG BCs: -ve charge blocks (gridpoints):      8389 (    1076818).
MG BCs:     Elided blocks (gridpoints):    176110 (  178423068).
MG BCs: Computational effort saved:  99.9832%.
MG BCs: Charge after coarse-graining:           -9.0006609.
MG DL_MG: Calling solver with defect correction order = 8
MG DL_MG: Solver finished
MG Hartree energy from (\int phi*rho dr):              1249.348440
MG Hartree energy from (\int eps (grad phi)^2 dr):     1248.691266
MG Discrepancy due to finite box and discretization:     -0.657174 (  -0.05260%)
MG Correction to account for finite box:                  0.473837
MG Remaining discrepancy, due to discretization:         -0.183337 (  -0.01467%)
      ideal mu1:      -0.716808647945
             Q0:  -11643.881251733634
             G0:      -0.067630654678
   RMS gradient:       0.000039930127
MG BCs: +ve charge blocks (gridpoints):     24529 (   16798120).
MG BCs: -ve charge blocks (gridpoints):      8388 (    1076328).
MG BCs:     Elided blocks (gridpoints):    176111 (  178422017).
MG BCs: Computational effort saved:  99.9832%.
MG BCs: Charge after coarse-graining:           -9.0006606.
MG DL_MG: Calling solver with defect correction order = 8
MG DL_MG: Solver finished
MG Hartree energy from (\int phi*rho dr):              1250.268374
MG Hartree energy from (\int eps (grad phi)^2 dr):     1249.611520
MG Discrepancy due to finite box and discretization:     -0.656853 (  -0.05254%)
MG Correction to account for finite box:                  0.473598
MG Remaining discrepancy, due to discretization:         -0.183255 (  -0.01466%)
     Trial step:       0.671444989991
             Q1:  -11643.908021289390
 Quadratic coef:       0.018640708498
 Linear coef   :      -0.045410264254
           Qmin:  -11643.908907497091
Quadratic minimum step length (  0.817846983386) accepted
    Initial Ne1:    7191.99999170
      Final Ne1:    7192.00000000

=================== Penalty functional idempotency correction ==================
 RMS occupancy error at iteration   1:  0.000915 (step -0.4511 Ne1=   7192.0000)
 RMS occupancy error at iteration   2:  0.000008 (step -0.4999 Ne1=   7192.0000)
            Final RMS occupancy error   :  0.000000 (Ne1=   7192.0000)
               Final occupancy bounds   : [ -0.0000,  1.0000]
================================================================================

    5        -1.164388125173E+04     3.9930E-05     3.6116E-05    -2.7166E-02
MG BCs: +ve charge blocks (gridpoints):     24529 (   16798433).
MG BCs: -ve charge blocks (gridpoints):      8389 (    1076232).
MG BCs:     Elided blocks (gridpoints):    176111 (  178421800).
MG BCs: Computational effort saved:  99.9832%.
MG BCs: Charge after coarse-graining:           -9.0006605.
MG DL_MG: Calling solver with defect correction order = 8
MG DL_MG: Solver finished
MG Hartree energy from (\int phi*rho dr):              1250.470496
MG Hartree energy from (\int eps (grad phi)^2 dr):     1249.813710
MG Discrepancy due to finite box and discretization:     -0.656786 (  -0.05252%)
MG Correction to account for finite box:                  0.473548
MG Remaining discrepancy, due to discretization:         -0.183238 (  -0.01465%)
      ideal mu1:      -0.718183040559
             Q0:  -11643.909142097342
             G0:      -0.058961406072
   RMS gradient:       0.000036770266
MG BCs: +ve charge blocks (gridpoints):     24530 (   16798461).
MG BCs: -ve charge blocks (gridpoints):      8389 (    1076352).
MG BCs:     Elided blocks (gridpoints):    176110 (  178421652).
MG BCs: Computational effort saved:  99.9832%.
MG BCs: Charge after coarse-graining:           -9.0006605.
MG DL_MG: Calling solver with defect correction order = 8
MG DL_MG: Solver finished
MG Hartree energy from (\int phi*rho dr):              1250.163059
MG Hartree energy from (\int eps (grad phi)^2 dr):     1249.506569
MG Discrepancy due to finite box and discretization:     -0.656489 (  -0.05251%)
MG Correction to account for finite box:                  0.473233
MG Remaining discrepancy, due to discretization:         -0.183256 (  -0.01466%)
     Trial step:       0.741039310410
             Q1:  -11643.936333515681
 Quadratic coef:       0.016501301357
 Linear coef   :      -0.043692719696
           Qmin:  -11643.938064873084
Quadratic minimum step length (  0.981074830772) accepted
    Initial Ne1:    7192.00000594
      Final Ne1:    7192.00000000

=================== Penalty functional idempotency correction ==================
 RMS occupancy error at iteration   1:  0.002124 (step -0.4001 Ne1=   7192.0000)
 RMS occupancy error at iteration   2:  0.000028 (step -0.4997 Ne1=   7192.0000)
            Final RMS occupancy error   :  0.000000 (Ne1=   7192.0000)
               Final occupancy bounds   : [ -0.0000,  1.0000]
================================================================================

    6        -1.164390914210E+04     3.6770E-05     3.3258E-05    -2.7890E-02
MG BCs: +ve charge blocks (gridpoints):     24530 (   16798444).
MG BCs: -ve charge blocks (gridpoints):      8389 (    1076393).
MG BCs:     Elided blocks (gridpoints):    176110 (  178421628).
MG BCs: Computational effort saved:  99.9832%.
MG BCs: Charge after coarse-graining:           -9.0006605.
MG DL_MG: Calling solver with defect correction order = 8
MG DL_MG: Solver finished
MG Hartree energy from (\int phi*rho dr):              1250.065115
MG Hartree energy from (\int eps (grad phi)^2 dr):     1249.408701
MG Discrepancy due to finite box and discretization:     -0.656414 (  -0.05251%)
MG Correction to account for finite box:                  0.473151
MG Remaining discrepancy, due to discretization:         -0.183262 (  -0.01466%)
      ideal mu1:      -0.718328499931
             Q0:  -11643.939625142026
             G0:      -0.052566418038
   RMS gradient:       0.000035245761
MG BCs: +ve charge blocks (gridpoints):     24532 (   16796800).
MG BCs: -ve charge blocks (gridpoints):      8390 (    1076796).
MG BCs:     Elided blocks (gridpoints):    176108 (  178422869).
MG BCs: Computational effort saved:  99.9832%.
MG BCs: Charge after coarse-graining:           -9.0006609.
MG DL_MG: Calling solver with defect correction order = 8
MG DL_MG: Solver finished
MG Hartree energy from (\int phi*rho dr):              1249.387114
MG Hartree energy from (\int eps (grad phi)^2 dr):     1248.730646
MG Discrepancy due to finite box and discretization:     -0.656467 (  -0.05254%)
MG Correction to account for finite box:                  0.473153
MG Remaining discrepancy, due to discretization:         -0.183315 (  -0.01467%)
     Trial step:       0.852651755441
             Q1:  -11643.951148010441
 Quadratic coef:       0.033297980202
 Linear coef   :      -0.044820848618
           Qmin:  -11643.954707952294
Quadratic minimum step length (  0.573857258335) accepted
    Initial Ne1:    7192.00015096
      Final Ne1:    7192.00000000

=================== Penalty functional idempotency correction ==================
 RMS occupancy error at iteration   1:  0.000022 (step -0.4988 Ne1=   7192.0000)
            Final RMS occupancy error   :  0.000000 (Ne1=   7192.0000)
               Final occupancy bounds   : [ -0.0000,  1.0000]
================================================================================

    7        -1.164393962514E+04     3.5246E-05     3.1879E-05    -3.0483E-02
MG BCs: +ve charge blocks (gridpoints):     24533 (   16797348).
MG BCs: -ve charge blocks (gridpoints):      8388 (    1076665).
MG BCs:     Elided blocks (gridpoints):    176107 (  178422452).
MG BCs: Computational effort saved:  99.9832%.
MG BCs: Charge after coarse-graining:           -9.0006607.
MG DL_MG: Calling solver with defect correction order = 8
MG DL_MG: Solver finished
MG Hartree energy from (\int phi*rho dr):              1249.606850
MG Hartree energy from (\int eps (grad phi)^2 dr):     1248.950399
MG Discrepancy due to finite box and discretization:     -0.656451 (  -0.05253%)
MG Correction to account for finite box:                  0.473154
MG Remaining discrepancy, due to discretization:         -0.183297 (  -0.01467%)
      ideal mu1:      -0.717767462167
             Q0:  -11643.954711110215
             G0:      -0.038159054952
   RMS gradient:       0.000030024531
MG BCs: +ve charge blocks (gridpoints):     24530 (   16797203).
MG BCs: -ve charge blocks (gridpoints):      8389 (    1076629).
MG BCs:     Elided blocks (gridpoints):    176110 (  178422633).
MG BCs: Computational effort saved:  99.9832%.
MG BCs: Charge after coarse-graining:           -9.0006608.
MG DL_MG: Calling solver with defect correction order = 8
MG DL_MG: Solver finished
MG Hartree energy from (\int phi*rho dr):              1249.424692
MG Hartree energy from (\int eps (grad phi)^2 dr):     1248.768289
MG Discrepancy due to finite box and discretization:     -0.656403 (  -0.05254%)
MG Correction to account for finite box:                  0.473038
MG Remaining discrepancy, due to discretization:         -0.183365 (  -0.01468%)
     Trial step:       0.699500106284
             Q1:  -11643.972394296434
 Quadratic coef:       0.009009076775
 Linear coef   :      -0.026692262995
           Qmin:  -11643.974482195576
Quadratic minimum step length (  1.036246069795) accepted
    Initial Ne1:    7192.00049880
[...]
MG Discrepancy due to finite box and discretization:     -0.188890 (  -0.01564%)
MG Correction to account for finite box:                  0.006406
MG Remaining discrepancy, due to discretization:         -0.182484 (  -0.01511%)
     Trial step:       0.657705796612
             Q1:  -11678.640055085998
 Quadratic coef:       0.000000000666
 Linear coef   :      -0.000000005439
           Qmin:  -11678.640055092332
Quadratic minimum step length (  2.686502437047) accepted
    Initial Ne1:    7192.00000000
      Final Ne1:    7192.00000000

=================== Penalty functional idempotency correction ==================
 RMS occupancy error at iteration   1:  0.000000 (step -0.5000 Ne1=   7192.0000)
            Final RMS occupancy error   :  0.000000 (Ne1=   7192.0000)
               Final occupancy bounds   : [  0.0000,  1.0000]
================================================================================

    7        -1.167864005508E+04     1.3979E-08     1.2644E-08    -5.2387E-09

Reusing previously generated solute cavity.
MG BCs: +ve charge blocks (gridpoints):     28806 (   18994347).
MG BCs: -ve charge blocks (gridpoints):      8361 (    1045375).
MG BCs:     Elided blocks (gridpoints):    171834 (  176256743).
MG BCs: Computational effort saved:  99.9811%.
MG BCs: Charge after coarse-graining:           -9.0009330.
MG DL_MG: Calling solver with defect correction order = 8
MG DL_MG: Solver finished
MG Hartree energy from (\int phi*rho dr):              1207.730263
MG Hartree energy from (\int eps (grad phi)^2 dr):     1207.541373
MG Discrepancy due to finite box and discretization:     -0.188890 (  -0.01564%)
MG Correction to account for finite box:                  0.006406
MG Remaining discrepancy, due to discretization:         -0.182484 (  -0.01511%)
      ideal mu1:      -0.480987629216
             Q0:  -11678.640055058291
WARNING in lnv_denskernel_optimise_cg: 
  conjugate gradient coefficient ( 0.286E+02) too large - resetting
             G0:      -0.000000236806
   RMS gradient:       0.000000074808

Reusing previously generated solute cavity.
MG BCs: +ve charge blocks (gridpoints):     28806 (   18994340).
MG BCs: -ve charge blocks (gridpoints):      8361 (    1045378).
MG BCs:     Elided blocks (gridpoints):    171834 (  176256747).
MG BCs: Computational effort saved:  99.9811%.
MG BCs: Charge after coarse-graining:           -9.0009330.
MG DL_MG: Calling solver with defect correction order = 8
MG DL_MG: Solver finished
MG Hartree energy from (\int phi*rho dr):              1207.729135
MG Hartree energy from (\int eps (grad phi)^2 dr):     1207.540245
MG Discrepancy due to finite box and discretization:     -0.188890 (  -0.01564%)
MG Correction to account for finite box:                  0.006406
MG Remaining discrepancy, due to discretization:         -0.182484 (  -0.01511%)
     Trial step:       1.329258524689
             Q1:  -11678.640054698219
 Quadratic coef:       0.000000674849
 Linear coef   :      -0.000000314776
           Qmin:  -11678.640055094997
Quadratic minimum step length (  0.310008999887) accepted
    Initial Ne1:    7192.00000000
      Final Ne1:    7192.00000000

=================== Penalty functional idempotency correction ==================
 RMS occupancy error at iteration   1:  0.000000 (step -0.5000 Ne1=   7192.0000)
            Final RMS occupancy error   :  0.000000 (Ne1=   7192.0000)
               Final occupancy bounds   : [ -0.0000,  1.0000]
================================================================================

    8        -1.167864005506E+04     7.4808E-08     6.7662E-08     2.2934E-08

Reusing previously generated solute cavity.
MG BCs: +ve charge blocks (gridpoints):     28806 (   18994343).
MG BCs: -ve charge blocks (gridpoints):      8361 (    1045376).
MG BCs:     Elided blocks (gridpoints):    171834 (  176256746).
MG BCs: Computational effort saved:  99.9811%.
MG BCs: Charge after coarse-graining:           -9.0009330.
MG DL_MG: Calling solver with defect correction order = 8
MG DL_MG: Solver finished
MG Hartree energy from (\int phi*rho dr):              1207.730000
MG Hartree energy from (\int eps (grad phi)^2 dr):     1207.541110
MG Discrepancy due to finite box and discretization:     -0.188890 (  -0.01564%)
MG Correction to account for finite box:                  0.006406
MG Remaining discrepancy, due to discretization:         -0.182484 (  -0.01511%)
      ideal mu1:      -0.480987294539
             Q0:  -11678.640055088210
             G0:      -0.000000006233
   RMS gradient:       0.000000011815

Reusing previously generated solute cavity.
MG BCs: +ve charge blocks (gridpoints):     28806 (   18994343).
MG BCs: -ve charge blocks (gridpoints):      8361 (    1045376).
MG BCs:     Elided blocks (gridpoints):    171834 (  176256746).
MG BCs: Computational effort saved:  99.9811%.
MG BCs: Charge after coarse-graining:           -9.0009330.
MG DL_MG: Calling solver with defect correction order = 8
MG DL_MG: Solver finished
MG Hartree energy from (\int phi*rho dr):              1207.729897
MG Hartree energy from (\int eps (grad phi)^2 dr):     1207.541007
MG Discrepancy due to finite box and discretization:     -0.188890 (  -0.01564%)
MG Correction to account for finite box:                  0.006406
MG Remaining discrepancy, due to discretization:         -0.182484 (  -0.01511%)
     Trial step:       0.641936216325
             Q1:  -11678.640055090189
 Quadratic coef:       0.000000002023
 Linear coef   :      -0.000000004001
           Qmin:  -11678.640055090189
Quadratic minimum step length (  0.634930218262) accepted
    Initial Ne1:    7192.00000000
      Final Ne1:    7192.00000000

=================== Penalty functional idempotency correction ==================
 RMS occupancy error at iteration   1:  0.000000 (step -0.5000 Ne1=   7192.0000)
            Final RMS occupancy error   :  0.000000 (Ne1=   7192.0000)
               Final occupancy bounds   : [  0.0000,  1.0000]
================================================================================

    9        -1.167864005509E+04     1.1815E-08     1.0687E-08    -2.9919E-08

Reusing previously generated solute cavity.
MG BCs: +ve charge blocks (gridpoints):     28806 (   18994343).
MG BCs: -ve charge blocks (gridpoints):      8361 (    1045376).
MG BCs:     Elided blocks (gridpoints):    171834 (  176256746).
MG BCs: Computational effort saved:  99.9811%.
MG BCs: Charge after coarse-graining:           -9.0009330.
MG DL_MG: Calling solver with defect correction order = 8
MG DL_MG: Solver finished
MG Hartree energy from (\int phi*rho dr):              1207.729898
MG Hartree energy from (\int eps (grad phi)^2 dr):     1207.541008
MG Discrepancy due to finite box and discretization:     -0.188890 (  -0.01564%)
MG Correction to account for finite box:                  0.006406
MG Remaining discrepancy, due to discretization:         -0.182484 (  -0.01511%)
      ideal mu1:      -0.480987256750
   10        -1.167864005509E+04     7.4462E-09     6.7349E-09    -1.8626E-09
Finished density kernel iterations (  10)

Writing density kernel to file "host_19481.dkn" ... done


>>> Density kernel optimised for the current NGWF basis:
     ~~~~~~~~~~~~~~~~~~~~~~~~~~~~~~~~~~~~~~~~~~~~~~~~~~~~~~~~~~~
     Total energy                =  -1.16786400550901E+04  Eh
     Estimated bandgap           =   8.5174E-02  Eh
     RMS occupancy error         =   3.8481E-16
     [H,K] commutator            =   6.7349E-09
     Occupancy bounds            = [  0.000:  1.000]
     ~~~~~~~~~~~~~~~~~~~~~~~~~~~~~~~~~~~~~~~~~~~~~~~~~~~~~~~~~~~




################################################################################
########################### NGWF CG iteration  004 #############################
################################################################################
****** Reciprocal space K.E. preconditioning with k_zero =  3.5000 a0^-1 *******

>>> Checking for convergence of NGWFs: 
           ........................................................
           |         *** NGWF optimisation converged ***          |
           | RMS NGWF gradient =    0.00000195261635              |
           | Criteria satisfied:                                  |
           | -> RMS NGWF gradient lower than set threshold.       |
           ========================================================

Reusing previously generated solute cavity.
MG BCs: +ve charge blocks (gridpoints):     28806 (   18994343).
MG BCs: -ve charge blocks (gridpoints):      8361 (    1045376).
MG BCs:     Elided blocks (gridpoints):    171834 (  176256746).
MG BCs: Computational effort saved:  99.9811%.
MG BCs: Charge after coarse-graining:           -9.0009330.
MG DL_MG: Calling solver with defect correction order = 8
MG DL_MG: Solver finished
MG Hartree energy from (\int phi*rho dr):              1207.729898
MG Hartree energy from (\int eps (grad phi)^2 dr):     1207.541008
MG Discrepancy due to finite box and discretization:     -0.188890 (  -0.01564%)
MG Correction to account for finite box:                  0.006406
MG Remaining discrepancy, due to discretization:         -0.182484 (  -0.01511%)

================================================================================
           ---------------- ENERGY COMPONENTS (Eh) ----------------
           | Kinetic                    :     8531.38535785248678 |
           | Pseudo. (local,OBC,corr'd) :    -5051.29420201400080 |
           | Pseudopotential (non-local):     1403.69827735791341 |
           | Hartree (molecular)        :     1207.72989814494622 |
           | Exchange-correlation       :    -3358.30017337295794 |
           | Ion-ion (open BC)          :   827423.02346872305498 |
           | Dispersion Correction      :       -3.26114228029468 |
           | Smeared ion non-self corr. :  -827375.10215455479920 |
           | Smeared ion self corr.     :   -14457.16956389741972 |
           | Solvent cavitation energy  :        2.31318669728542 |
           | Solute-solvent dis-rep en. :       -1.66300774634592 |
           | Total                      :   -11678.64005509010349 |
           --------------------------------------------------------
           ------ LOCAL ENERGY COMPONENTS FROM MATRIX TRACES ------
           | Pseudopotential (local)    :    -5051.29420201400171 |
           | Hartree                    :    -1990.40600024918535 |
           --------------------------------------------------------
           Integrated density           :     7191.99999999805823
           Integrated density tr(KS)    :     7192.00000000000000
================================================================================


                        <<<<< CALCULATION SUMMARY >>>>>                         
|ITER|    RMS GRADIENT   |     TOTAL ENERGY    |   step   |     Epredicted              
   0     0.00004135058061 -11678.57179931970313   0.633538 -11678.63061990387905        
   1     0.00000959628148 -11678.63956431590486   0.080720 -11678.63996794163540        
   2     0.00000429702570 -11678.64003756188322   0.015250 -11678.64005285206440        
   3     0.00000195261635 -11678.64005509007256  <-- CG                                 

=================== Finished the calculation in solvent ========================
= Adjusting the following parameters: 
= read_denskern: F
= read_tightbox_ngwfs: F
= maxit_pen: 0 (restored to user-specified value)
= restart read filename prefix: ""
= restart write filename prefix: ""
================================================================================

================================================================================
IS: Calculation in solvent completed (NGWFs converged).      

Individual components of total energy in solvent:     hartree           kcal/mol
- Usual non-electrostatic DFT terms:    -12887.02013218595857    -8086727.049946
- Electrostatic fixed charge energy:      1207.72989814494622      757861.936753
- Apolar cavitation energy:                  2.31318669728542        1451.546536
- Apolar dispersion-repulsion energy:       -1.66300774634592       -1043.553094
 -------------------------------------------------------------------------------
- Total energy in solvent:              -11678.64005509007256    -7328457.119750

Components of total energy in solvent:                hartree           kcal/mol
- Usual non-electrostatic DFT terms:    -12887.02013218595857    -8086727.049946
- Electrostatic energy:                   1207.72989814494622      757861.936753
- Apolar energy terms:                       0.65017895093950         407.993443
 -------------------------------------------------------------------------------
- Total energy in solvent:              -11678.64005509007256    -7328457.119750

Calculation of free energy of solvation:              hartree           kcal/mol
- Total energy in solvent:         (+)  -11678.64005509007256    -7328457.119750
- Total energy in vacuum:          (-)  -11674.74026572681032    -7326009.965031
 -------------------------------------------------------------------------------
- Total free energy of solvation:           -3.89978936326224       -2447.154719

Components of polar term in f.e. of solvation:        hartree           kcal/mol
- Electrostatic:                            -4.59533341898873       -2883.615194
- Change in nonelectrostatic DFT terms:      0.04536510478647          28.467032
 -------------------------------------------------------------------------------
- Polar term in f.e. of solvation:          -4.54996831420226       -2855.148162

Components of free energy of solvation:               hartree           kcal/mol
- Polar term in f.e. of solvation: (+)      -4.54996831420226       -2855.148162
- Apolar (cavitation, dis., rep.): (+)       0.65017895093950         407.993443
 -------------------------------------------------------------------------------
- Total free energy of solvation:           -3.89978936326276       -2447.154719
================================================================================


------------------------------ TIMING INFORMATION ------------------------------
AVERAGE TIME:   29074.855s on     40 node(s)                                    
TOTAL TIME:     29074.857s on     40 node(s)                                    
================= AVERAGE TIMINGS FROM ALL NODES (CUMULATIVE) ==================
|| TAG                                    #calls    cpu time   %total  Gflops ||
|| work_imbalance                       :     1        0.00s   0.000%  ------ ||
|| parallel_prepare_fd_halos_request    :  2067        0.02s   0.000%  ------ ||
|| sparse_set_to_garbage                :   194        0.05s   0.000%  ------ ||
|| parallel_prepare_fd_halos_satisfy    :  2067        0.07s   0.000%  ------ ||
|| ngwfs_initialise_from_radial         :     1        0.17s   0.001%  ------ ||
|| basis_extract_function_from_box      :  5691        0.20s   0.001%  ------ ||
|| parallel_prepare_fd_halos_alloc      :  2067        0.21s   0.001%  ------ ||
|| restart_ngwfs_tightbox_input         :     1        0.98s   0.003%  ------ ||
|| pseudopotentials_nonlocal_mat        :    33        1.45s   0.005%  ------ ||
|| density_init_guess_real              :     1        2.73s   0.009%  ------ ||
|| parallel_prepare_fd_halos_comms_imbal:  2067        4.49s   0.015%  ------ ||
|| openbc_locps_radial                  :     1        4.62s   0.016%  ------ ||
|| restart_kernel_read                  :     1        5.83s   0.020%  ------ ||
|| restart_kernel_write                 :    18       11.83s   0.041%  ------ ||
|| parallel_prepare_fd_halos_clear      :  2067       20.76s   0.071%  ------ ||
|| sparse_init                          :     2       22.91s   0.079%  ------ ||
|| projectors_func_ovlp_box             :    33       26.06s   0.090%  ------ ||
|| parallel_prepare_fd_halos_comms_wait :  2067       26.84s   0.092%  ------ ||
|| function_ops_brappd_ketppd           :    33       27.74s   0.095%  ------ ||
|| projectors_init_fftbox_recip         :   220       32.76s   0.113%  ------ ||
|| palser_mano_kernel_optimise          :     1       41.67s   0.143%  ------ ||
|| parallel_prepare_fd_halos            :  2067       52.40s   0.180%  ------ ||
|| fourier_apply_box_pair               :  8222       57.59s   0.198% 551.029 ||
|| pseudo_make_structure_factor         :     2       58.28s   0.200%  ------ ||
|| ngwf_gradient_coeffs                 :    17       70.33s   0.242%  ------ ||
|| basis_copy_function_to_box           : 92696       74.73s   0.257%  ------ ||
|| restart_ngwfs_tightbox_output        :    15       83.51s   0.287%  ------ ||
|| sparse_embed_hotelling_invert_embed  :    33      103.20s   0.355%  ------ ||
|| finite_difference_derivative         :  2067      127.26s   0.438%  ------ ||
|| integrals_kinetic                    :    33      175.57s   0.604%  ------ ||
|| openbc_locps_on_grid                 :     2      205.80s   0.708%  ------ ||
|| fourier_apply_cell_backward          :  1379      225.54s   0.776%  84.453 ||
|| fourier_apply_cell_forward           :  1377      233.62s   0.804%  81.414 ||
|| projectors_gradient_batch            :   187      234.09s   0.805%  ------ ||
|| basis_dot_function_with_box          : 14.09M     276.57s   0.951%  ------ ||
|| sparse_trace                         :  5856      280.59s   0.965%  ------ ||
|| kernel_purify                        :   526      384.41s   1.322%  ------ ||
|| hamiltonian_energy_components        :     4      432.48s   1.487%  ------ ||
|| xc_energy_potential                  :   344      551.11s   1.895%  ------ ||
|| basis_add_function_to_box            : 29.35M     612.48s   2.107%  ------ ||
|| lnv_gradient_norm                    :   170      638.04s   2.194%  ------ ||
|| kernel_fix                           :   170      768.64s   2.644%  ------ ||
|| cell_grid_deposit_box_real           : 58040      810.91s   2.789%  ------ ||
|| ngwf_gradient_build_batch            :   187      825.19s   2.838%  ------ ||
|| integrals_locpot_mat_els_batch       :  1969      985.91s   3.391%  ------ ||
|| cell_grid_extract_box_real           : 54143     1002.20s   3.447%  ------ ||
|| ngwf_gradient_batch                  :   187     1158.46s   3.984%  ------ ||
|| ngwf_gradient_lnv                    :    17     1339.48s   4.607%  ------ ||
|| density_batch_row_sums               :  3773     1357.25s   4.668%  ------ ||
|| density_fftbox_deposit_to_cell       : 55909     1395.07s   4.798%  ------ ||
|| sparse_product                       :  7203     2456.87s   8.450%  ------ ||
|| multigrid_prepare_bound_cond         :   344     2667.12s   9.173%  ------ ||
|| potential_apply_to_ngwf_batch        :  1969     3514.23s  12.087%  ------ ||
|| fourier_apply_box                    : 193.2k    3713.73s  12.773% 972.857 ||
|| density_fftbox_interpolate_multiply  : 55909     4036.45s  13.883%  ------ ||
|| integrals_locpot_dbl_grid            :   179     4519.50s  15.544%  ------ ||
|| density_batch_interp_deposit         :  3773     6119.99s  21.049%  ------ ||
|| dl_mg_solver_calls                   :   344     7621.52s  26.213%  ------ ||
|| density_on_dbl_grid                  :   343     7933.37s  27.286%  ------ ||
|| multigrid_calculate_hartree          :   344    10461.63s  35.982%  ------ ||
|| hamiltonian_lhxc_calculate           :   339    18967.59s  65.237%  ------ ||
|| lnv_denskernel_optimise_cg           :    17    24998.86s  85.981%  ------ ||
|| ngwf_cg_optimise                     :     2    28241.73s  97.135%  ------ ||
|| total_time                           :     1    29074.86s 100.000%  ------ ||
================================================================================
Overhead of generating timer report: 
- 0 ms averaging over threads,
- 5 ms ensuring consistency across MPI ranks,
- 2 ms printing in order.

Job completed: 19-07-2020 17:55 (+0100)

