 +---------------------------------------------------------------+
 |                                                               |
 |        ####### #     # ####### ####### ####### ######         |
 |        #     # ##    # #          #    #       #     #        |
 |        #     # # #   # #          #    #       #     #        |
 |        #     # #  #  # #####      #    #####   ######         |
 |        #     # #   # # #          #    #       #              |
 |        #     # #    ## #          #    #       #              |
 |        ####### #     # #######    #    ####### #              |
 |                                                               |
 |        Linear-Scaling Ab Initio Total Energy Program          |
 |                                                               |
 |          Release for academic collaborators of ODG            |
 |                                             Version 5.3.2.6.  |
 |                                                               |
 +---------------------------------------------------------------+
 |                                                               |
 |  Authors:                                                     |
 |  Jacek Dziedzic, Peter D. Haynes, Nicholas D. M. Hine,        |
 |  Arash. A. Mostofi, Mike C. Payne and Chris-Kriton Skylaris   |
 |                                                               |
 |  Contributors:                                                |
 |  J. Aarons, L. Andrinopoulos, P. W. Avraam, R. A. Bell,       |
 |  A. Bhandari, G. A. Bramley, R. J. Charlton, S. J. Clark,     |
 |  R. J. Clements, G. C. Constantinescu, F. Corsetti,           |
 |  N. Corsini, O. Dieguez, S. M. M. Dubois, K. K. B. Duff,      |
 |  J. M. Escartin, A. Greco, H. Helal, Q. O. Hill, L. P. Lee,   |
 |  J.-H. Li, E. B. Linscott, G. Moynihan, D. D. O`Regan,        |
 |  O. K. Okan, M. J. S. Phipps, C. J. Pickard,                  |
 |  J. C. A. Prentice, M. I. J. Probert, L. E. Ratcliff,         |
 |  M. Robinson, A. Ruiz Serrano, J. S. Spencer, E. W. Tait,     |
 |  G. Teobaldi, D. Turban, V. Vitale, K. A. Wilkinson,          |
 |  C. Weber, J. C. Womack, N. Yeung and T. J. Zuehlsdorff       |
 |                                                               |
 |                                   Copyright (c) 2004-2019     |
 |                                                               |
 |  Please cite:                                                 |
 |  "Introducing ONETEP: Linear-scaling density functional       |
 |   simulations on parallel computers".                         |
 |   C.-K. Skylaris, P. D. Haynes, A. A. Mostofi, M. C. Payne.   |
 |   J. Chem. Phys. 122 084119 (2005).                           |
 |                                                               |
 |          in all publications arising from your use of ONETEP. |
 |                                                               |
 +---------------------------------------------------------------+
 |                                                               |
 |   ONETEP is based on developments described in the following  |
 |   publications:                                               |
 |                                                               |
 |  "Nonorthogonal generalized Wannier function pseudopotential  |
 |   plane-wave method".                                         |
 |   C.-K. Skylaris, A. A. Mostofi, P. D. Haynes, O. Dieguez,    |
 |   M. C. Payne.                                                |
 |   Phys. Rev. B 66 035119 (2002).                              |
 |                                                               |
 |  "Preconditioned iterative minimization for linear-scaling    |
 |   electronic structure calculations".                         |
 |   A. A. Mostofi, P. D. Haynes, C.-K. Skylaris, M. C. Payne.   |
 |   J. Chem. Phys. 119(17), pp.8842-8848 (2003).                |
 |                                                               |
 |  "Total-energy calculations on a real space grid with         |
 |   localized functions and a plane-wave basis".                |
 |   A. A. Mostofi, C.-K. Skylaris, P. D. Haynes, M. C. Payne.   |
 |   Comput. Phys. Commun. 147, pp.788-802 (2002).               |
 |                                                               |
 |  "Accurate kinetic energy evaluation in electronic structure  |
 |   calculations with localized functions on real space grids"  |
 |   C.-K. Skylaris, A. A. Mostofi, P. D. Haynes, C. J. Pickard, |
 |   M. C. Payne.                                                |
 |   Comput. Phys. Commun. 140, pp.315-322 (2001).               |
 |                                                               |
 |  "Accurate ionic forces and geometry optimization in linear-  |
 |   scaling density-functional theory with local orbitals"      |
 |   N. D. M. Hine, M. Robinson, P. D. Haynes, C.-K. Skylaris,   |
 |   M. C. Payne, and A. A. Mostofi.                             |
 |   Phys. Rev. B 83 195102 (2011).                              |
 |                                                               |
 +---------------------------------------------------------------+

Job started: 15-07-2020 01:47 (+0100)
 
Reading parameters from file "host_36961.dat" ...... done

If your calculation crashes here, before "Checking processes and threads..."
is displayed, then your stack size is insufficient.
If so, use "ulimit -s unlimited" at runtime.
You can disable this check with "check_stack_size F".

Checking processes and threads...
   Determining the default number of threads...
      No default threads set at compilation time: defaulting to 1.
      OpenMP library call suggests 4 threads.
      Hybrid MPI-OpenMP compilation detected.
      Number of MPI processes > 1.
      OMP_NUM_THREADS environment variable present and
      its value matches the one obtained from the OpenMP library call.
      Using this value as default.
      Default threads: 4
      Default applies to threads_max and threads_num_fftboxes.
      Settings in the input file override this default.
   ... done

   Running with 40 MPI processes.
   There are 10 MPI processes running on the same node as the root process.
   Each MPI process is using: 
               1 threads for simulation cell FFTs.
               1 threads for parallel FFT box operations.
               4 threads for loops over batched FFT box operations.
               4 threads in other parallel regions.
... done

Basic input checks...... done

Reading geometry and species blocks from file "host_36961.dat" ...
  <species_atomic_set> block not found: NGWF initialisation set to SOLVE
IS: Dielectric excluded regions:
    - NONE.
    
  Number of PPD points along a3 set to 1.  This is 
  the default value, it may have been provided also in the input file.
... done
 Writing xyz coordinates to file "host_36961.xyz" ... done


--------------------------------------------------------------------------------
---------------------------------- INPUT FILE ----------------------------------
--------------------------------------------------------------------------------

cutoff_energy       : 800 eV                                                    
xc_functional PBE                                                               
task SINGLEPOINT                                                                
write_xyz true                                                                  
output_detail VERBOSE                                                           
ngwf_threshold_orig : 0.000002                                                  
kernel_cutoff       : 1000                                                      
k_zero              : 3.5                                                       
elec_cg_max 0                                                                   
occ_mix 1.0                                                                     
dispersion 1                                                                    
maxit_ngwf_cg 40                                                                
minit_lnv 10                                                                    
maxit_lnv 10                                                                    
write_denskern T                                                                
write_tightbox_ngwfs T                                                          
charge 9                                                                        
is_implicit_solvent T                                                           
is_auto_solvation T                                                             
is_include_apolar T                                                             
is_smeared_ion_rep T                                                            
is_solvent_surf_tension 4.7624E-5 Ha/bohr**2                                    
is_apolar_scaling_factor 0.281075                                               
is_solvation_beta 1.3                                                           
is_density_threshold 0.00035                                                    
is_bulk_permittivity 78.54                                                      
is_dielectric_model fix_initial                                                 
is_smeared_ion_width 0.8                                                        
mg_defco_fd_order 8                                                             
is_bc_coarseness 10                                                             
is_bc_surface_coarseness 1                                                      
fine_grid_scale 2.0                                                             
%block species                                                                  
N   N   7 4 8.0                                                                 
H   H   1 1 8.0                                                                 
C   C   6 4 8.0                                                                 
S   S  16 9 8.0                                                                 
O   O   8 4 8.0                                                                 
%endblock species                                                               
%block species_pot                                                              
N   N_00.recpot                                                                 
H   H_04.recpot                                                                 
C   C_01.recpot                                                                 
S   S_00.recpot                                                                 
O   O_02.recpot                                                                 
%endblock species_pot                                                           
%block lattice_cart                                                             
137.793   0.000   0.000                                                         
0.000 143.498   0.000                                                           
0.000   0.000   162.326                                                         
%endblock lattice_cart                                                          
%block positions_abs                                                            
     Hash =   000000370312464319959740
%endblock positions_abs                                                         

--------------------------------------------------------------------------------
-------------------------------- END INPUT FILE --------------------------------
--------------------------------------------------------------------------------


 
 ESDF WARNING(1): "kernelcutoff" (esdf_physical) has no units. Assume "bohr".
 ESDF WARNING(2): "kzero" (esdf_physical) has no units. Assume "1/bohr".
 ESDF WARNING(3
 ): "issmearedionwidth" (esdf_physical) has no units. Assume "bohr".
<<<<<<<<<<<<<<<<<<<<<<<<<<<<<<<<< Full system >>>>>>>>>>>>>>>>>>>>>>>>>>>>>>>>>>
<<<<<<<<<<<<<<<<<<<<<<<<< Pseudopotential information >>>>>>>>>>>>>>>>>>>>>>>>>>
File: N_00.recpot [ 2001 points up to Gmax=  52.9 (1/bohr)]
  Atomic number:  7;  ionic charge:  5.000000
    Shell 1: l = 0; rc = 1.48 bohr
File: H_04.recpot [ 2001 points up to Gmax=  52.9 (1/bohr)]
  Atomic number:  1;  ionic charge:  1.000000
    Local potential
File: C_01.recpot [ 2001 points up to Gmax=  52.9 (1/bohr)]
  Atomic number:  6;  ionic charge:  4.000000
    Shell 1: l = 0; rc = 1.48 bohr
File: S_00.recpot [ 2001 points up to Gmax=  52.9 (1/bohr)]
  Atomic number: 16;  ionic charge:  6.000000
    Shell 1: l = 0; rc = 1.90 bohr
    Shell 2: l = 2; rc = 1.84 bohr
File: O_02.recpot [ 2001 points up to Gmax=  52.9 (1/bohr)]
  Atomic number:  8;  ionic charge:  6.000000
    Shell 1: l = 0; rc = 1.31 bohr
<<<<<<<<<<<<<<<<<<<<<<<<<<<<<<<<<<<<<<<<>>>>>>>>>>>>>>>>>>>>>>>>>>>>>>>>>>>>>>>>

-------------------------- Atom counting information ---------------------------
Symbol    Natoms    Nngwfs    Nprojs
  N        236       944       236
  H       1311      1311         0
  C        810      3240       810
  S          6        54        36
  O        239       956       239
.......   ......    ......    ......
Totals:   2602      6505      1321
--------------------------------------------------------------------------------

=============================== PSINC grid sizes ===============================
                      Simulation cell:  273 x 286 x 320
                              FFT-box:   99 x  99 x  99
                                  PPD:    7 x  11 x   1
Grid space d1=  0.504736263736a0 (KE cutoff=  29.81776Eh = 811.38248eV)
Grid space d2=  0.501741258741a0 (KE cutoff=  30.17480Eh = 821.09803eV)
Grid space d3=  0.507268750000a0 (KE cutoff=  29.52078Eh = 803.30122eV)
================================================================================

********************* Fourier parallelisation information **********************
       Coarse grid (whole simulation cell) dimensions:    273   286   320
          Real-space ('12') slabs/node (min max mean):      8     8     8
         Recip-space ('23') slabs/node (min max mean):      3     4     3
********************************************************************************

********************* Fourier parallelisation information **********************
       Double grid (whole simulation cell) dimensions:    546   572   640
          Real-space ('12') slabs/node (min max mean):     16    16    16
         Recip-space ('23') slabs/node (min max mean):      6     7     6
********************************************************************************
ONETEP fine grid is 546 x 572 x 640 gridpoints, 137.7930 x 143.4980 x 162.3260 bohr.
FD multigrid is     545 x 569 x 633 gridpoints, 137.5406 x 142.7454 x 160.5506 bohr.


Calculating local pseudopotential in open BC on a radial grid ...
Discrepancy between calculated realspace psloc and -Z/x on [5a0,256.765a0]:
max |rel. diff| # avg |rel. diff| #  avg rel. diff #  f # pseudopotential file
 0.000264355666    0.000005356805   0.000000075547   55  'N_00.recpot'
 0.000427657517    0.000018087302  -0.000000066616   55  'H_04.recpot'
 0.000358839426    0.000016594043   0.000000139912   55  'C_01.recpot'
 0.000443229003    0.000019135969   0.000000483695   55  'S_00.recpot'
 0.000720897146    0.000029350350   0.000000143497   55  'O_02.recpot'
... done

Atom SCF Calculation for N  : Z (AE atom) =   7 : Z (PS atom) =   5
Config String:
Orbitals (num,occ):  2     2.00 3.00
Orbitals   (num,l):  2        0    1
Real-space Grid (nr,dr,rmax): 1203    0.0066555740    8.0000000000
Spherical Bessel Basis (nsws,lmax,cutoff):   47    1  176.3951722778
Confining potential (l,width,scale):  0    3.0000000000  100.0000000000
Confining potential (l,width,scale):  1    3.0000000000  100.0000000000
  1         -4.7312375307   -3.4155304497    7.0523828109   -1.9351020946
  2         -9.7309464766   -2.0532547791    8.2966052865   -2.2494486027
  3         -9.6627394379   -2.1124926340    8.2327997121   -2.2369778124
  4         -9.6814993499   -2.1215521045    8.2229805960   -2.2365178421
  5         -9.6843326483   -2.1250939529    8.2191374534   -2.2362718126
  6         -9.6859628709   -2.1267894855    8.2172963573   -2.2362066344
  7         -9.6867347035   -2.1276425665    8.2163697352   -2.2361903369
  8         -9.6870802100   -2.1280764625    8.2158983890   -2.2361891460
  9         -9.6872290423   -2.1282977424    8.2156580222   -2.2361920435
 10         -9.6872901988   -2.1284107021    8.2155353368   -2.2361953393
 11         -9.6873135296   -2.1284684031    8.2154726809   -2.2361979819
 12         -9.6873212476   -2.1284978948    8.2154406648   -2.2361998431
 13         -9.6873229586   -2.1285129774    8.2154242957   -2.2362010676
 14         -9.6873226456   -2.1285206957    8.2154159216   -2.2362018403
 15         -9.6873218534   -2.1285246479    8.2154116349   -2.2362023142
 16         -9.6873212599   -2.1285262679    8.2154098784   -2.2362025420
 17         -9.6873207834   -2.1285272564    8.2154088068   -2.2362026955
 18         -9.6873204210   -2.1285278597    8.2154081529   -2.2362027982
 19         -9.6873201550   -2.1285282280    8.2154077538   -2.2362028667
 20         -9.6873199645   -2.1285284529    8.2154075102   -2.2362029121
 21         -9.6873198305   -2.1285285903    8.2154073614   -2.2362029421
 22         -9.6873197377   -2.1285286742    8.2154072705   -2.2362029618
Atom SCF converged after  22 iterations to a total energy of     -9.68731974

Atom SCF Calculation for H  : Z (AE atom) =   1 : Z (PS atom) =   1
Config String:
Orbitals (num,occ):  1     1.00
Orbitals   (num,l):  1        0
Real-space Grid (nr,dr,rmax): 1203    0.0066555740    8.0000000000
Spherical Bessel Basis (nsws,lmax,cutoff):   47    0  176.3951722778
Confining potential (l,width,scale):  0    3.0000000000  100.0000000000
  1         -0.3194257691   -0.2393854593    0.2820953124   -0.2424203209
  2         -0.3951823392   -0.2377116493    0.2886404059   -0.2475147891
  3         -0.4317044583   -0.2352244387    0.2921333887   -0.2514046172
  4         -0.4470703708   -0.2341892222    0.2934391879   -0.2531009782
  5         -0.4532132900   -0.2338556667    0.2938388426   -0.2537313520
  6         -0.4556579251   -0.2337612552    0.2939448584   -0.2539550462
  7         -0.4566418315   -0.2337377355    0.2939680120   -0.2540342273
  8         -0.4570437922   -0.2337331116    0.2939708287   -0.2540627372
  9         -0.4572102946   -0.2337328328    0.2939698291   -0.2540732650
 10         -0.4572800424   -0.2337332404    0.2939687193   -0.2540772588
 11         -0.4573095100   -0.2337335791    0.2939680317   -0.2540788122
 12         -0.4573220379   -0.2337337762    0.2939676699   -0.2540794294
 13         -0.4573273880   -0.2337338775    0.2939674931   -0.2540796787
 14         -0.4573296803   -0.2337339266    0.2939674099   -0.2540797808
 15         -0.4573306647   -0.2337339495    0.2939673718   -0.2540798230
 16         -0.4573310882   -0.2337339601    0.2939673545   -0.2540798406
 17         -0.4573312706   -0.2337339649    0.2939673467   -0.2540798479
 18         -0.4573313493   -0.2337339670    0.2939673433   -0.2540798510
Atom SCF converged after  18 iterations to a total energy of     -0.45733135

Atom SCF Calculation for C  : Z (AE atom) =   6 : Z (PS atom) =   4
Config String:
Orbitals (num,occ):  2     2.00 2.00
Orbitals   (num,l):  2        0    1
Real-space Grid (nr,dr,rmax): 1203    0.0066555740    8.0000000000
Spherical Bessel Basis (nsws,lmax,cutoff):   47    1  176.3951722778
Confining potential (l,width,scale):  0    3.0000000000  100.0000000000
Confining potential (l,width,scale):  1    3.0000000000  100.0000000000
  1         -5.2976922011   -1.3069684169    4.5135249990   -1.4493313817
  2         -5.3721716256   -1.3429755895    4.4750154450   -1.4361613026
  3         -5.3809959565   -1.3617365618    4.4541655428   -1.4305930207
  4         -5.3918938866   -1.3667928461    4.4484735100   -1.4294652294
  5         -5.3956096428   -1.3688539142    4.4461376126   -1.4290734646
  6         -5.3968271862   -1.3696852393    4.4451910874   -1.4289366866
  7         -5.3972028401   -1.3700178062    4.4448112275   -1.4288900460
  8         -5.3973067903   -1.3701500158    4.4446598370   -1.4288749220
  9         -5.3973286940   -1.3702023868    4.4445997329   -1.4288704293
 10         -5.3973289850   -1.3702230869    4.4445759233   -1.4288693188
 11         -5.3973254264   -1.3702312560    4.4445665049   -1.4288691775
 12         -5.3973224003   -1.3702344755    4.4445627836   -1.4288692549
 13         -5.3973208708   -1.3702354890    4.4445616088   -1.4288693270
 14         -5.3973198783   -1.3702360102    4.4445610034   -1.4288693814
 15         -5.3973192535   -1.3702362780    4.4445606917   -1.4288694190
 16         -5.3973188684   -1.3702364155    4.4445605313   -1.4288694437
 17         -5.3973186349   -1.3702364860    4.4445604489   -1.4288694595
 18         -5.3973184951   -1.3702365221    4.4445604065   -1.4288694693
 19         -5.3973184122   -1.3702365405    4.4445603848   -1.4288694753
Atom SCF converged after  19 iterations to a total energy of     -5.39731841

Atom SCF Calculation for S  : Z (AE atom) =  16 : Z (PS atom) =   6
Config String:
Orbitals (num,occ):  3     2.00 4.00 0.00
Orbitals   (num,l):  3        0    1    2
Real-space Grid (nr,dr,rmax): 1203    0.0066555740    8.0000000000
Spherical Bessel Basis (nsws,lmax,cutoff):   47    2  176.3951722778
Confining potential (l,width,scale):  0    3.0000000000  100.0000000000
Confining potential (l,width,scale):  1    3.0000000000  100.0000000000
Confining potential (l,width,scale):  2    3.0000000000  100.0000000000
  1        -12.4735062396   -1.0328741412   10.1554312477   -2.4512393157
  2         -9.9458301913   -2.4607392455    8.3041325857   -2.0306994528
  3        -10.1450417646   -2.2931184565    8.4831893826   -2.0812538287
  4        -10.1528335592   -2.2733105793    8.5050388867   -2.0896035179
  5        -10.1571940363   -2.2633716629    8.5160794258   -2.0939370707
  6        -10.1594380571   -2.2584938667    8.5215163935   -2.0961289008
  7        -10.1605856507   -2.2561081821    8.5241804044   -2.0972291378
  8        -10.1611799191   -2.2549395235    8.5254868240   -2.0977806248
  9        -10.1614918752   -2.2543658586    8.5261285885   -2.0980571586
 10        -10.1616572884   -2.2540839121    8.5264441898   -2.0981959233
 11        -10.1617455602   -2.2539453058    8.5265994231   -2.0982656006
 12        -10.1617928447   -2.2538772062    8.5266757320   -2.0983006047
 13        -10.1618182292   -2.2538437891    8.5267131983   -2.0983181961
 14        -10.1618318741   -2.2538274201    8.5267315620   -2.0983270391
 15        -10.1618392144   -2.2538194197    8.5267405433   -2.0983314852
 16        -10.1618431651   -2.2538155200    8.5267449245   -2.0983337210
 17        -10.1618452923   -2.2538136252    8.5267470551   -2.0983348455
 18        -10.1618464380   -2.2538127080    8.5267480875   -2.0983354110
 19        -10.1618470552   -2.2538122659    8.5267485856   -2.0983356955
 20        -10.1618473878   -2.2538120540    8.5267488248   -2.0983358386
 21        -10.1618475670   -2.2538119530    8.5267489389   -2.0983359106
 22        -10.1618476637   -2.2538119053    8.5267489929   -2.0983359468
Atom SCF converged after  22 iterations to a total energy of    -10.16184766

Atom SCF Calculation for O  : Z (AE atom) =   8 : Z (PS atom) =   6
Config String:
Orbitals (num,occ):  2     2.00 4.00
Orbitals   (num,l):  2        0    1
Real-space Grid (nr,dr,rmax): 1203    0.0066555740    8.0000000000
Spherical Bessel Basis (nsws,lmax,cutoff):   47    1  176.3951722778
Confining potential (l,width,scale):  0    3.0000000000  100.0000000000
Confining potential (l,width,scale):  1    3.0000000000  100.0000000000
  1         -1.8735052164   -7.5539365035   10.1554312477   -2.4512393157
  2        -16.0318313751   -3.1285771268   13.6395848164   -3.2358799643
  3        -15.9524020423   -3.0762819706   13.6967272503   -3.2536856837
  4        -15.8521515939   -3.0781493909   13.6951909330   -3.2561700440
  5        -15.8357139793   -3.0748501933   13.6988803334   -3.2580493133
  6        -15.8246052853   -3.0740779781   13.6997881576   -3.2588327446
  7        -15.8189019501   -3.0737449687   13.7001869911   -3.2592378801
  8        -15.8159785510   -3.0736026016   13.7003615168   -3.2594475790
  9        -15.8144776168   -3.0735437994   13.7004360379   -3.2595560735
 10        -15.8137058024   -3.0735207882   13.7004667348   -3.2596122456
 11        -15.8133083127   -3.0735125946   13.7004786868   -3.2596413656
 12        -15.8131032938   -3.0735102195   13.7004828997   -3.2596564858
 13        -15.8129973902   -3.0735099286   13.7004840891   -3.2596643505
 14        -15.8129426040   -3.0735102506   13.7004842061   -3.2596684489
 15        -15.8129142203   -3.0735106556   13.7004840157   -3.2596705887
 16        -15.8128994940   -3.0735109855   13.7004837906   -3.2596717080
 17        -15.8128918425   -3.0735112169   13.7004836103   -3.2596722946
 18        -15.8128878614   -3.0735113674   13.7004834848   -3.2596726026
 19        -15.8128857871   -3.0735114608   13.7004834035   -3.2596727646
 20        -15.8128847048   -3.0735115170   13.7004833533   -3.2596728500
 21        -15.8128841394   -3.0735115501   13.7004833231   -3.2596728951
 22        -15.8128838436   -3.0735115693   13.7004833054   -3.2596729190
 23        -15.8128836887   -3.0735115802   13.7004832951   -3.2596729316
 24        -15.8128836074   -3.0735115864   13.7004832893   -3.2596729383
Atom SCF converged after  24 iterations to a total energy of    -15.81288361

========================== Calculation in vacuum ==============================
= Adjusting the following parameters: 
= is_implicit_solvent: F
= is_include_apolar: F
= write_denskern: T
= write_tightbox_ngwfs: T
= restart read filename prefix: ""
= restart write filename prefix: "vacuum_"
===============================================================================

Determining parallel strategy ...
... using space-filling curve
... NGWF load balancing: max    163;  min    162;  average    163
... Projector load balancing: max     36;  min     32;  average     33
... done
Calculating direct Ion-Ion energy ...
Ion-Ion Energy        :    824211.82941359351389
======================= Empirical dispersion information =======================
Model : Elstner
Dispersion Correction Energy: -0.32150751E+01 Hartree
================================================================================
Basis initialisation ...... NGWF spheres initialised
... Projector spheres initialised
... NGWF tight boxes initialised
... Tight-boxes gathered
... NGWF basis size (local,global):    1109625  44375323
... Nonlocal pseudopotential projector initialisation
... done

========================== Sparse matrix information ===========================
                        Overlap matrix filling:   6.70%
                        Density kernel filling: 100.00%
              NGWF-Proj overlap matrix filling:   1.74%
                    Hamiltonian matrix filling:   7.51%
                  NGWF diagonal matrix filling:   0.05%
                             KS matrix filling: 100.00% 
                           KSKS matrix filling: 100.00% 
================================================================================

Sparse matrix initialisation ... done

Generating smeared ion density ... done
Smeared ion self correction:     -14457.169564
Smeared ion non-self correction: -824163.713204
NGWF initialisation ...... done
============ Calculation of NGWF S^-1 using Hotelling algorithm ================ 
         Iteration  |  Frobenius norm and Maximum abs value    (of I-S*S_n^-1)   
               1       0.78570448E+02     0.98326648E+00
               2       0.76783410E+02     0.96696381E+00
               3       0.73865957E+02     0.93557596E+00
               4       0.69677807E+02     0.87718721E+00
               5       0.64419514E+02     0.77617281E+00
               6       0.58474337E+02     0.70835824E+00
               7       0.52450138E+02     0.67345755E+00
               8       0.46881868E+02     0.64514771E+00
               9       0.40901558E+02     0.60539186E+00
              10       0.32796098E+02     0.53804654E+00
              11       0.22319805E+02     0.44893637E+00
              12       0.11619302E+02     0.31510237E+00
              13       0.39388143E+01     0.15922559E+00
              14       0.65138828E+00     0.42526530E-01
              15       0.33619171E-01     0.31113007E-02
              16       0.21544299E-03     0.26908705E-04
              17       0.16203341E-07     0.21780835E-08
              18       0.10066350E-12     0.52625073E-14
================================================================================
Calculating local pseudopotential in open BC on the fine real space grid ...
... done

MG BCs: +ve charge blocks (gridpoints):     20398 (   16057990).
MG BCs: -ve charge blocks (gridpoints):      8098 (    1078313).
MG BCs:     Elided blocks (gridpoints):    180242 (  179160162).
MG BCs: Computational effort saved:  99.9855%.
MG BCs: Charge after coarse-graining:           -9.0002235.
MG DL_MG: Calling solver with defect correction order = 8
MG DL_MG: Solver finished
MG Hartree energy from (\int phi*rho dr):              1462.716729
MG Hartree energy from (\int eps (grad phi)^2 dr):     1462.102241
MG Discrepancy due to finite box and discretization:     -0.614487 (  -0.04201%)
MG Correction to account for finite box:                  0.462073
MG Remaining discrepancy, due to discretization:         -0.152415 (  -0.01042%)
Up spin density kernel initialisation ... 
======= Optimisation of K by Palser-Manolopoulos canonical purification ======== 
         Iteration  |  Band structure energy |    c_n   
               1       -2576.12820752816697    0.5271119
               2       -2751.54303582347256    0.5171775
               3       -2931.67761646800545    0.5152200
               4       -3082.66196052304758    0.5282168
               5       -3176.02529938405041    0.5637259
               6       -3215.17920835436280    0.6089586
               7       -3228.38714822118982    0.6194742
               8       -3234.11835214486155    0.6144035
               9       -3236.92483791614904    0.6242148
              10       -3238.08311831296214    0.6513466
              11       -3238.50995022196412    0.6819065
              12       -3238.67541583633192    0.6814436
              13       -3238.75925506117346    0.6488098
              14       -3238.81057605780779    0.6087907
              15       -3238.83937661660275    0.5799882
              16       -3238.85214580585898    0.5853042
              17       -3238.85638126619415    0.5831230
              18       -3238.85799109677782    0.5410240
              19       -3238.85885915309700    0.5092602
              20       -3238.85923375391076    0.5004831
              21       -3238.85931462692588    0.5000013
              22       -3238.85931848918972    0.5000007
              23       -3238.85931849791587    0.5000007
Termination criterion satisfied: band energy change below threshold.
Final occupancy bounds: [    0.00000000000000:    1.00000000000000]
Closest occupancy to 0.5:     1.00000000000000
================================================================================
... done

Writing density kernel to file "host_36961.vacuum_dkn" ... done

>>> Optimising kernel for current NGWFs:
   Initial electron number for spin 1:    7192.00000000
     Final electron number for spin 1:    7192.00000000

=================== Penalty functional idempotency correction ==================
 RMS occupancy error at iteration   1:  0.000000 (step -0.5000 Ne1=   7192.0000)
            Final RMS occupancy error   :  0.000000 (Ne1=   7192.0000)
               Final occupancy bounds   : [  0.0000,  1.0000]
================================================================================

................................................................................
<<<<<<<<<<<<<< LNV (Original version) density kernel optimisation >>>>>>>>>>>>>>
~~~~~~~~~~~~~~~~~~~~~~~~~~~~~~~~~~~~~~~~~~~~~~~~~~~~~~~~~~~~~~~~~~~~~~~~~~~~~~~~
   iter  |      energy (Eh)       | rms gradient |  commutator  |   dE (Eh)
MG BCs: +ve charge blocks (gridpoints):     30720 (   17183495).
MG BCs: -ve charge blocks (gridpoints):      8398 (    1111571).
MG BCs:     Elided blocks (gridpoints):    169913 (  178001399).
MG BCs: Computational effort saved:  99.9801%.
MG BCs: Charge after coarse-graining:           -9.0009400.
MG DL_MG: Calling solver with defect correction order = 8
MG DL_MG: Solver finished
MG Hartree energy from (\int phi*rho dr):              1419.139551
MG Hartree energy from (\int eps (grad phi)^2 dr):     1418.465455
MG Discrepancy due to finite box and discretization:     -0.674096 (  -0.04750%)
MG Correction to account for finite box:                  0.479482
MG Remaining discrepancy, due to discretization:         -0.194614 (  -0.01371%)
      ideal mu1:      -0.700111747607
             Q0:  -11505.570328288479
             G0:    -145.777763037352
   RMS gradient:       0.001856087047
MG BCs: +ve charge blocks (gridpoints):     30719 (   17266642).
MG BCs: -ve charge blocks (gridpoints):      8316 (    1090794).
MG BCs:     Elided blocks (gridpoints):    169911 (  177939029).
MG BCs: Computational effort saved:  99.9801%.
MG BCs: Charge after coarse-graining:           -9.0009597.
MG DL_MG: Calling solver with defect correction order = 8
MG DL_MG: Solver finished
MG Hartree energy from (\int phi*rho dr):              1443.866288
MG Hartree energy from (\int eps (grad phi)^2 dr):     1443.209665
MG Discrepancy due to finite box and discretization:     -0.656623 (  -0.04548%)
MG Correction to account for finite box:                  0.477868
MG Remaining discrepancy, due to discretization:         -0.178755 (  -0.01238%)
     Trial step:       0.500000000000
             Q1:  -11517.261281161569
 Quadratic coef:      61.197928645586
 Linear coef   :     -72.888881518676
           Qmin:  -11527.273632495928
Quadratic minimum step length (  0.297758776857) accepted
    Initial Ne1:    7192.00000000
      Final Ne1:    7192.00000000

=================== Penalty functional idempotency correction ==================
 RMS occupancy error at iteration   1:  0.003446 (step -0.4883 Ne1=   7192.0000)
 RMS occupancy error at iteration   2:  0.000027 (step -0.5001 Ne1=   7192.0000)
            Final RMS occupancy error   :  0.000000 (Ne1=   7192.0000)
               Final occupancy bounds   : [  0.0000,  1.0000]
================================================================================

    1        -1.150557032829E+04     1.8561E-03     1.6788E-03
MG BCs: +ve charge blocks (gridpoints):     30710 (   17234488).
MG BCs: -ve charge blocks (gridpoints):      8344 (    1099527).
MG BCs:     Elided blocks (gridpoints):    169921 (  177962450).
MG BCs: Computational effort saved:  99.9801%.
MG BCs: Charge after coarse-graining:           -9.0009517.
MG DL_MG: Calling solver with defect correction order = 8
MG DL_MG: Solver finished
MG Hartree energy from (\int phi*rho dr):              1425.893356
MG Hartree energy from (\int eps (grad phi)^2 dr):     1425.230636
MG Discrepancy due to finite box and discretization:     -0.662720 (  -0.04648%)
MG Correction to account for finite box:                  0.478388
MG Remaining discrepancy, due to discretization:         -0.184332 (  -0.01293%)
      ideal mu1:      -0.746307472244
             Q0:  -11527.681043775403
             G0:     -12.369617427205
   RMS gradient:       0.000537002238
MG BCs: +ve charge blocks (gridpoints):     30718 (   17251152).
MG BCs: -ve charge blocks (gridpoints):      8331 (    1094447).
MG BCs:     Elided blocks (gridpoints):    169913 (  177950866).
MG BCs: Computational effort saved:  99.9801%.
MG BCs: Charge after coarse-graining:           -9.0009555.
MG DL_MG: Calling solver with defect correction order = 8
MG DL_MG: Solver finished
MG Hartree energy from (\int phi*rho dr):              1430.964469
MG Hartree energy from (\int eps (grad phi)^2 dr):     1430.306135
MG Discrepancy due to finite box and discretization:     -0.658333 (  -0.04601%)
MG Correction to account for finite box:                  0.477199
MG Remaining discrepancy, due to discretization:         -0.181134 (  -0.01266%)
     Trial step:       0.385848919175
             Q1:  -11530.574398956611
 Quadratic coef:       1.879448333684
 Linear coef   :      -4.772803514892
           Qmin:  -11530.711142153674
Quadratic minimum step length (  0.489925965149) accepted
    Initial Ne1:    7191.99988992
      Final Ne1:    7192.00000000

=================== Penalty functional idempotency correction ==================
 RMS occupancy error at iteration   1:  0.001841 (step -0.4928 Ne1=   7192.0000)
 RMS occupancy error at iteration   2:  0.000013 (step -0.5003 Ne1=   7192.0000)
            Final RMS occupancy error   :  0.000000 (Ne1=   7192.0000)
               Final occupancy bounds   : [  0.0000,  1.0000]
================================================================================

    2        -1.152768104378E+04     5.3700E-04     4.8571E-04    -2.2111E+01
MG BCs: +ve charge blocks (gridpoints):     30720 (   17255909).
MG BCs: -ve charge blocks (gridpoints):      8329 (    1092908).
MG BCs:     Elided blocks (gridpoints):    169911 (  177947648).
MG BCs: Computational effort saved:  99.9801%.
MG BCs: Charge after coarse-graining:           -9.0009564.
MG DL_MG: Calling solver with defect correction order = 8
MG DL_MG: Solver finished
MG Hartree energy from (\int phi*rho dr):              1432.383798
MG Hartree energy from (\int eps (grad phi)^2 dr):     1431.726567
MG Discrepancy due to finite box and discretization:     -0.657230 (  -0.04588%)
MG Correction to account for finite box:                  0.476896
MG Remaining discrepancy, due to discretization:         -0.180335 (  -0.01259%)
      ideal mu1:      -0.771058221310
             Q0:  -11530.749620456365
             G0:      -1.961365946914
   RMS gradient:       0.000213886601
MG BCs: +ve charge blocks (gridpoints):     30721 (   17255251).
MG BCs: -ve charge blocks (gridpoints):      8337 (    1093953).
MG BCs:     Elided blocks (gridpoints):    169910 (  177947261).
MG BCs: Computational effort saved:  99.9801%.
MG BCs: Charge after coarse-graining:           -9.0009561.
MG DL_MG: Calling solver with defect correction order = 8
MG DL_MG: Solver finished
MG Hartree energy from (\int phi*rho dr):              1430.181235
MG Hartree energy from (\int eps (grad phi)^2 dr):     1429.524716
MG Discrepancy due to finite box and discretization:     -0.656519 (  -0.04590%)
MG Correction to account for finite box:                  0.476373
MG Remaining discrepancy, due to discretization:         -0.180146 (  -0.01260%)
     Trial step:       0.434784319092
             Q1:  -11531.249216057477
 Quadratic coef:       0.353175556607
 Linear coef   :      -0.852771157719
           Qmin:  -11531.264391817118
Quadratic minimum step length (  0.524911082058) accepted
    Initial Ne1:    7191.99988317
      Final Ne1:    7192.00000000

=================== Penalty functional idempotency correction ==================
 RMS occupancy error at iteration   1:  0.000646 (step -0.4969 Ne1=   7192.0000)
 RMS occupancy error at iteration   2:  0.000003 (step -0.5000 Ne1=   7192.0000)
            Final RMS occupancy error   :  0.000000 (Ne1=   7192.0000)
               Final occupancy bounds   : [  0.0000,  1.0000]
================================================================================

    3        -1.153074962046E+04     2.1389E-04     1.9346E-04    -3.0686E+00
MG BCs: +ve charge blocks (gridpoints):     30723 (   17255186).
MG BCs: -ve charge blocks (gridpoints):      8339 (    1094159).
MG BCs:     Elided blocks (gridpoints):    169908 (  177947120).
MG BCs: Computational effort saved:  99.9801%.
MG BCs: Charge after coarse-graining:           -9.0009560.
MG DL_MG: Calling solver with defect correction order = 8
MG DL_MG: Solver finished
MG Hartree energy from (\int phi*rho dr):              1429.734460
MG Hartree energy from (\int eps (grad phi)^2 dr):     1429.078078
MG Discrepancy due to finite box and discretization:     -0.656382 (  -0.04591%)
MG Correction to account for finite box:                  0.476266
MG Remaining discrepancy, due to discretization:         -0.180117 (  -0.01260%)
      ideal mu1:      -0.771765445425
             Q0:  -11531.269289424177
             G0:      -0.507432344427
   RMS gradient:       0.000108934833
MG BCs: +ve charge blocks (gridpoints):     30721 (   17256105).
MG BCs: -ve charge blocks (gridpoints):      8334 (    1093851).
MG BCs:     Elided blocks (gridpoints):    169910 (  177946509).
MG BCs: Computational effort saved:  99.9801%.
MG BCs: Charge after coarse-graining:           -9.0009562.
MG DL_MG: Calling solver with defect correction order = 8
MG DL_MG: Solver finished
MG Hartree energy from (\int phi*rho dr):              1430.977695
MG Hartree energy from (\int eps (grad phi)^2 dr):     1430.321397
MG Discrepancy due to finite box and discretization:     -0.656298 (  -0.04586%)
MG Correction to account for finite box:                  0.476081
MG Remaining discrepancy, due to discretization:         -0.180218 (  -0.01259%)
     Trial step:       0.477727021840
             Q1:  -11531.392618537531
 Quadratic coef:       0.119085029335
 Linear coef   :      -0.242414142689
           Qmin:  -11531.392656351371
Quadratic minimum step length (  0.486239903896) accepted
    Initial Ne1:    7191.99997207
      Final Ne1:    7192.00000000

=================== Penalty functional idempotency correction ==================
 RMS occupancy error at iteration   1:  0.000269 (step -0.4965 Ne1=   7192.0000)
 RMS occupancy error at iteration   2:  0.000002 (step -0.5000 Ne1=   7192.0000)
            Final RMS occupancy error   :  0.000000 (Ne1=   7192.0000)
               Final occupancy bounds   : [  0.0000,  1.0000]
================================================================================

    4        -1.153126928942E+04     1.0893E-04     9.8529E-05    -5.1967E-01
MG BCs: +ve charge blocks (gridpoints):     30721 (   17256108).
MG BCs: -ve charge blocks (gridpoints):      8334 (    1093861).
MG BCs:     Elided blocks (gridpoints):    169910 (  177946496).
MG BCs: Computational effort saved:  99.9801%.
MG BCs: Charge after coarse-graining:           -9.0009562.
MG DL_MG: Calling solver with defect correction order = 8
MG DL_MG: Solver finished
MG Hartree energy from (\int phi*rho dr):              1431.000293
MG Hartree energy from (\int eps (grad phi)^2 dr):     1430.343996
MG Discrepancy due to finite box and discretization:     -0.656297 (  -0.04586%)
MG Correction to account for finite box:                  0.476077
MG Remaining discrepancy, due to discretization:         -0.180220 (  -0.01259%)
      ideal mu1:      -0.772146653676
             Q0:  -11531.393283108249
             G0:      -0.171682289042
   RMS gradient:       0.000063539470
MG BCs: +ve charge blocks (gridpoints):     30718 (   17256243).
MG BCs: -ve charge blocks (gridpoints):      8335 (    1093661).
MG BCs:     Elided blocks (gridpoints):    169913 (  177946561).
MG BCs: Computational effort saved:  99.9801%.
MG BCs: Charge after coarse-graining:           -9.0009563.
MG DL_MG: Calling solver with defect correction order = 8
MG DL_MG: Solver finished
MG Hartree energy from (\int phi*rho dr):              1431.451714
MG Hartree energy from (\int eps (grad phi)^2 dr):     1430.795378
MG Discrepancy due to finite box and discretization:     -0.656336 (  -0.04585%)
MG Correction to account for finite box:                  0.475956
MG Remaining discrepancy, due to discretization:         -0.180380 (  -0.01260%)
     Trial step:       0.481964667987
             Q1:  -11531.445248690085
 Quadratic coef:       0.030779215602
 Linear coef   :      -0.082744797438
           Qmin:  -11531.448894511668
Quadratic minimum step length (  0.647840889459) accepted
    Initial Ne1:    7191.99998741
      Final Ne1:    7192.00000000

=================== Penalty functional idempotency correction ==================
 RMS occupancy error at iteration   1:  0.000315 (step -0.4826 Ne1=   7192.0000)
 RMS occupancy error at iteration   2:  0.000006 (step -0.5000 Ne1=   7192.0000)
            Final RMS occupancy error   :  0.000000 (Ne1=   7192.0000)
               Final occupancy bounds   : [  0.0000,  1.0000]
================================================================================

    5        -1.153139328311E+04     6.3539E-05     5.7470E-05    -1.2399E-01
MG BCs: +ve charge blocks (gridpoints):     30717 (   17256316).
MG BCs: -ve charge blocks (gridpoints):      8335 (    1093605).
MG BCs:     Elided blocks (gridpoints):    169914 (  177946544).
MG BCs: Computational effort saved:  99.9801%.
MG BCs: Charge after coarse-graining:           -9.0009562.
MG DL_MG: Calling solver with defect correction order = 8
MG DL_MG: Solver finished
MG Hartree energy from (\int phi*rho dr):              1431.605913
MG Hartree energy from (\int eps (grad phi)^2 dr):     1430.949565
MG Discrepancy due to finite box and discretization:     -0.656348 (  -0.04585%)
MG Correction to account for finite box:                  0.475913
MG Remaining discrepancy, due to discretization:         -0.180435 (  -0.01260%)
      ideal mu1:      -0.772263206771
             Q0:  -11531.448795125005
             G0:      -0.131473234153
   RMS gradient:       0.000055818432
MG BCs: +ve charge blocks (gridpoints):     30719 (   17255664).
MG BCs: -ve charge blocks (gridpoints):      8337 (    1093977).
MG BCs:     Elided blocks (gridpoints):    169912 (  177946824).
MG BCs: Computational effort saved:  99.9801%.
MG BCs: Charge after coarse-graining:           -9.0009561.
MG DL_MG: Calling solver with defect correction order = 8
MG DL_MG: Solver finished
MG Hartree energy from (\int phi*rho dr):              1430.473846
MG Hartree energy from (\int eps (grad phi)^2 dr):     1429.817599
MG Discrepancy due to finite box and discretization:     -0.656248 (  -0.04588%)
MG Correction to account for finite box:                  0.475821
MG Remaining discrepancy, due to discretization:         -0.180426 (  -0.01261%)
     Trial step:       0.558781190804
             Q1:  -11531.507156083127
 Quadratic coef:       0.015103812217
 Linear coef   :      -0.073464770339
           Qmin:  -11531.538128076241
Quadratic minimum step length (  1.358952669145) accepted
    Initial Ne1:    7191.99995801
      Final Ne1:    7192.00000000

=================== Penalty functional idempotency correction ==================
 RMS occupancy error at iteration   1:  0.002810 (step -0.3499 Ne1=   7192.0000)
 RMS occupancy error at iteration   2:  0.000174 (step -0.4947 Ne1=   7192.0000)
 RMS occupancy error at iteration   3:  0.000002 (step -0.5000 Ne1=   7192.0000)
            Final RMS occupancy error   :  0.000000 (Ne1=   7192.0000)
               Final occupancy bounds   : [  0.0000,  1.0000]
================================================================================

    6        -1.153144879513E+04     5.5818E-05     5.0486E-05    -5.5512E-02
MG BCs: +ve charge blocks (gridpoints):     30723 (   17254769).
MG BCs: -ve charge blocks (gridpoints):      8338 (    1094484).
MG BCs:     Elided blocks (gridpoints):    169908 (  177947212).
MG BCs: Computational effort saved:  99.9801%.
MG BCs: Charge after coarse-graining:           -9.0009558.
MG DL_MG: Calling solver with defect correction order = 8
MG DL_MG: Solver finished
MG Hartree energy from (\int phi*rho dr):              1428.842450
MG Hartree energy from (\int eps (grad phi)^2 dr):     1428.186334
MG Discrepancy due to finite box and discretization:     -0.656115 (  -0.04592%)
MG Correction to account for finite box:                  0.475705
MG Remaining discrepancy, due to discretization:         -0.180411 (  -0.01263%)
      ideal mu1:      -0.772212447627
             Q0:  -11531.518607956823
             G0:      -0.329055014227
   RMS gradient:       0.000088183424
MG BCs: +ve charge blocks (gridpoints):     30716 (   17257655).
MG BCs: -ve charge blocks (gridpoints):      8328 (    1092948).
MG BCs:     Elided blocks (gridpoints):    169915 (  177945862).
MG BCs: Computational effort saved:  99.9801%.
MG BCs: Charge after coarse-graining:           -9.0009566.
MG DL_MG: Calling solver with defect correction order = 8
MG DL_MG: Solver finished
MG Hartree energy from (\int phi*rho dr):              1432.871158
MG Hartree energy from (\int eps (grad phi)^2 dr):     1432.215294
MG Discrepancy due to finite box and discretization:     -0.655864 (  -0.04577%)
MG Correction to account for finite box:                  0.475594
MG Remaining discrepancy, due to discretization:         -0.180270 (  -0.01258%)
     Trial step:       0.871411034307
             Q1:  -11531.591298879939
 Quadratic coef:       0.214051247174
 Linear coef   :      -0.286742170291
           Qmin:  -11531.614637614801
Quadratic minimum step length (  0.583669318659) accepted
    Initial Ne1:    7191.99999965
      Final Ne1:    7192.00000000

=================== Penalty functional idempotency correction ==================
 RMS occupancy error at iteration   1:  0.000192 (step -0.4857 Ne1=   7192.0000)
 RMS occupancy error at iteration   2:  0.000001 (step -0.5000 Ne1=   7192.0000)
            Final RMS occupancy error   :  0.000000 (Ne1=   7192.0000)
               Final occupancy bounds   : [  0.0000,  1.0000]
================================================================================

    7        -1.153151860796E+04     8.8183E-05     7.9760E-05    -6.9813E-02
MG BCs: +ve charge blocks (gridpoints):     30717 (   17256733).
MG BCs: -ve charge blocks (gridpoints):      8332 (    1093409).
MG BCs:     Elided blocks (gridpoints):    169914 (  177946323).
MG BCs: Computational effort saved:  99.9801%.
MG BCs: Charge after coarse-graining:           -9.0009564.
MG DL_MG: Calling solver with defect correction order = 8
MG DL_MG: Solver finished
MG Hartree energy from (\int phi*rho dr):              1431.532773
MG Hartree energy from (\int eps (grad phi)^2 dr):     1430.876829
MG Discrepancy due to finite box and discretization:     -0.655944 (  -0.04582%)
MG Correction to account for finite box:                  0.475630
MG Remaining discrepancy, due to discretization:         -0.180314 (  -0.01260%)
      ideal mu1:      -0.773313630001
             Q0:  -11531.615037106094
             G0:      -0.251493333489
   RMS gradient:       0.000076970950
MG BCs: +ve charge blocks (gridpoints):     30714 (   17256859).
MG BCs: -ve charge blocks (gridpoints):      8330 (    1093318).
MG BCs:     Elided blocks (gridpoints):    169917 (  177946288).
MG BCs: Computational effort saved:  99.9801%.
MG BCs: Charge after coarse-graining:           -9.0009565.
MG DL_MG: Calling solver with defect correction order = 8
MG DL_MG: Solver finished
MG Hartree energy from (\int phi*rho dr):              1431.773515
MG Hartree energy from (\int eps (grad phi)^2 dr):     1431.117654
MG Discrepancy due to finite box and discretization:     -0.655862 (  -0.04581%)
MG Correction to account for finite box:                  0.475728
MG Remaining discrepancy, due to discretization:         -0.180134 (  -0.01258%)
     Trial step:       0.713173109887
             Q1:  -11531.727858261322
 Quadratic coef:       0.066537127532
 Linear coef   :      -0.179358282760
           Qmin:  -11531.735907193171
Quadratic minimum step length (  0.961219014444) accepted
    Initial Ne1:    7191.99999920
      Final Ne1:    7192.00000000

=================== Penalty functional idempotency correction ==================
 RMS occupancy error at iteration   1:  0.002228 (step -0.3738 Ne1=   7192.0000)
 RMS occupancy error at iteration   2:  0.000111 (step -0.4932 Ne1=   7192.0000)
 RMS occupancy error at iteration   3:  0.000001 (step -0.5000 Ne1=   7192.0000)
            Final RMS occupancy error   :  0.000000 (Ne1=   7192.0000)
               Final occupancy bounds   : [  0.0000,  1.0000]
================================================================================

    8        -1.153161503711E+04     7.6971E-05     6.9618E-05    -9.6429E-02
MG BCs: +ve charge blocks (gridpoints):     30717 (   17256910).
MG BCs: -ve charge blocks (gridpoints):      8329 (    1093287).
MG BCs:     Elided blocks (gridpoints):    169914 (  177946268).
MG BCs: Computational effort saved:  99.9801%.
MG BCs: Charge after coarse-graining:           -9.0009566.
MG DL_MG: Calling solver with defect correction order = 8
MG DL_MG: Solver finished
MG Hartree energy from (\int phi*rho dr):              1431.865502
MG Hartree energy from (\int eps (grad phi)^2 dr):     1431.209662
MG Discrepancy due to finite box and discretization:     -0.655840 (  -0.04580%)
MG Correction to account for finite box:                  0.475765
MG Remaining discrepancy, due to discretization:         -0.180074 (  -0.01258%)
      ideal mu1:      -0.773064058232
             Q0:  -11531.731299170526
             G0:      -0.332305255921
   RMS gradient:       0.000089882917
MG BCs: +ve charge blocks (gridpoints):     30717 (   17255726).
MG BCs: -ve charge blocks (gridpoints):      8334 (    1094137).
MG BCs:     Elided blocks (gridpoints):    169914 (  177946602).
MG BCs: Computational effort saved:  99.9801%.
MG BCs: Charge after coarse-graining:           -9.0009562.
MG DL_MG: Calling solver with defect correction order = 8
MG DL_MG: Solver finished
MG Hartree energy from (\int phi*rho dr):              1429.653343
MG Hartree energy from (\int eps (grad phi)^2 dr):     1428.997353
MG Discrepancy due to finite box and discretization:     -0.655990 (  -0.04588%)
MG Correction to account for finite box:                  0.476053
MG Remaining discrepancy, due to discretization:         -0.179937 (  -0.01259%)
     Trial step:       0.827958666730
             Q1:  -11531.780378002324
 Quadratic coef:       0.226056184842
 Linear coef   :      -0.275135016640
           Qmin:  -11531.815016496636
Quadratic minimum step length (  0.503857971654) accepted
    Initial Ne1:    7191.99999939
      Final Ne1:    7192.00000000

=================== Penalty functional idempotency correction ==================
 RMS occupancy error at iteration   1:  0.003872 (step -0.3219 Ne1=   7192.0000)
 RMS occupancy error at iteration   2:  0.000288 (step -0.4823 Ne1=   7192.0000)
 RMS occupancy error at iteration   3:  0.000005 (step -0.5002 Ne1=   7192.0000)
            Final RMS occupancy error   :  0.000000 (Ne1=   7192.0000)
               Final occupancy bounds   : [  0.0000,  1.0000]
================================================================================

    9        -1.153173129917E+04     8.9883E-05     8.1297E-05    -1.1626E-01
MG BCs: +ve charge blocks (gridpoints):     30716 (   17256076).
MG BCs: -ve charge blocks (gridpoints):      8333 (    1093846).
MG BCs:     Elided blocks (gridpoints):    169915 (  177946543).
MG BCs: Computational effort saved:  99.9801%.
MG BCs: Charge after coarse-graining:           -9.0009564.
MG DL_MG: Calling solver with defect correction order = 8
MG DL_MG: Solver finished
MG Hartree energy from (\int phi*rho dr):              1430.486539
MG Hartree energy from (\int eps (grad phi)^2 dr):     1429.830655
MG Discrepancy due to finite box and discretization:     -0.655884 (  -0.04585%)
MG Correction to account for finite box:                  0.475913
MG Remaining discrepancy, due to discretization:         -0.179971 (  -0.01258%)
      ideal mu1:      -0.772249352617
   10        -1.153183014828E+04     7.1722E-05     6.4871E-05    -9.8849E-02
Finished density kernel iterations (  10)

Writing density kernel to file "host_36961.vacuum_dkn" ... done


>>> Density kernel optimised for the current NGWF basis:
     ~~~~~~~~~~~~~~~~~~~~~~~~~~~~~~~~~~~~~~~~~~~~~~~~~~~~~~~~~~~
     Total energy                =  -1.15318301482793E+04  Eh
     Estimated bandgap           =  -4.6869E-01  Eh
     RMS occupancy error         =   1.8042E-09
     [H,K] commutator            =   6.4871E-05
     Occupancy bounds            = [  0.000:  1.000]
     ~~~~~~~~~~~~~~~~~~~~~~~~~~~~~~~~~~~~~~~~~~~~~~~~~~~~~~~~~~~




################################################################################
########################### NGWF CG iteration  001 #############################
################################################################################
****** Reciprocal space K.E. preconditioning with k_zero =  3.5000 a0^-1 *******

>>> Checking for convergence of NGWFs:   NOT CONVERGED
  ========================================================================
         NGWF RMS gradient =  1.5947E-03 >  2.0000E-06  | above tolerance
  ========================================================================

>>> Improving NGWFs using line search:
============ Calculation of NGWF S^-1 using Hotelling algorithm ================ 
         Iteration  |  Frobenius norm and Maximum abs value    (of I-S*S_n^-1)   
               1       0.19611711E+00     0.50530876E-02
               2       0.89123947E-03     0.35655148E-04
               3       0.31238450E-07     0.20883719E-08
               4       0.12986987E-12     0.57731597E-14
================================================================================
MG BCs: +ve charge blocks (gridpoints):     30211 (   17204849).
MG BCs: -ve charge blocks (gridpoints):      8341 (    1093813).
MG BCs:     Elided blocks (gridpoints):    170422 (  177997803).
MG BCs: Computational effort saved:  99.9804%.
MG BCs: Charge after coarse-graining:           -9.0009589.
MG DL_MG: Calling solver with defect correction order = 8
MG DL_MG: Solver finished
MG Hartree energy from (\int phi*rho dr):              1398.673194
MG Hartree energy from (\int eps (grad phi)^2 dr):     1398.018042
MG Discrepancy due to finite box and discretization:     -0.655152 (  -0.04684%)
MG Correction to account for finite box:                  0.475787
MG Remaining discrepancy, due to discretization:         -0.179365 (  -0.01282%)
============ Calculation of NGWF S^-1 using Hotelling algorithm ================ 
         Iteration  |  Frobenius norm and Maximum abs value    (of I-S*S_n^-1)   
               1       0.18413181E+01     0.39733017E-01
               2       0.70502868E-01     0.20402201E-02
               3       0.14005271E-03     0.71254718E-05
               4       0.10116355E-08     0.93831831E-10
               5       0.10939292E-12     0.73274720E-14
================================================================================
------------------------------- NGWF line search -------------------------------
RMS gradient                =       0.00159467509908
Trial step length           =               0.122474
Gradient along search dir.  =       -276.16450858450
Functional at step 0        =  -11531.83014827931765
Functional at step 1        =  -11563.06685714295600
Functional predicted        =  -11642.40890235878578
Selected quadratic step     =               0.800818
--------------------------- NGWF line search finished --------------------------
                                               
Writing NGWFs to file "host_36961.vacuum_tightbox_ngwfs"....  done

>>> Optimising kernel for current NGWFs:
   Initial electron number for spin 1:    7226.21679234
     Final electron number for spin 1:    7192.00000000

=================== Penalty functional idempotency correction ==================
 RMS occupancy error at iteration   1:  0.004221 (step -0.4864 Ne1=   7192.0000)
 RMS occupancy error at iteration   2:  0.000068 (step -0.5003 Ne1=   7192.0000)
            Final RMS occupancy error   :  0.000000 (Ne1=   7192.0000)
               Final occupancy bounds   : [  0.0000,  1.0000]
================================================================================

................................................................................
<<<<<<<<<<<<<< LNV (Original version) density kernel optimisation >>>>>>>>>>>>>>
~~~~~~~~~~~~~~~~~~~~~~~~~~~~~~~~~~~~~~~~~~~~~~~~~~~~~~~~~~~~~~~~~~~~~~~~~~~~~~~~
   iter  |      energy (Eh)       | rms gradient |  commutator  |   dE (Eh)
MG BCs: +ve charge blocks (gridpoints):     24635 (   16940130).
MG BCs: -ve charge blocks (gridpoints):      8473 (    1078204).
MG BCs:     Elided blocks (gridpoints):    176005 (  178278131).
MG BCs: Computational effort saved:  99.9831%.
MG BCs: Charge after coarse-graining:           -9.0006554.
MG DL_MG: Calling solver with defect correction order = 8
MG DL_MG: Solver finished
MG Hartree energy from (\int phi*rho dr):              1244.622472
MG Hartree energy from (\int eps (grad phi)^2 dr):     1243.966725
MG Discrepancy due to finite box and discretization:     -0.655747 (  -0.05269%)
MG Correction to account for finite box:                  0.475191
MG Remaining discrepancy, due to discretization:         -0.180557 (  -0.01451%)
      ideal mu1:      -0.713163083870
             Q0:  -11641.610563890077
             G0:      -9.756126730995
   RMS gradient:       0.000480166012
MG BCs: +ve charge blocks (gridpoints):     24689 (   16952887).
MG BCs: -ve charge blocks (gridpoints):      8476 (    1075356).
MG BCs:     Elided blocks (gridpoints):    175951 (  178268222).
MG BCs: Computational effort saved:  99.9831%.
MG BCs: Charge after coarse-graining:           -9.0006518.
MG DL_MG: Calling solver with defect correction order = 8
MG DL_MG: Solver finished
MG Hartree energy from (\int phi*rho dr):              1258.058899
MG Hartree energy from (\int eps (grad phi)^2 dr):     1257.398726
MG Discrepancy due to finite box and discretization:     -0.660173 (  -0.05248%)
MG Correction to account for finite box:                  0.474251
MG Remaining discrepancy, due to discretization:         -0.185922 (  -0.01478%)
     Trial step:       0.645889754085
             Q1:  -11641.753818745143
 Quadratic coef:       6.158127440036
 Linear coef   :      -6.301382295102
           Qmin:  -11643.222556302368
Quadratic minimum step length (  0.330457456476) accepted
    Initial Ne1:    7191.99962537
      Final Ne1:    7192.00000000

=================== Penalty functional idempotency correction ==================
 RMS occupancy error at iteration   1:  0.000353 (step -0.4986 Ne1=   7192.0000)
 RMS occupancy error at iteration   2:  0.000000 (step -0.5000 Ne1=   7192.0000)
            Final RMS occupancy error   :  0.000000 (Ne1=   7192.0000)
               Final occupancy bounds   : [  0.0000,  1.0000]
================================================================================

    1        -1.164161056389E+04     4.8017E-04     4.3430E-04
MG BCs: +ve charge blocks (gridpoints):     24655 (   16946771).
MG BCs: -ve charge blocks (gridpoints):      8477 (    1076781).
MG BCs:     Elided blocks (gridpoints):    175985 (  178272913).
MG BCs: Computational effort saved:  99.9831%.
MG BCs: Charge after coarse-graining:           -9.0006535.
MG DL_MG: Calling solver with defect correction order = 8
MG DL_MG: Solver finished
MG Hartree energy from (\int phi*rho dr):              1250.727299
MG Hartree energy from (\int eps (grad phi)^2 dr):     1250.069373
MG Discrepancy due to finite box and discretization:     -0.657925 (  -0.05260%)
MG Correction to account for finite box:                  0.474683
MG Remaining discrepancy, due to discretization:         -0.183242 (  -0.01465%)
      ideal mu1:      -0.719230518146
             Q0:  -11643.203269587830
             G0:      -1.072704112302
   RMS gradient:       0.000159615964
MG BCs: +ve charge blocks (gridpoints):     24661 (   16946111).
MG BCs: -ve charge blocks (gridpoints):      8475 (    1077576).
MG BCs:     Elided blocks (gridpoints):    175979 (  178272778).
MG BCs: Computational effort saved:  99.9831%.
MG BCs: Charge after coarse-graining:           -9.0006535.
MG DL_MG: Calling solver with defect correction order = 8
MG DL_MG: Solver finished
MG Hartree energy from (\int phi*rho dr):              1251.608422
MG Hartree energy from (\int eps (grad phi)^2 dr):     1250.950193
MG Discrepancy due to finite box and discretization:     -0.658229 (  -0.05259%)
MG Correction to account for finite box:                  0.474558
MG Remaining discrepancy, due to discretization:         -0.183671 (  -0.01467%)
     Trial step:       0.461994681029
             Q1:  -11643.440663831425
 Quadratic coef:       0.258189350607
 Linear coef   :      -0.495583594201
           Qmin:  -11643.441082551712
Quadratic minimum step length (  0.443389675035) accepted
    Initial Ne1:    7191.99994444
      Final Ne1:    7192.00000000

=================== Penalty functional idempotency correction ==================
 RMS occupancy error at iteration   1:  0.000175 (step -0.4988 Ne1=   7192.0000)
 RMS occupancy error at iteration   2:  0.000000 (step -0.5000 Ne1=   7192.0000)
            Final RMS occupancy error   :  0.000000 (Ne1=   7192.0000)
               Final occupancy bounds   : [  0.0000,  1.0000]
================================================================================

    2        -1.164320326959E+04     1.5962E-04     1.4437E-04    -1.5927E+00
MG BCs: +ve charge blocks (gridpoints):     24661 (   16946123).
MG BCs: -ve charge blocks (gridpoints):      8475 (    1077544).
MG BCs:     Elided blocks (gridpoints):    175979 (  178272798).
MG BCs: Computational effort saved:  99.9831%.
MG BCs: Charge after coarse-graining:           -9.0006535.
MG DL_MG: Calling solver with defect correction order = 8
MG DL_MG: Solver finished
MG Hartree energy from (\int phi*rho dr):              1251.573064
MG Hartree energy from (\int eps (grad phi)^2 dr):     1250.914848
MG Discrepancy due to finite box and discretization:     -0.658216 (  -0.05259%)
MG Correction to account for finite box:                  0.474563
MG Remaining discrepancy, due to discretization:         -0.183653 (  -0.01467%)
      ideal mu1:      -0.720134504531
             Q0:  -11643.441585672786
             G0:      -0.191291237205
   RMS gradient:       0.000067161806
MG BCs: +ve charge blocks (gridpoints):     24659 (   16945254).
MG BCs: -ve charge blocks (gridpoints):      8475 (    1077980).
MG BCs:     Elided blocks (gridpoints):    175981 (  178273231).
MG BCs: Computational effort saved:  99.9831%.
MG BCs: Charge after coarse-graining:           -9.0006537.
MG DL_MG: Calling solver with defect correction order = 8
MG DL_MG: Solver finished
MG Hartree energy from (\int phi*rho dr):              1250.950181
MG Hartree energy from (\int eps (grad phi)^2 dr):     1250.292067
MG Discrepancy due to finite box and discretization:     -0.658115 (  -0.05261%)
MG Correction to account for finite box:                  0.474483
MG Remaining discrepancy, due to discretization:         -0.183632 (  -0.01468%)
     Trial step:       0.452596588022
             Q1:  -11643.502788024605
 Quadratic coef:       0.025375409459
 Linear coef   :      -0.086577761277
           Qmin:  -11643.515433828417
Quadratic minimum step length (  0.772101814074) accepted
    Initial Ne1:    7191.99998284
      Final Ne1:    7192.00000000

=================== Penalty functional idempotency correction ==================
 RMS occupancy error at iteration   1:  0.000253 (step -0.4874 Ne1=   7192.0000)
 RMS occupancy error at iteration   2:  0.000003 (step -0.5000 Ne1=   7192.0000)
            Final RMS occupancy error   :  0.000000 (Ne1=   7192.0000)
               Final occupancy bounds   : [  0.0000,  1.0000]
================================================================================

    3        -1.164344158567E+04     6.7162E-05     6.0746E-05    -2.3832E-01
MG BCs: +ve charge blocks (gridpoints):     24659 (   16944694).
MG BCs: -ve charge blocks (gridpoints):      8477 (    1078269).
MG BCs:     Elided blocks (gridpoints):    175981 (  178273502).
MG BCs: Computational effort saved:  99.9831%.
MG BCs: Charge after coarse-graining:           -9.0006537.
MG DL_MG: Calling solver with defect correction order = 8
MG DL_MG: Solver finished
MG Hartree energy from (\int phi*rho dr):              1250.510546
MG Hartree energy from (\int eps (grad phi)^2 dr):     1249.852504
MG Discrepancy due to finite box and discretization:     -0.658041 (  -0.05262%)
MG Correction to account for finite box:                  0.474423
MG Remaining discrepancy, due to discretization:         -0.183618 (  -0.01468%)
      ideal mu1:      -0.719118015144
             Q0:  -11643.515382627840
             G0:      -0.092445961531
   RMS gradient:       0.000046731916
MG BCs: +ve charge blocks (gridpoints):     24655 (   16944721).
MG BCs: -ve charge blocks (gridpoints):      8478 (    1078241).
MG BCs:     Elided blocks (gridpoints):    175985 (  178273503).
MG BCs: Computational effort saved:  99.9831%.
MG BCs: Charge after coarse-graining:           -9.0006537.
MG DL_MG: Calling solver with defect correction order = 8
MG DL_MG: Solver finished
MG Hartree energy from (\int phi*rho dr):              1250.548096
MG Hartree energy from (\int eps (grad phi)^2 dr):     1249.890307
MG Discrepancy due to finite box and discretization:     -0.657790 (  -0.05260%)
MG Correction to account for finite box:                  0.474320
MG Remaining discrepancy, due to discretization:         -0.183469 (  -0.01467%)
     Trial step:       0.591143507666
             Q1:  -11643.550997862010
 Quadratic coef:       0.019033595800
 Linear coef   :      -0.054648829969
           Qmin:  -11643.554609249131
Quadratic minimum step length (  0.848638937639) accepted
    Initial Ne1:    7191.99998960
      Final Ne1:    7192.00000000

=================== Penalty functional idempotency correction ==================
 RMS occupancy error at iteration   1:  0.000581 (step -0.4668 Ne1=   7192.0000)
 RMS occupancy error at iteration   2:  0.000008 (step -0.4999 Ne1=   7192.0000)
            Final RMS occupancy error   :  0.000000 (Ne1=   7192.0000)
               Final occupancy bounds   : [ -0.0000,  1.0000]
================================================================================

    4        -1.164351538263E+04     4.6732E-05     4.2268E-05    -7.3797E-02
MG BCs: +ve charge blocks (gridpoints):     24654 (   16944743).
MG BCs: -ve charge blocks (gridpoints):      8477 (    1078243).
MG BCs:     Elided blocks (gridpoints):    175986 (  178273479).
MG BCs: Computational effort saved:  99.9831%.
MG BCs: Charge after coarse-graining:           -9.0006537.
MG DL_MG: Calling solver with defect correction order = 8
MG DL_MG: Solver finished
MG Hartree energy from (\int phi*rho dr):              1250.567290
MG Hartree energy from (\int eps (grad phi)^2 dr):     1249.909613
MG Discrepancy due to finite box and discretization:     -0.657677 (  -0.05259%)
MG Correction to account for finite box:                  0.474272
MG Remaining discrepancy, due to discretization:         -0.183405 (  -0.01467%)
      ideal mu1:      -0.719700202822
             Q0:  -11643.554405543837
             G0:      -0.102048034708
   RMS gradient:       0.000049049522
MG BCs: +ve charge blocks (gridpoints):     24653 (   16946629).
MG BCs: -ve charge blocks (gridpoints):      8474 (    1077625).
MG BCs:     Elided blocks (gridpoints):    175987 (  178272211).
MG BCs: Computational effort saved:  99.9831%.
MG BCs: Charge after coarse-graining:           -9.0006533.
MG DL_MG: Calling solver with defect correction order = 8
MG DL_MG: Solver finished
MG Hartree energy from (\int phi*rho dr):              1251.730292
MG Hartree energy from (\int eps (grad phi)^2 dr):     1251.072948
MG Discrepancy due to finite box and discretization:     -0.657343 (  -0.05251%)
MG Correction to account for finite box:                  0.474029
MG Remaining discrepancy, due to discretization:         -0.183314 (  -0.01464%)
     Trial step:       0.708284828539
             Q1:  -11643.593570208526
 Quadratic coef:       0.033114410076
 Linear coef   :      -0.072279074766
           Qmin:  -11643.593846565411
Quadratic minimum step length (  0.772989341489) accepted
    Initial Ne1:    7191.99999750
      Final Ne1:    7192.00000000

=================== Penalty functional idempotency correction ==================
 RMS occupancy error at iteration   1:  0.001630 (step -0.4164 Ne1=   7192.0000)
 RMS occupancy error at iteration   2:  0.000046 (step -0.4990 Ne1=   7192.0000)
 RMS occupancy error at iteration   3:  0.000000 (step -0.5000 Ne1=   7192.0000)
            Final RMS occupancy error   :  0.000000 (Ne1=   7192.0000)
               Final occupancy bounds   : [  0.0000,  1.0000]
================================================================================

    5        -1.164355440554E+04     4.9050E-05     4.4364E-05    -3.9023E-02
MG BCs: +ve charge blocks (gridpoints):     24653 (   16946810).
MG BCs: -ve charge blocks (gridpoints):      8473 (    1077563).
MG BCs:     Elided blocks (gridpoints):    175987 (  178272092).
MG BCs: Computational effort saved:  99.9831%.
MG BCs: Charge after coarse-graining:           -9.0006533.
MG DL_MG: Calling solver with defect correction order = 8
MG DL_MG: Solver finished
MG Hartree energy from (\int phi*rho dr):              1251.837789
MG Hartree energy from (\int eps (grad phi)^2 dr):     1251.180465
MG Discrepancy due to finite box and discretization:     -0.657323 (  -0.05251%)
MG Correction to account for finite box:                  0.474018
MG Remaining discrepancy, due to discretization:         -0.183306 (  -0.01464%)
      ideal mu1:      -0.721373667523
             Q0:  -11643.594414235442
             G0:      -0.080794154735
   RMS gradient:       0.000042500484
MG BCs: +ve charge blocks (gridpoints):     24653 (   16946745).
MG BCs: -ve charge blocks (gridpoints):      8472 (    1077662).
MG BCs:     Elided blocks (gridpoints):    175987 (  178272058).
MG BCs: Computational effort saved:  99.9831%.
MG BCs: Charge after coarse-graining:           -9.0006533.
MG DL_MG: Calling solver with defect correction order = 8
MG DL_MG: Solver finished
MG Hartree energy from (\int phi*rho dr):              1251.486419
MG Hartree energy from (\int eps (grad phi)^2 dr):     1250.829374
MG Discrepancy due to finite box and discretization:     -0.657045 (  -0.05250%)
MG Correction to account for finite box:                  0.473694
MG Remaining discrepancy, due to discretization:         -0.183350 (  -0.01465%)
     Trial step:       0.739930147513
             Q1:  -11643.630160406348
 Quadratic coef:       0.024035859926
 Linear coef   :      -0.059782030831
           Qmin:  -11643.631586727101
Quadratic minimum step length (  0.920177747502) accepted
    Initial Ne1:    7191.99999776
      Final Ne1:    7192.00000000

=================== Penalty functional idempotency correction ==================
 RMS occupancy error at iteration   1:  0.002868 (step -0.3708 Ne1=   7192.0000)
 RMS occupancy error at iteration   2:  0.000112 (step -0.4973 Ne1=   7192.0000)
 RMS occupancy error at iteration   3:  0.000001 (step -0.5000 Ne1=   7192.0000)
            Final RMS occupancy error   :  0.000000 (Ne1=   7192.0000)
               Final occupancy bounds   : [  0.0000,  1.0000]
================================================================================

    6        -1.164359441424E+04     4.2500E-05     3.8441E-05    -4.0009E-02
MG BCs: +ve charge blocks (gridpoints):     24655 (   16946684).
MG BCs: -ve charge blocks (gridpoints):      8471 (    1077720).
MG BCs:     Elided blocks (gridpoints):    175985 (  178272061).
MG BCs: Computational effort saved:  99.9831%.
MG BCs: Charge after coarse-graining:           -9.0006533.
MG DL_MG: Calling solver with defect correction order = 8
MG DL_MG: Solver finished
MG Hartree energy from (\int phi*rho dr):              1251.401462
MG Hartree energy from (\int eps (grad phi)^2 dr):     1250.744455
MG Discrepancy due to finite box and discretization:     -0.657007 (  -0.05250%)
MG Correction to account for finite box:                  0.473646
MG Remaining discrepancy, due to discretization:         -0.183361 (  -0.01465%)
      ideal mu1:      -0.721238801788
             Q0:  -11643.633434200543
             G0:      -0.063997051716
   RMS gradient:       0.000038889529
MG BCs: +ve charge blocks (gridpoints):     24655 (   16944927).
MG BCs: -ve charge blocks (gridpoints):      8478 (    1078181).
MG BCs:     Elided blocks (gridpoints):    175985 (  178273357).
MG BCs: Computational effort saved:  99.9831%.
MG BCs: Charge after coarse-graining:           -9.0006537.
MG DL_MG: Calling solver with defect correction order = 8
MG DL_MG: Solver finished
MG Hartree energy from (\int phi*rho dr):              1250.551142
MG Hartree energy from (\int eps (grad phi)^2 dr):     1249.894103
MG Discrepancy due to finite box and discretization:     -0.657039 (  -0.05254%)
MG Correction to account for finite box:                  0.473647
MG Remaining discrepancy, due to discretization:         -0.183392 (  -0.01466%)
     Trial step:       0.825146809027
             Q1:  -11643.648732198984
 Quadratic coef:       0.037508964569
 Linear coef   :      -0.052806963011
           Qmin:  -11643.652020259731
Quadratic minimum step length (  0.580841107223) accepted
    Initial Ne1:    7191.99999982
      Final Ne1:    7192.00000000

=================== Penalty functional idempotency correction ==================
 RMS occupancy error at iteration   1:  0.000029 (step -0.4984 Ne1=   7192.0000)
            Final RMS occupancy error   :  0.000000 (Ne1=   7192.0000)
               Final occupancy bounds   : [ -0.0000,  1.0000]
================================================================================

    7        -1.164363343420E+04     3.8890E-05     3.5175E-05    -3.9020E-02
MG BCs: +ve charge blocks (gridpoints):     24652 (   16945423).
MG BCs: -ve charge blocks (gridpoints):      8476 (    1078030).
MG BCs:     Elided blocks (gridpoints):    175988 (  178273012).
MG BCs: Computational effort saved:  99.9831%.
MG BCs: Charge after coarse-graining:           -9.0006536.
MG DL_MG: Calling solver with defect correction order = 8
MG DL_MG: Solver finished
MG Hartree energy from (\int phi*rho dr):              1250.800837
MG Hartree energy from (\int eps (grad phi)^2 dr):     1250.143806
MG Discrepancy due to finite box and discretization:     -0.657030 (  -0.05253%)
MG Correction to account for finite box:                  0.473648
MG Remaining discrepancy, due to discretization:         -0.183383 (  -0.01466%)
      ideal mu1:      -0.720591568628
             Q0:  -11643.652027360979
             G0:      -0.047550600275
   RMS gradient:       0.000033514915
MG BCs: +ve charge blocks (gridpoints):     24655 (   16945308).
MG BCs: -ve charge blocks (gridpoints):      8473 (    1078019).
MG BCs:     Elided blocks (gridpoints):    175985 (  178273138).
MG BCs: Computational effort saved:  99.9831%.
MG BCs: Charge after coarse-graining:           -9.0006536.
MG DL_MG: Calling solver with defect correction order = 8
MG DL_MG: Solver finished
MG Hartree energy from (\int phi*rho dr):              1250.627225
MG Hartree energy from (\int eps (grad phi)^2 dr):     1249.970297
MG Discrepancy due to finite box and discretization:     -0.656928 (  -0.05253%)
MG Correction to account for finite box:                  0.473480
MG Remaining discrepancy, due to discretization:         -0.183448 (  -0.01467%)
     Trial step:       0.692299925016
[...]
MG DL_MG: Calling solver with defect correction order = 8
MG DL_MG: Solver finished
MG Hartree energy from (\int phi*rho dr):              1208.832877
MG Hartree energy from (\int eps (grad phi)^2 dr):     1208.643978
MG Discrepancy due to finite box and discretization:     -0.188900 (  -0.01563%)
MG Correction to account for finite box:                  0.006407
MG Remaining discrepancy, due to discretization:         -0.182493 (  -0.01510%)
             Q2:  -11678.600387262763
  Cubic LS coeff:       1.015513643907
Predicted energy:  -11678.600387262768
Cubic minimum step length accepted
    Initial Ne1:    7192.00000000
      Final Ne1:    7192.00000000

=================== Penalty functional idempotency correction ==================
 RMS occupancy error at iteration   1:  0.000000 (step -0.5000 Ne1=   7192.0000)
            Final RMS occupancy error   :  0.000000 (Ne1=   7192.0000)
               Final occupancy bounds   : [  0.0000,  1.0000]
================================================================================

    7        -1.167860038726E+04     9.5896E-09     8.6736E-09    -3.0268E-09

Reusing previously generated solute cavity.
MG BCs: +ve charge blocks (gridpoints):     28826 (   19120817).
MG BCs: -ve charge blocks (gridpoints):      8449 (    1047109).
MG BCs:     Elided blocks (gridpoints):    171814 (  176128539).
MG BCs: Computational effort saved:  99.9810%.
MG BCs: Charge after coarse-graining:           -9.0009308.
MG DL_MG: Calling solver with defect correction order = 8
MG DL_MG: Solver finished
MG Hartree energy from (\int phi*rho dr):              1208.832877
MG Hartree energy from (\int eps (grad phi)^2 dr):     1208.643978
MG Discrepancy due to finite box and discretization:     -0.188900 (  -0.01563%)
MG Correction to account for finite box:                  0.006407
MG Remaining discrepancy, due to discretization:         -0.182493 (  -0.01510%)
      ideal mu1:      -0.481339065553
             Q0:  -11678.600387262646
             G0:      -0.000000004917
   RMS gradient:       0.000000011542

Reusing previously generated solute cavity.
MG BCs: +ve charge blocks (gridpoints):     28826 (   19120817).
MG BCs: -ve charge blocks (gridpoints):      8449 (    1047109).
MG BCs:     Elided blocks (gridpoints):    171814 (  176128539).
MG BCs: Computational effort saved:  99.9810%.
MG BCs: Charge after coarse-graining:           -9.0009308.
MG DL_MG: Calling solver with defect correction order = 8
MG DL_MG: Solver finished
MG Hartree energy from (\int phi*rho dr):              1208.832837
MG Hartree energy from (\int eps (grad phi)^2 dr):     1208.643937
MG Discrepancy due to finite box and discretization:     -0.188900 (  -0.01563%)
MG Correction to account for finite box:                  0.006407
MG Remaining discrepancy, due to discretization:         -0.182493 (  -0.01510%)
     Trial step:       0.728564158294
             Q1:  -11678.600387264625
 Quadratic coef:       0.000000001603
 Linear coef   :      -0.000000003582
           Qmin:  -11678.600387264649
Quadratic minimum step length (  0.814353724672) accepted
    Initial Ne1:    7192.00000000
      Final Ne1:    7192.00000000

=================== Penalty functional idempotency correction ==================
 RMS occupancy error at iteration   1:  0.000000 (step -0.5000 Ne1=   7192.0000)
            Final RMS occupancy error   :  0.000000 (Ne1=   7192.0000)
               Final occupancy bounds   : [  0.0000,  1.0000]
================================================================================

    8        -1.167860038726E+04     1.1542E-08     1.0439E-08    -4.3074E-09

Reusing previously generated solute cavity.
MG BCs: +ve charge blocks (gridpoints):     28826 (   19120817).
MG BCs: -ve charge blocks (gridpoints):      8449 (    1047109).
MG BCs:     Elided blocks (gridpoints):    171814 (  176128539).
MG BCs: Computational effort saved:  99.9810%.
MG BCs: Charge after coarse-graining:           -9.0009308.
MG DL_MG: Calling solver with defect correction order = 8
MG DL_MG: Solver finished
MG Hartree energy from (\int phi*rho dr):              1208.832832
MG Hartree energy from (\int eps (grad phi)^2 dr):     1208.643932
MG Discrepancy due to finite box and discretization:     -0.188900 (  -0.01563%)
MG Correction to account for finite box:                  0.006407
MG Remaining discrepancy, due to discretization:         -0.182493 (  -0.01510%)
      ideal mu1:      -0.481339014977
             Q0:  -11678.600387264625
             G0:      -0.000000003268
   RMS gradient:       0.000000008093

Reusing previously generated solute cavity.
MG BCs: +ve charge blocks (gridpoints):     28826 (   19120818).
MG BCs: -ve charge blocks (gridpoints):      8449 (    1047109).
MG BCs:     Elided blocks (gridpoints):    171814 (  176128538).
MG BCs: Computational effort saved:  99.9810%.
MG BCs: Charge after coarse-graining:           -9.0009308.
MG DL_MG: Calling solver with defect correction order = 8
MG DL_MG: Solver finished
MG Hartree energy from (\int phi*rho dr):              1208.832834
MG Hartree energy from (\int eps (grad phi)^2 dr):     1208.643934
MG Discrepancy due to finite box and discretization:     -0.188900 (  -0.01563%)
MG Correction to account for finite box:                  0.006407
MG Remaining discrepancy, due to discretization:         -0.182493 (  -0.01510%)
     Trial step:       0.770265497066
             Q1:  -11678.600387264742
 Quadratic coef:       0.000000002401
 Linear coef   :      -0.000000002517
           Qmin:  -11678.600387265285
Quadratic minimum step length (  0.403736784167) accepted
    Initial Ne1:    7192.00000000
      Final Ne1:    7192.00000000

=================== Penalty functional idempotency correction ==================
 RMS occupancy error at iteration   1:  0.000000 (step -0.5000 Ne1=   7192.0000)
            Final RMS occupancy error   :  0.000000 (Ne1=   7192.0000)
               Final occupancy bounds   : [  0.0000,  1.0000]
================================================================================

    9        -1.167860038726E+04     8.0928E-09     7.3198E-09    -1.9791E-09

Reusing previously generated solute cavity.
MG BCs: +ve charge blocks (gridpoints):     28826 (   19120818).
MG BCs: -ve charge blocks (gridpoints):      8449 (    1047109).
MG BCs:     Elided blocks (gridpoints):    171814 (  176128538).
MG BCs: Computational effort saved:  99.9810%.
MG BCs: Charge after coarse-graining:           -9.0009308.
MG DL_MG: Calling solver with defect correction order = 8
MG DL_MG: Solver finished
MG Hartree energy from (\int phi*rho dr):              1208.832833
MG Hartree energy from (\int eps (grad phi)^2 dr):     1208.643933
MG Discrepancy due to finite box and discretization:     -0.188900 (  -0.01563%)
MG Correction to account for finite box:                  0.006407
MG Remaining discrepancy, due to discretization:         -0.182493 (  -0.01510%)
      ideal mu1:      -0.481339018445
   10        -1.167860038727E+04     4.8358E-09     4.3738E-09    -5.8208E-10
Finished density kernel iterations (  10)

Writing density kernel to file "host_36961.dkn" ... done


>>> Density kernel optimised for the current NGWF basis:
     ~~~~~~~~~~~~~~~~~~~~~~~~~~~~~~~~~~~~~~~~~~~~~~~~~~~~~~~~~~~
     Total energy                =  -1.16786003872652E+04  Eh
     Estimated bandgap           =   7.8203E-02  Eh
     RMS occupancy error         =   9.8112E-16
     [H,K] commutator            =   4.3738E-09
     Occupancy bounds            = [  0.000:  1.000]
     ~~~~~~~~~~~~~~~~~~~~~~~~~~~~~~~~~~~~~~~~~~~~~~~~~~~~~~~~~~~




################################################################################
########################### NGWF CG iteration  004 #############################
################################################################################
****** Reciprocal space K.E. preconditioning with k_zero =  3.5000 a0^-1 *******

>>> Checking for convergence of NGWFs: 
           ........................................................
           |         *** NGWF optimisation converged ***          |
           | RMS NGWF gradient =    0.00000190465360              |
           | Criteria satisfied:                                  |
           | -> RMS NGWF gradient lower than set threshold.       |
           ========================================================

Reusing previously generated solute cavity.
MG BCs: +ve charge blocks (gridpoints):     28826 (   19120818).
MG BCs: -ve charge blocks (gridpoints):      8449 (    1047109).
MG BCs:     Elided blocks (gridpoints):    171814 (  176128538).
MG BCs: Computational effort saved:  99.9810%.
MG BCs: Charge after coarse-graining:           -9.0009308.
MG DL_MG: Calling solver with defect correction order = 8
MG DL_MG: Solver finished
MG Hartree energy from (\int phi*rho dr):              1208.832833
MG Hartree energy from (\int eps (grad phi)^2 dr):     1208.643933
MG Discrepancy due to finite box and discretization:     -0.188900 (  -0.01563%)
MG Correction to account for finite box:                  0.006407
MG Remaining discrepancy, due to discretization:         -0.182493 (  -0.01510%)

================================================================================
           ---------------- ENERGY COMPONENTS (Eh) ----------------
           | Kinetic                    :     8529.82848363324592 |
           | Pseudo. (local,OBC,corr'd) :    -5051.35683308549051 |
           | Pseudopotential (non-local):     1403.29453672215595 |
           | Hartree (molecular)        :     1208.83283270441711 |
           | Exchange-correlation       :    -3357.59728813970833 |
           | Ion-ion (open BC)          :   824211.82941359351389 |
           | Dispersion Correction      :       -3.21507509111246 |
           | Smeared ion non-self corr. :  -824163.71320358640514 |
           | Smeared ion self corr.     :   -14457.16956389741972 |
           | Solvent cavitation energy  :        2.37057682716147 |
           | Solute-solvent dis-rep en. :       -1.70426694546706 |
           | Total                      :   -11678.60038726512357 |
           --------------------------------------------------------
           ------ LOCAL ENERGY COMPONENTS FROM MATRIX TRACES ------
           | Pseudopotential (local)    :    -5051.35683308550142 |
           | Hartree                    :    -1991.14647610142561 |
           --------------------------------------------------------
           Integrated density           :     7191.99999999812644
           Integrated density tr(KS)    :     7192.00000000000000
================================================================================


                        <<<<< CALCULATION SUMMARY >>>>>                         
|ITER|    RMS GRADIENT   |     TOTAL ENERGY    |   step   |     Epredicted              
   0     0.00004297759801 -11678.52561382518616   0.646468 -11678.59045110984698        
   1     0.00000890064065 -11678.60002720018383   0.068578 -11678.60032220014000        
   2     0.00000409594732 -11678.60037297685631   0.013752 -11678.60038550414720        
   3     0.00000190465360 -11678.60038726520725  <-- CG                                 

=================== Finished the calculation in solvent ========================
= Adjusting the following parameters: 
= read_denskern: F
= read_tightbox_ngwfs: F
= maxit_pen: 0 (restored to user-specified value)
= restart read filename prefix: ""
= restart write filename prefix: ""
================================================================================

================================================================================
IS: Calculation in solvent completed (NGWFs converged).      

Individual components of total energy in solvent:     hartree           kcal/mol
- Usual non-electrostatic DFT terms:    -12888.09952985131713    -8087404.382193
- Electrostatic fixed charge energy:      1208.83283270441711      758554.038624
- Apolar cavitation energy:                  2.37057682716147        1487.559386
- Apolar dispersion-repulsion energy:       -1.70426694546706       -1069.443631
 -------------------------------------------------------------------------------
- Total energy in solvent:              -11678.60038726520725    -7328432.227815

Components of total energy in solvent:                hartree           kcal/mol
- Usual non-electrostatic DFT terms:    -12888.09952985131713    -8087404.382193
- Electrostatic energy:                   1208.83283270441711      758554.038624
- Apolar energy terms:                       0.66630988169441         418.115754
 -------------------------------------------------------------------------------
- Total energy in solvent:              -11678.60038726520725    -7328432.227815

Calculation of free energy of solvation:              hartree           kcal/mol
- Total energy in solvent:         (+)  -11678.60038726520725    -7328432.227815
- Total energy in vacuum:          (-)  -11674.56666799809318    -7325901.030814
 -------------------------------------------------------------------------------
- Total free energy of solvation:           -4.03371926711407       -2531.197001

Components of polar term in f.e. of solvation:        hartree           kcal/mol
- Electrostatic:                            -4.71264634607564       -2957.230166
- Change in nonelectrostatic DFT terms:      0.01261719726790           7.917411
 -------------------------------------------------------------------------------
- Polar term in f.e. of solvation:          -4.70002914880774       -2949.312755

Components of free energy of solvation:               hartree           kcal/mol
- Polar term in f.e. of solvation: (+)      -4.70002914880774       -2949.312755
- Apolar (cavitation, dis., rep.): (+)       0.66630988169441         418.115754
 -------------------------------------------------------------------------------
- Total free energy of solvation:           -4.03371926711333       -2531.197001
================================================================================


------------------------------ TIMING INFORMATION ------------------------------
AVERAGE TIME:   27695.860s on     40 node(s)                                    
TOTAL TIME:     27695.862s on     40 node(s)                                    
================= AVERAGE TIMINGS FROM ALL NODES (CUMULATIVE) ==================
|| TAG                                    #calls    cpu time   %total  Gflops ||
|| work_imbalance                       :     1        0.00s   0.000%  ------ ||
|| parallel_prepare_fd_halos_request    :  1953        0.02s   0.000%  ------ ||
|| sparse_set_to_garbage                :   182        0.05s   0.000%  ------ ||
|| parallel_prepare_fd_halos_satisfy    :  1953        0.06s   0.000%  ------ ||
|| ngwfs_initialise_from_radial         :     1        0.17s   0.001%  ------ ||
|| basis_extract_function_from_box      :  5366        0.19s   0.001%  ------ ||
|| parallel_prepare_fd_halos_alloc      :  1953        0.20s   0.001%  ------ ||
|| restart_ngwfs_tightbox_input         :     1        0.97s   0.003%  ------ ||
|| pseudopotentials_nonlocal_mat        :    31        1.43s   0.005%  ------ ||
|| parallel_prepare_fd_halos_comms_imbal:  1953        2.42s   0.009%  ------ ||
|| density_init_guess_real              :     1        3.30s   0.012%  ------ ||
|| restart_kernel_read                  :     1        4.14s   0.015%  ------ ||
|| openbc_locps_radial                  :     1        4.73s   0.017%  ------ ||
|| restart_kernel_write                 :    17       11.64s   0.042%  ------ ||
|| parallel_prepare_fd_halos_clear      :  1953       20.98s   0.076%  ------ ||
|| sparse_init                          :     2       23.44s   0.085%  ------ ||
|| projectors_func_ovlp_box             :    31       24.51s   0.088%  ------ ||
|| parallel_prepare_fd_halos_comms_wait :  1953       24.93s   0.090%  ------ ||
|| function_ops_brappd_ketppd           :    31       27.85s   0.101%  ------ ||
|| projectors_init_fftbox_recip         :   207       31.73s   0.115%  ------ ||
|| palser_mano_kernel_optimise          :     1       41.68s   0.151%  ------ ||
|| parallel_prepare_fd_halos            :  1953       48.62s   0.176%  ------ ||
|| fourier_apply_box_pair               :  7734       54.05s   0.195% 552.266 ||
|| pseudo_make_structure_factor         :     2       58.27s   0.210%  ------ ||
|| ngwf_gradient_coeffs                 :    16       66.51s   0.240%  ------ ||
|| restart_ngwfs_tightbox_output        :    14       71.54s   0.258%  ------ ||
|| basis_copy_function_to_box           : 87492       73.99s   0.267%  ------ ||
|| sparse_embed_hotelling_invert_embed  :    31       99.66s   0.360%  ------ ||
|| finite_difference_derivative         :  1953      119.92s   0.433%  ------ ||
|| integrals_kinetic                    :    31      164.21s   0.593%  ------ ||
|| openbc_locps_on_grid                 :     2      195.73s   0.707%  ------ ||
|| projectors_gradient_batch            :   176      218.93s   0.790%  ------ ||
|| fourier_apply_cell_backward          :  1303      222.06s   0.802%  81.050 ||
|| fourier_apply_cell_forward           :  1301      229.56s   0.829%  78.281 ||
|| basis_dot_function_with_box          : 13.20M     254.45s   0.919%  ------ ||
|| sparse_trace                         :  5659      270.26s   0.976%  ------ ||
|| kernel_purify                        :   496      364.20s   1.315%  ------ ||
|| hamiltonian_energy_components        :     4      438.18s   1.582%  ------ ||
|| xc_energy_potential                  :   325      541.57s   1.955%  ------ ||
|| basis_add_function_to_box            : 27.52M     566.74s   2.046%  ------ ||
|| lnv_gradient_norm                    :   160      595.71s   2.151%  ------ ||
|| kernel_fix                           :   160      749.34s   2.706%  ------ ||
|| ngwf_gradient_build_batch            :   176      779.71s   2.815%  ------ ||
|| cell_grid_deposit_box_real           : 54829      852.76s   3.079%  ------ ||
|| integrals_locpot_mat_els_batch       :  1859      958.54s   3.461%  ------ ||
|| cell_grid_extract_box_real           : 51124     1006.11s   3.633%  ------ ||
|| ngwf_gradient_batch                  :   176     1092.00s   3.943%  ------ ||
|| ngwf_gradient_lnv                    :    16     1264.48s   4.566%  ------ ||
|| density_batch_row_sums               :  3564     1292.14s   4.665%  ------ ||
|| density_fftbox_deposit_to_cell       : 52812     1426.29s   5.150%  ------ ||
|| sparse_product                       :  6872     2338.03s   8.442%  ------ ||
|| multigrid_prepare_bound_cond         :   325     2557.71s   9.235%  ------ ||
|| fourier_apply_box                    : 182.3k    3405.45s  12.296%  1.002k ||
|| potential_apply_to_ngwf_batch        :  1859     3413.83s  12.326%  ------ ||
|| density_fftbox_interpolate_multiply  : 52812     3767.00s  13.601%  ------ ||
|| integrals_locpot_dbl_grid            :   169     4389.06s  15.847%  ------ ||
|| density_batch_interp_deposit         :  3564     5885.33s  21.250%  ------ ||
|| dl_mg_solver_calls                   :   325     7044.96s  25.437%  ------ ||
|| density_on_dbl_grid                  :   324     7655.01s  27.640%  ------ ||
|| multigrid_calculate_hartree          :   325     9765.99s  35.262%  ------ ||
|| hamiltonian_lhxc_calculate           :   320    17965.80s  64.868%  ------ ||
|| lnv_denskernel_optimise_cg           :    16    23791.18s  85.902%  ------ ||
|| ngwf_cg_optimise                     :     2    26875.11s  97.037%  ------ ||
|| total_time                           :     1    27695.86s 100.000%  ------ ||
================================================================================
Overhead of generating timer report: 
- 0 ms averaging over threads,
- 6 ms ensuring consistency across MPI ranks,
- 2 ms printing in order.

Job completed: 15-07-2020 09:28 (+0100)

