 +---------------------------------------------------------------+
 |                                                               |
 |        ####### #     # ####### ####### ####### ######         |
 |        #     # ##    # #          #    #       #     #        |
 |        #     # # #   # #          #    #       #     #        |
 |        #     # #  #  # #####      #    #####   ######         |
 |        #     # #   # # #          #    #       #              |
 |        #     # #    ## #          #    #       #              |
 |        ####### #     # #######    #    ####### #              |
 |                                                               |
 |        Linear-Scaling Ab Initio Total Energy Program          |
 |                                                               |
 |          Release for academic collaborators of ODG            |
 |                                             Version 5.3.2.6.  |
 |                                                               |
 +---------------------------------------------------------------+
 |                                                               |
 |  Authors:                                                     |
 |  Jacek Dziedzic, Peter D. Haynes, Nicholas D. M. Hine,        |
 |  Arash. A. Mostofi, Mike C. Payne and Chris-Kriton Skylaris   |
 |                                                               |
 |  Contributors:                                                |
 |  J. Aarons, L. Andrinopoulos, P. W. Avraam, R. A. Bell,       |
 |  A. Bhandari, G. A. Bramley, R. J. Charlton, S. J. Clark,     |
 |  R. J. Clements, G. C. Constantinescu, F. Corsetti,           |
 |  N. Corsini, O. Dieguez, S. M. M. Dubois, K. K. B. Duff,      |
 |  J. M. Escartin, A. Greco, H. Helal, Q. O. Hill, L. P. Lee,   |
 |  J.-H. Li, E. B. Linscott, G. Moynihan, D. D. O`Regan,        |
 |  O. K. Okan, M. J. S. Phipps, C. J. Pickard,                  |
 |  J. C. A. Prentice, M. I. J. Probert, L. E. Ratcliff,         |
 |  M. Robinson, A. Ruiz Serrano, J. S. Spencer, E. W. Tait,     |
 |  G. Teobaldi, D. Turban, V. Vitale, K. A. Wilkinson,          |
 |  C. Weber, J. C. Womack, N. Yeung and T. J. Zuehlsdorff       |
 |                                                               |
 |                                   Copyright (c) 2004-2019     |
 |                                                               |
 |  Please cite:                                                 |
 |  "Introducing ONETEP: Linear-scaling density functional       |
 |   simulations on parallel computers".                         |
 |   C.-K. Skylaris, P. D. Haynes, A. A. Mostofi, M. C. Payne.   |
 |   J. Chem. Phys. 122 084119 (2005).                           |
 |                                                               |
 |          in all publications arising from your use of ONETEP. |
 |                                                               |
 +---------------------------------------------------------------+
 |                                                               |
 |   ONETEP is based on developments described in the following  |
 |   publications:                                               |
 |                                                               |
 |  "Nonorthogonal generalized Wannier function pseudopotential  |
 |   plane-wave method".                                         |
 |   C.-K. Skylaris, A. A. Mostofi, P. D. Haynes, O. Dieguez,    |
 |   M. C. Payne.                                                |
 |   Phys. Rev. B 66 035119 (2002).                              |
 |                                                               |
 |  "Preconditioned iterative minimization for linear-scaling    |
 |   electronic structure calculations".                         |
 |   A. A. Mostofi, P. D. Haynes, C.-K. Skylaris, M. C. Payne.   |
 |   J. Chem. Phys. 119(17), pp.8842-8848 (2003).                |
 |                                                               |
 |  "Total-energy calculations on a real space grid with         |
 |   localized functions and a plane-wave basis".                |
 |   A. A. Mostofi, C.-K. Skylaris, P. D. Haynes, M. C. Payne.   |
 |   Comput. Phys. Commun. 147, pp.788-802 (2002).               |
 |                                                               |
 |  "Accurate kinetic energy evaluation in electronic structure  |
 |   calculations with localized functions on real space grids"  |
 |   C.-K. Skylaris, A. A. Mostofi, P. D. Haynes, C. J. Pickard, |
 |   M. C. Payne.                                                |
 |   Comput. Phys. Commun. 140, pp.315-322 (2001).               |
 |                                                               |
 |  "Accurate ionic forces and geometry optimization in linear-  |
 |   scaling density-functional theory with local orbitals"      |
 |   N. D. M. Hine, M. Robinson, P. D. Haynes, C.-K. Skylaris,   |
 |   M. C. Payne, and A. A. Mostofi.                             |
 |   Phys. Rev. B 83 195102 (2011).                              |
 |                                                               |
 +---------------------------------------------------------------+

Job started: 21-07-2020 15:22 (+0100)
 
Reading parameters from file "host_33161.dat" ...... done

If your calculation crashes here, before "Checking processes and threads..."
is displayed, then your stack size is insufficient.
If so, use "ulimit -s unlimited" at runtime.
You can disable this check with "check_stack_size F".

Checking processes and threads...
   Determining the default number of threads...
      No default threads set at compilation time: defaulting to 1.
      OpenMP library call suggests 4 threads.
      Hybrid MPI-OpenMP compilation detected.
      Number of MPI processes > 1.
      OMP_NUM_THREADS environment variable present and
      its value matches the one obtained from the OpenMP library call.
      Using this value as default.
      Default threads: 4
      Default applies to threads_max and threads_num_fftboxes.
      Settings in the input file override this default.
   ... done

   Running with 40 MPI processes.
   There are 10 MPI processes running on the same node as the root process.
   Each MPI process is using: 
               1 threads for simulation cell FFTs.
               1 threads for parallel FFT box operations.
               4 threads for loops over batched FFT box operations.
               4 threads in other parallel regions.
... done

Basic input checks...... done

Reading geometry and species blocks from file "host_33161.dat" ...
  <species_atomic_set> block not found: NGWF initialisation set to SOLVE
IS: Dielectric excluded regions:
    - NONE.
    
  Number of PPD points along a3 set to 1.  This is 
  the default value, it may have been provided also in the input file.
... done
 Writing xyz coordinates to file "host_33161.xyz" ... done


--------------------------------------------------------------------------------
---------------------------------- INPUT FILE ----------------------------------
--------------------------------------------------------------------------------

cutoff_energy       : 800 eV                                                    
xc_functional PBE                                                               
task SINGLEPOINT                                                                
write_xyz true                                                                  
output_detail VERBOSE                                                           
ngwf_threshold_orig : 0.000002                                                  
kernel_cutoff       : 1000                                                      
k_zero              : 3.5                                                       
elec_cg_max 0                                                                   
occ_mix 1.0                                                                     
dispersion 1                                                                    
maxit_ngwf_cg 40                                                                
minit_lnv 10                                                                    
maxit_lnv 10                                                                    
write_denskern T                                                                
write_tightbox_ngwfs T                                                          
charge 9                                                                        
is_implicit_solvent T                                                           
is_auto_solvation T                                                             
is_include_apolar T                                                             
is_smeared_ion_rep T                                                            
is_solvent_surf_tension 4.7624E-5 Ha/bohr**2                                    
is_apolar_scaling_factor 0.281075                                               
is_solvation_beta 1.3                                                           
is_density_threshold 0.00035                                                    
is_bulk_permittivity 78.54                                                      
is_dielectric_model fix_initial                                                 
is_smeared_ion_width 0.8                                                        
mg_defco_fd_order 8                                                             
is_bc_coarseness 10                                                             
is_bc_surface_coarseness 1                                                      
fine_grid_scale 2.0                                                             
%block species                                                                  
N   N   7 4 8.0                                                                 
H   H   1 1 8.0                                                                 
C   C   6 4 8.0                                                                 
S   S  16 9 8.0                                                                 
O   O   8 4 8.0                                                                 
%endblock species                                                               
%block species_pot                                                              
N   N_00.recpot                                                                 
H   H_04.recpot                                                                 
C   C_01.recpot                                                                 
S   S_00.recpot                                                                 
O   O_02.recpot                                                                 
%endblock species_pot                                                           
%block lattice_cart                                                             
137.793   0.000   0.000                                                         
0.000 143.498   0.000                                                           
0.000   0.000   162.326                                                         
%endblock lattice_cart                                                          
%block positions_abs                                                            
     Hash =  -000003938273888481085111
%endblock positions_abs                                                         

--------------------------------------------------------------------------------
-------------------------------- END INPUT FILE --------------------------------
--------------------------------------------------------------------------------


 
 ESDF WARNING(1): "kernelcutoff" (esdf_physical) has no units. Assume "bohr".
 ESDF WARNING(2): "kzero" (esdf_physical) has no units. Assume "1/bohr".
 ESDF WARNING(3
 ): "issmearedionwidth" (esdf_physical) has no units. Assume "bohr".
<<<<<<<<<<<<<<<<<<<<<<<<<<<<<<<<< Full system >>>>>>>>>>>>>>>>>>>>>>>>>>>>>>>>>>
<<<<<<<<<<<<<<<<<<<<<<<<< Pseudopotential information >>>>>>>>>>>>>>>>>>>>>>>>>>
File: N_00.recpot [ 2001 points up to Gmax=  52.9 (1/bohr)]
  Atomic number:  7;  ionic charge:  5.000000
    Shell 1: l = 0; rc = 1.48 bohr
File: H_04.recpot [ 2001 points up to Gmax=  52.9 (1/bohr)]
  Atomic number:  1;  ionic charge:  1.000000
    Local potential
File: C_01.recpot [ 2001 points up to Gmax=  52.9 (1/bohr)]
  Atomic number:  6;  ionic charge:  4.000000
    Shell 1: l = 0; rc = 1.48 bohr
File: S_00.recpot [ 2001 points up to Gmax=  52.9 (1/bohr)]
  Atomic number: 16;  ionic charge:  6.000000
    Shell 1: l = 0; rc = 1.90 bohr
    Shell 2: l = 2; rc = 1.84 bohr
File: O_02.recpot [ 2001 points up to Gmax=  52.9 (1/bohr)]
  Atomic number:  8;  ionic charge:  6.000000
    Shell 1: l = 0; rc = 1.31 bohr
<<<<<<<<<<<<<<<<<<<<<<<<<<<<<<<<<<<<<<<<>>>>>>>>>>>>>>>>>>>>>>>>>>>>>>>>>>>>>>>>

-------------------------- Atom counting information ---------------------------
Symbol    Natoms    Nngwfs    Nprojs
  N        236       944       236
  H       1311      1311         0
  C        810      3240       810
  S          6        54        36
  O        239       956       239
.......   ......    ......    ......
Totals:   2602      6505      1321
--------------------------------------------------------------------------------

=============================== PSINC grid sizes ===============================
                      Simulation cell:  273 x 286 x 320
                              FFT-box:   99 x  99 x  99
                                  PPD:    7 x  11 x   1
Grid space d1=  0.504736263736a0 (KE cutoff=  29.81776Eh = 811.38248eV)
Grid space d2=  0.501741258741a0 (KE cutoff=  30.17480Eh = 821.09803eV)
Grid space d3=  0.507268750000a0 (KE cutoff=  29.52078Eh = 803.30122eV)
================================================================================

********************* Fourier parallelisation information **********************
       Coarse grid (whole simulation cell) dimensions:    273   286   320
          Real-space ('12') slabs/node (min max mean):      8     8     8
         Recip-space ('23') slabs/node (min max mean):      3     4     3
********************************************************************************

********************* Fourier parallelisation information **********************
       Double grid (whole simulation cell) dimensions:    546   572   640
          Real-space ('12') slabs/node (min max mean):     16    16    16
         Recip-space ('23') slabs/node (min max mean):      6     7     6
********************************************************************************
ONETEP fine grid is 546 x 572 x 640 gridpoints, 137.7930 x 143.4980 x 162.3260 bohr.
FD multigrid is     545 x 569 x 633 gridpoints, 137.5406 x 142.7454 x 160.5506 bohr.


Calculating local pseudopotential in open BC on a radial grid ...
Discrepancy between calculated realspace psloc and -Z/x on [5a0,256.765a0]:
max |rel. diff| # avg |rel. diff| #  avg rel. diff #  f # pseudopotential file
 0.000264355666    0.000005356805   0.000000075547   55  'N_00.recpot'
 0.000427657517    0.000018087302  -0.000000066616   55  'H_04.recpot'
 0.000358839426    0.000016594043   0.000000139912   55  'C_01.recpot'
 0.000443229003    0.000019135969   0.000000483695   55  'S_00.recpot'
 0.000720897146    0.000029350350   0.000000143497   55  'O_02.recpot'
... done

Atom SCF Calculation for N  : Z (AE atom) =   7 : Z (PS atom) =   5
Config String:
Orbitals (num,occ):  2     2.00 3.00
Orbitals   (num,l):  2        0    1
Real-space Grid (nr,dr,rmax): 1203    0.0066555740    8.0000000000
Spherical Bessel Basis (nsws,lmax,cutoff):   47    1  176.3951722778
Confining potential (l,width,scale):  0    3.0000000000  100.0000000000
Confining potential (l,width,scale):  1    3.0000000000  100.0000000000
  1         -4.7312375307   -3.4155304497    7.0523828109   -1.9351020946
  2         -9.7309464766   -2.0532547791    8.2966052865   -2.2494486027
  3         -9.6627394379   -2.1124926340    8.2327997121   -2.2369778124
  4         -9.6814993499   -2.1215521045    8.2229805960   -2.2365178421
  5         -9.6843326483   -2.1250939529    8.2191374534   -2.2362718126
  6         -9.6859628709   -2.1267894855    8.2172963573   -2.2362066344
  7         -9.6867347035   -2.1276425665    8.2163697352   -2.2361903369
  8         -9.6870802100   -2.1280764625    8.2158983890   -2.2361891460
  9         -9.6872290423   -2.1282977424    8.2156580222   -2.2361920435
 10         -9.6872901988   -2.1284107021    8.2155353368   -2.2361953393
 11         -9.6873135296   -2.1284684031    8.2154726809   -2.2361979819
 12         -9.6873212476   -2.1284978948    8.2154406648   -2.2361998431
 13         -9.6873229586   -2.1285129774    8.2154242957   -2.2362010676
 14         -9.6873226456   -2.1285206957    8.2154159216   -2.2362018403
 15         -9.6873218534   -2.1285246479    8.2154116349   -2.2362023142
 16         -9.6873212599   -2.1285262679    8.2154098784   -2.2362025420
 17         -9.6873207834   -2.1285272564    8.2154088068   -2.2362026955
 18         -9.6873204210   -2.1285278597    8.2154081529   -2.2362027982
 19         -9.6873201550   -2.1285282280    8.2154077538   -2.2362028667
 20         -9.6873199645   -2.1285284529    8.2154075102   -2.2362029121
 21         -9.6873198305   -2.1285285903    8.2154073614   -2.2362029421
 22         -9.6873197377   -2.1285286742    8.2154072705   -2.2362029618
Atom SCF converged after  22 iterations to a total energy of     -9.68731974

Atom SCF Calculation for H  : Z (AE atom) =   1 : Z (PS atom) =   1
Config String:
Orbitals (num,occ):  1     1.00
Orbitals   (num,l):  1        0
Real-space Grid (nr,dr,rmax): 1203    0.0066555740    8.0000000000
Spherical Bessel Basis (nsws,lmax,cutoff):   47    0  176.3951722778
Confining potential (l,width,scale):  0    3.0000000000  100.0000000000
  1         -0.3194257691   -0.2393854593    0.2820953124   -0.2424203209
  2         -0.3951823392   -0.2377116493    0.2886404059   -0.2475147891
  3         -0.4317044583   -0.2352244387    0.2921333887   -0.2514046172
  4         -0.4470703708   -0.2341892222    0.2934391879   -0.2531009782
  5         -0.4532132900   -0.2338556667    0.2938388426   -0.2537313520
  6         -0.4556579251   -0.2337612552    0.2939448584   -0.2539550462
  7         -0.4566418315   -0.2337377355    0.2939680120   -0.2540342273
  8         -0.4570437922   -0.2337331116    0.2939708287   -0.2540627372
  9         -0.4572102946   -0.2337328328    0.2939698291   -0.2540732650
 10         -0.4572800424   -0.2337332404    0.2939687193   -0.2540772588
 11         -0.4573095100   -0.2337335791    0.2939680317   -0.2540788122
 12         -0.4573220379   -0.2337337762    0.2939676699   -0.2540794294
 13         -0.4573273880   -0.2337338775    0.2939674931   -0.2540796787
 14         -0.4573296803   -0.2337339266    0.2939674099   -0.2540797808
 15         -0.4573306647   -0.2337339495    0.2939673718   -0.2540798230
 16         -0.4573310882   -0.2337339601    0.2939673545   -0.2540798406
 17         -0.4573312706   -0.2337339649    0.2939673467   -0.2540798479
 18         -0.4573313493   -0.2337339670    0.2939673433   -0.2540798510
Atom SCF converged after  18 iterations to a total energy of     -0.45733135

Atom SCF Calculation for C  : Z (AE atom) =   6 : Z (PS atom) =   4
Config String:
Orbitals (num,occ):  2     2.00 2.00
Orbitals   (num,l):  2        0    1
Real-space Grid (nr,dr,rmax): 1203    0.0066555740    8.0000000000
Spherical Bessel Basis (nsws,lmax,cutoff):   47    1  176.3951722778
Confining potential (l,width,scale):  0    3.0000000000  100.0000000000
Confining potential (l,width,scale):  1    3.0000000000  100.0000000000
  1         -5.2976922011   -1.3069684169    4.5135249990   -1.4493313817
  2         -5.3721716256   -1.3429755895    4.4750154450   -1.4361613026
  3         -5.3809959565   -1.3617365618    4.4541655428   -1.4305930207
  4         -5.3918938866   -1.3667928461    4.4484735100   -1.4294652294
  5         -5.3956096428   -1.3688539142    4.4461376126   -1.4290734646
  6         -5.3968271862   -1.3696852393    4.4451910874   -1.4289366866
  7         -5.3972028401   -1.3700178062    4.4448112275   -1.4288900460
  8         -5.3973067903   -1.3701500158    4.4446598370   -1.4288749220
  9         -5.3973286940   -1.3702023868    4.4445997329   -1.4288704293
 10         -5.3973289850   -1.3702230869    4.4445759233   -1.4288693188
 11         -5.3973254264   -1.3702312560    4.4445665049   -1.4288691775
 12         -5.3973224003   -1.3702344755    4.4445627836   -1.4288692549
 13         -5.3973208708   -1.3702354890    4.4445616088   -1.4288693270
 14         -5.3973198783   -1.3702360102    4.4445610034   -1.4288693814
 15         -5.3973192535   -1.3702362780    4.4445606917   -1.4288694190
 16         -5.3973188684   -1.3702364155    4.4445605313   -1.4288694437
 17         -5.3973186349   -1.3702364860    4.4445604489   -1.4288694595
 18         -5.3973184951   -1.3702365221    4.4445604065   -1.4288694693
 19         -5.3973184122   -1.3702365405    4.4445603848   -1.4288694753
Atom SCF converged after  19 iterations to a total energy of     -5.39731841

Atom SCF Calculation for S  : Z (AE atom) =  16 : Z (PS atom) =   6
Config String:
Orbitals (num,occ):  3     2.00 4.00 0.00
Orbitals   (num,l):  3        0    1    2
Real-space Grid (nr,dr,rmax): 1203    0.0066555740    8.0000000000
Spherical Bessel Basis (nsws,lmax,cutoff):   47    2  176.3951722778
Confining potential (l,width,scale):  0    3.0000000000  100.0000000000
Confining potential (l,width,scale):  1    3.0000000000  100.0000000000
Confining potential (l,width,scale):  2    3.0000000000  100.0000000000
  1        -12.4735062396   -1.0328741412   10.1554312477   -2.4512393157
  2         -9.9458301913   -2.4607392455    8.3041325857   -2.0306994528
  3        -10.1450417646   -2.2931184565    8.4831893826   -2.0812538287
  4        -10.1528335592   -2.2733105793    8.5050388867   -2.0896035179
  5        -10.1571940363   -2.2633716629    8.5160794258   -2.0939370707
  6        -10.1594380571   -2.2584938667    8.5215163935   -2.0961289008
  7        -10.1605856507   -2.2561081821    8.5241804044   -2.0972291378
  8        -10.1611799191   -2.2549395235    8.5254868240   -2.0977806248
  9        -10.1614918752   -2.2543658586    8.5261285885   -2.0980571586
 10        -10.1616572884   -2.2540839121    8.5264441898   -2.0981959233
 11        -10.1617455602   -2.2539453058    8.5265994231   -2.0982656006
 12        -10.1617928447   -2.2538772062    8.5266757320   -2.0983006047
 13        -10.1618182292   -2.2538437891    8.5267131983   -2.0983181961
 14        -10.1618318741   -2.2538274201    8.5267315620   -2.0983270391
 15        -10.1618392144   -2.2538194197    8.5267405433   -2.0983314852
 16        -10.1618431651   -2.2538155200    8.5267449245   -2.0983337210
 17        -10.1618452923   -2.2538136252    8.5267470551   -2.0983348455
 18        -10.1618464380   -2.2538127080    8.5267480875   -2.0983354110
 19        -10.1618470552   -2.2538122659    8.5267485856   -2.0983356955
 20        -10.1618473878   -2.2538120540    8.5267488248   -2.0983358386
 21        -10.1618475670   -2.2538119530    8.5267489389   -2.0983359106
 22        -10.1618476637   -2.2538119053    8.5267489929   -2.0983359468
Atom SCF converged after  22 iterations to a total energy of    -10.16184766

Atom SCF Calculation for O  : Z (AE atom) =   8 : Z (PS atom) =   6
Config String:
Orbitals (num,occ):  2     2.00 4.00
Orbitals   (num,l):  2        0    1
Real-space Grid (nr,dr,rmax): 1203    0.0066555740    8.0000000000
Spherical Bessel Basis (nsws,lmax,cutoff):   47    1  176.3951722778
Confining potential (l,width,scale):  0    3.0000000000  100.0000000000
Confining potential (l,width,scale):  1    3.0000000000  100.0000000000
  1         -1.8735052164   -7.5539365035   10.1554312477   -2.4512393157
  2        -16.0318313751   -3.1285771268   13.6395848164   -3.2358799643
  3        -15.9524020423   -3.0762819706   13.6967272503   -3.2536856837
  4        -15.8521515939   -3.0781493909   13.6951909330   -3.2561700440
  5        -15.8357139793   -3.0748501933   13.6988803334   -3.2580493133
  6        -15.8246052853   -3.0740779781   13.6997881576   -3.2588327446
  7        -15.8189019501   -3.0737449687   13.7001869911   -3.2592378801
  8        -15.8159785510   -3.0736026016   13.7003615168   -3.2594475790
  9        -15.8144776168   -3.0735437994   13.7004360379   -3.2595560735
 10        -15.8137058024   -3.0735207882   13.7004667348   -3.2596122456
 11        -15.8133083127   -3.0735125946   13.7004786868   -3.2596413656
 12        -15.8131032938   -3.0735102195   13.7004828997   -3.2596564858
 13        -15.8129973902   -3.0735099286   13.7004840891   -3.2596643505
 14        -15.8129426040   -3.0735102506   13.7004842061   -3.2596684489
 15        -15.8129142203   -3.0735106556   13.7004840157   -3.2596705887
 16        -15.8128994940   -3.0735109855   13.7004837906   -3.2596717080
 17        -15.8128918425   -3.0735112169   13.7004836103   -3.2596722946
 18        -15.8128878614   -3.0735113674   13.7004834848   -3.2596726026
 19        -15.8128857871   -3.0735114608   13.7004834035   -3.2596727646
 20        -15.8128847048   -3.0735115170   13.7004833533   -3.2596728500
 21        -15.8128841394   -3.0735115501   13.7004833231   -3.2596728951
 22        -15.8128838436   -3.0735115693   13.7004833054   -3.2596729190
 23        -15.8128836887   -3.0735115802   13.7004832951   -3.2596729316
 24        -15.8128836074   -3.0735115864   13.7004832893   -3.2596729383
Atom SCF converged after  24 iterations to a total energy of    -15.81288361

========================== Calculation in vacuum ==============================
= Adjusting the following parameters: 
= is_implicit_solvent: F
= is_include_apolar: F
= write_denskern: T
= write_tightbox_ngwfs: T
= restart read filename prefix: ""
= restart write filename prefix: "vacuum_"
===============================================================================

Determining parallel strategy ...
... using space-filling curve
... NGWF load balancing: max    163;  min    162;  average    163
... Projector load balancing: max     36;  min     32;  average     33
... done
Calculating direct Ion-Ion energy ...
Ion-Ion Energy        :    825176.78401227318682
======================= Empirical dispersion information =======================
Model : Elstner
Dispersion Correction Energy: -0.32274073E+01 Hartree
================================================================================
Basis initialisation ...... NGWF spheres initialised
... Projector spheres initialised
... NGWF tight boxes initialised
... Tight-boxes gathered
... NGWF basis size (local,global):    1108425  44381379
... Nonlocal pseudopotential projector initialisation
... done

========================== Sparse matrix information ===========================
                        Overlap matrix filling:   6.66%
                        Density kernel filling: 100.00%
              NGWF-Proj overlap matrix filling:   1.76%
                    Hamiltonian matrix filling:   7.53%
                  NGWF diagonal matrix filling:   0.05%
                             KS matrix filling: 100.00% 
                           KSKS matrix filling: 100.00% 
================================================================================

Sparse matrix initialisation ... done

Generating smeared ion density ... done
Smeared ion self correction:     -14457.169564
Smeared ion non-self correction: -825128.954165
NGWF initialisation ...... done
============ Calculation of NGWF S^-1 using Hotelling algorithm ================ 
         Iteration  |  Frobenius norm and Maximum abs value    (of I-S*S_n^-1)   
               1       0.78501600E+02     0.98297440E+00
               2       0.76665665E+02     0.96635491E+00
               3       0.73686747E+02     0.93426997E+00
               4       0.69441525E+02     0.87432801E+00
               5       0.64141394E+02     0.77142250E+00
               6       0.58173612E+02     0.70305865E+00
               7       0.52161191E+02     0.67236339E+00
               8       0.46605886E+02     0.64723352E+00
               9       0.40556770E+02     0.60736484E+00
              10       0.32323253E+02     0.53663805E+00
              11       0.21770389E+02     0.42469451E+00
              12       0.11155967E+02     0.27894214E+00
              13       0.36953657E+01     0.12442097E+00
              14       0.58805523E+00     0.30719715E-01
              15       0.27542474E-01     0.23853195E-02
              16       0.13761193E-03     0.15517973E-04
              17       0.57802761E-08     0.94091346E-09
              18       0.92262035E-13     0.51070259E-14
================================================================================
Calculating local pseudopotential in open BC on the fine real space grid ...
... done

MG BCs: +ve charge blocks (gridpoints):     20506 (   16127469).
MG BCs: -ve charge blocks (gridpoints):      7986 (    1077963).
MG BCs:     Elided blocks (gridpoints):    180134 (  179091033).
MG BCs: Computational effort saved:  99.9855%.
MG BCs: Charge after coarse-graining:           -9.0002259.
MG DL_MG: Calling solver with defect correction order = 8
MG DL_MG: Solver finished
MG Hartree energy from (\int phi*rho dr):              1462.575087
MG Hartree energy from (\int eps (grad phi)^2 dr):     1461.960544
MG Discrepancy due to finite box and discretization:     -0.614543 (  -0.04202%)
MG Correction to account for finite box:                  0.462124
MG Remaining discrepancy, due to discretization:         -0.152419 (  -0.01042%)
Up spin density kernel initialisation ... 
======= Optimisation of K by Palser-Manolopoulos canonical purification ======== 
         Iteration  |  Band structure energy |    c_n   
               1       -2579.82739403773530    0.5267371
               2       -2755.30955966015881    0.5168805
               3       -2935.06104142572804    0.5152517
               4       -3084.99759233011810    0.5287720
               5       -3177.00058431768866    0.5644877
               6       -3215.35854199721780    0.6089638
               7       -3228.35316960053387    0.6189955
               8       -3234.00811555306791    0.6129544
               9       -3236.78239066174092    0.6187845
              10       -3237.93960133466726    0.6327588
              11       -3238.37922276497102    0.6357532
              12       -3238.55862572421347    0.6081122
              13       -3238.64359367892757    0.5526711
              14       -3238.68313876383672    0.4995521
              15       -3238.69520206844754    0.4755675
              16       -3238.69730903392974    0.4728960
              17       -3238.69813095797963    0.4902749
              18       -3238.69857219811638    0.4994444
              19       -3238.69889221347466    0.4999985
              20       -3238.69902624309179    0.5000000
              21       -3238.69904244662530    0.5000000
              22       -3238.69904264606066    0.5000000
Termination criterion satisfied: band energy change below threshold.
Final occupancy bounds: [    0.00000000000278:    0.99999999999999]
Closest occupancy to 0.5:     0.99999999999852
================================================================================
... done

Writing density kernel to file "host_33161.vacuum_dkn" ... done

>>> Optimising kernel for current NGWFs:
   Initial electron number for spin 1:    7192.00000000
     Final electron number for spin 1:    7192.00000000

=================== Penalty functional idempotency correction ==================
 RMS occupancy error at iteration   1:  0.000000 (step -0.5000 Ne1=   7192.0000)
            Final RMS occupancy error   :  0.000000 (Ne1=   7192.0000)
               Final occupancy bounds   : [ -0.0000,  1.0000]
================================================================================

................................................................................
<<<<<<<<<<<<<< LNV (Original version) density kernel optimisation >>>>>>>>>>>>>>
~~~~~~~~~~~~~~~~~~~~~~~~~~~~~~~~~~~~~~~~~~~~~~~~~~~~~~~~~~~~~~~~~~~~~~~~~~~~~~~~
   iter  |      energy (Eh)       | rms gradient |  commutator  |   dE (Eh)
MG BCs: +ve charge blocks (gridpoints):     30659 (   17266828).
MG BCs: -ve charge blocks (gridpoints):      8318 (    1110859).
MG BCs:     Elided blocks (gridpoints):    169974 (  177918778).
MG BCs: Computational effort saved:  99.9801%.
MG BCs: Charge after coarse-graining:           -9.0009389.
MG DL_MG: Calling solver with defect correction order = 8
MG DL_MG: Solver finished
MG Hartree energy from (\int phi*rho dr):              1420.333840
MG Hartree energy from (\int eps (grad phi)^2 dr):     1419.665309
MG Discrepancy due to finite box and discretization:     -0.668531 (  -0.04707%)
MG Correction to account for finite box:                  0.473081
MG Remaining discrepancy, due to discretization:         -0.195450 (  -0.01376%)
      ideal mu1:      -0.681733977730
             Q0:  -11504.614271684201
             G0:    -148.202637114178
   RMS gradient:       0.001871460499
MG BCs: +ve charge blocks (gridpoints):     30690 (   17352964).
MG BCs: -ve charge blocks (gridpoints):      8237 (    1090861).
MG BCs:     Elided blocks (gridpoints):    169943 (  177852640).
MG BCs: Computational effort saved:  99.9802%.
MG BCs: Charge after coarse-graining:           -9.0009578.
MG DL_MG: Calling solver with defect correction order = 8
MG DL_MG: Solver finished
MG Hartree energy from (\int phi*rho dr):              1444.307065
MG Hartree energy from (\int eps (grad phi)^2 dr):     1443.656663
MG Discrepancy due to finite box and discretization:     -0.650402 (  -0.04503%)
MG Correction to account for finite box:                  0.471004
MG Remaining discrepancy, due to discretization:         -0.179398 (  -0.01242%)
     Trial step:       0.500000000000
             Q1:  -11516.871688879328
 Quadratic coef:      61.843901361963
 Linear coef   :     -74.101318557089
           Qmin:  -11526.811308461365
Quadratic minimum step length (  0.299549821911) accepted
    Initial Ne1:    7192.00000000
      Final Ne1:    7192.00000000

=================== Penalty functional idempotency correction ==================
 RMS occupancy error at iteration   1:  0.003544 (step -0.4878 Ne1=   7192.0000)
 RMS occupancy error at iteration   2:  0.000033 (step -0.5003 Ne1=   7192.0000)
            Final RMS occupancy error   :  0.000000 (Ne1=   7192.0000)
               Final occupancy bounds   : [  0.0000,  1.0000]
================================================================================

    1        -1.150461427168E+04     1.8715E-03     1.6927E-03
MG BCs: +ve charge blocks (gridpoints):     30677 (   17320066).
MG BCs: -ve charge blocks (gridpoints):      8276 (    1099221).
MG BCs:     Elided blocks (gridpoints):    169954 (  177877178).
MG BCs: Computational effort saved:  99.9802%.
MG BCs: Charge after coarse-graining:           -9.0009502.
MG DL_MG: Calling solver with defect correction order = 8
MG DL_MG: Solver finished
MG Hartree energy from (\int phi*rho dr):              1426.679013
MG Hartree energy from (\int eps (grad phi)^2 dr):     1426.022315
MG Discrepancy due to finite box and discretization:     -0.656698 (  -0.04603%)
MG Correction to account for finite box:                  0.471710
MG Remaining discrepancy, due to discretization:         -0.184988 (  -0.01297%)
      ideal mu1:      -0.730673903459
             Q0:  -11527.230876060436
             G0:     -12.824819581447
   RMS gradient:       0.000546731870
MG BCs: +ve charge blocks (gridpoints):     30679 (   17337094).
MG BCs: -ve charge blocks (gridpoints):      8239 (    1093871).
MG BCs:     Elided blocks (gridpoints):    169952 (  177865500).
MG BCs: Computational effort saved:  99.9802%.
MG BCs: Charge after coarse-graining:           -9.0009538.
MG DL_MG: Calling solver with defect correction order = 8
MG DL_MG: Solver finished
MG Hartree energy from (\int phi*rho dr):              1431.445673
MG Hartree energy from (\int eps (grad phi)^2 dr):     1430.793122
MG Discrepancy due to finite box and discretization:     -0.652551 (  -0.04559%)
MG Correction to account for finite box:                  0.470732
MG Remaining discrepancy, due to discretization:         -0.181819 (  -0.01270%)
     Trial step:       0.387007636818
             Q1:  -11530.233524517389
 Quadratic coef:       1.960654661882
 Linear coef   :      -4.963303118836
           Qmin:  -11530.371966932833
Quadratic minimum step length (  0.489845623550) accepted
    Initial Ne1:    7191.99973102
      Final Ne1:    7192.00000000

=================== Penalty functional idempotency correction ==================
 RMS occupancy error at iteration   1:  0.001932 (step -0.4919 Ne1=   7192.0000)
 RMS occupancy error at iteration   2:  0.000019 (step -0.5005 Ne1=   7192.0000)
            Final RMS occupancy error   :  0.000000 (Ne1=   7192.0000)
               Final occupancy bounds   : [  0.0000,  1.0000]
================================================================================

    2        -1.152723087606E+04     5.4673E-04     4.9451E-04    -2.2617E+01
MG BCs: +ve charge blocks (gridpoints):     30680 (   17341620).
MG BCs: -ve charge blocks (gridpoints):      8231 (    1092518).
MG BCs:     Elided blocks (gridpoints):    169951 (  177862327).
MG BCs: Computational effort saved:  99.9802%.
MG BCs: Charge after coarse-graining:           -9.0009548.
MG DL_MG: Calling solver with defect correction order = 8
MG DL_MG: Solver finished
MG Hartree energy from (\int phi*rho dr):              1432.772780
MG Hartree energy from (\int eps (grad phi)^2 dr):     1432.121251
MG Discrepancy due to finite box and discretization:     -0.651530 (  -0.04547%)
MG Correction to account for finite box:                  0.470491
MG Remaining discrepancy, due to discretization:         -0.181039 (  -0.01264%)
      ideal mu1:      -0.758446609951
             Q0:  -11530.413482556818
             G0:      -2.057357742910
   RMS gradient:       0.000218980978
MG BCs: +ve charge blocks (gridpoints):     30680 (   17340350).
MG BCs: -ve charge blocks (gridpoints):      8239 (    1093861).
MG BCs:     Elided blocks (gridpoints):    169951 (  177862254).
MG BCs: Computational effort saved:  99.9802%.
MG BCs: Charge after coarse-graining:           -9.0009547.
MG DL_MG: Calling solver with defect correction order = 8
MG DL_MG: Solver finished
MG Hartree energy from (\int phi*rho dr):              1430.413751
MG Hartree energy from (\int eps (grad phi)^2 dr):     1429.762696
MG Discrepancy due to finite box and discretization:     -0.651054 (  -0.04552%)
MG Correction to account for finite box:                  0.470222
MG Remaining discrepancy, due to discretization:         -0.180832 (  -0.01264%)
     Trial step:       0.435400961386
             Q1:  -11530.948496841826
 Quadratic coef:       0.360761254171
 Linear coef   :      -0.895775539178
           Qmin:  -11530.969538540736
Quadratic minimum step length (  0.540553519031) accepted
    Initial Ne1:    7191.99974108
      Final Ne1:    7192.00000000

=================== Penalty functional idempotency correction ==================
 RMS occupancy error at iteration   1:  0.000725 (step -0.4958 Ne1=   7192.0000)
 RMS occupancy error at iteration   2:  0.000006 (step -0.5002 Ne1=   7192.0000)
            Final RMS occupancy error   :  0.000000 (Ne1=   7192.0000)
               Final occupancy bounds   : [  0.0000,  1.0000]
================================================================================

    3        -1.153041348256E+04     2.1898E-04     1.9806E-04    -3.1826E+00
MG BCs: +ve charge blocks (gridpoints):     30679 (   17340022).
MG BCs: -ve charge blocks (gridpoints):      8239 (    1094183).
MG BCs:     Elided blocks (gridpoints):    169952 (  177862260).
MG BCs: Computational effort saved:  99.9802%.
MG BCs: Charge after coarse-graining:           -9.0009547.
MG DL_MG: Calling solver with defect correction order = 8
MG DL_MG: Solver finished
MG Hartree energy from (\int phi*rho dr):              1429.855230
MG Hartree energy from (\int eps (grad phi)^2 dr):     1429.204278
MG Discrepancy due to finite box and discretization:     -0.650951 (  -0.04553%)
MG Correction to account for finite box:                  0.470158
MG Remaining discrepancy, due to discretization:         -0.180794 (  -0.01264%)
      ideal mu1:      -0.759291890600
             Q0:  -11530.975130269420
             G0:      -0.574846597815
   RMS gradient:       0.000115908640
MG BCs: +ve charge blocks (gridpoints):     30685 (   17341192).
MG BCs: -ve charge blocks (gridpoints):      8241 (    1093878).
MG BCs:     Elided blocks (gridpoints):    169946 (  177861395).
MG BCs: Computational effort saved:  99.9802%.
MG BCs: Charge after coarse-graining:           -9.0009547.
MG DL_MG: Calling solver with defect correction order = 8
MG DL_MG: Solver finished
MG Hartree energy from (\int phi*rho dr):              1431.265382
MG Hartree energy from (\int eps (grad phi)^2 dr):     1430.614456
MG Discrepancy due to finite box and discretization:     -0.650925 (  -0.04548%)
MG Correction to account for finite box:                  0.470036
MG Remaining discrepancy, due to discretization:         -0.180890 (  -0.01264%)
     Trial step:       0.485136601244
             Q1:  -11531.126188429189
 Quadratic coef:       0.127820964932
 Linear coef   :      -0.278879124701
           Qmin:  -11531.127244529853
Quadratic minimum step length (  0.529234272279) accepted
    Initial Ne1:    7191.99990100
      Final Ne1:    7192.00000000

=================== Penalty functional idempotency correction ==================
 RMS occupancy error at iteration   1:  0.000386 (step -0.4930 Ne1=   7192.0000)
 RMS occupancy error at iteration   2:  0.000005 (step -0.5002 Ne1=   7192.0000)
            Final RMS occupancy error   :  0.000000 (Ne1=   7192.0000)
               Final occupancy bounds   : [  0.0000,  1.0000]
================================================================================

    4        -1.153097513027E+04     1.1591E-04     1.0484E-04    -5.6165E-01
MG BCs: +ve charge blocks (gridpoints):     30685 (   17341287).
MG BCs: -ve charge blocks (gridpoints):      8242 (    1093846).
MG BCs:     Elided blocks (gridpoints):    169946 (  177861332).
MG BCs: Computational effort saved:  99.9802%.
MG BCs: Charge after coarse-graining:           -9.0009547.
MG DL_MG: Calling solver with defect correction order = 8
MG DL_MG: Solver finished
MG Hartree energy from (\int phi*rho dr):              1431.394514
MG Hartree energy from (\int eps (grad phi)^2 dr):     1430.743591
MG Discrepancy due to finite box and discretization:     -0.650924 (  -0.04547%)
MG Correction to account for finite box:                  0.470024
MG Remaining discrepancy, due to discretization:         -0.180899 (  -0.01264%)
      ideal mu1:      -0.759562709953
             Q0:  -11531.128105137148
             G0:      -0.255806852956
   RMS gradient:       0.000077540344
MG BCs: +ve charge blocks (gridpoints):     30683 (   17341573).
MG BCs: -ve charge blocks (gridpoints):      8243 (    1093591).
MG BCs:     Elided blocks (gridpoints):    169948 (  177861301).
MG BCs: Computational effort saved:  99.9802%.
MG BCs: Charge after coarse-graining:           -9.0009547.
MG DL_MG: Calling solver with defect correction order = 8
MG DL_MG: Solver finished
MG Hartree energy from (\int phi*rho dr):              1431.842204
MG Hartree energy from (\int eps (grad phi)^2 dr):     1431.191196
MG Discrepancy due to finite box and discretization:     -0.651008 (  -0.04547%)
MG Correction to account for finite box:                  0.469925
MG Remaining discrepancy, due to discretization:         -0.181082 (  -0.01265%)
     Trial step:       0.506705946398
             Q1:  -11531.217376073939
 Quadratic coef:       0.040347916731
 Linear coef   :      -0.129618853522
           Qmin:  -11531.232206219371
Quadratic minimum step length (  0.813903779511) accepted
    Initial Ne1:    7191.99989400
      Final Ne1:    7192.00000000

=================== Penalty functional idempotency correction ==================
 RMS occupancy error at iteration   1:  0.000870 (step -0.4606 Ne1=   7192.0000)
 RMS occupancy error at iteration   2:  0.000031 (step -0.5003 Ne1=   7192.0000)
            Final RMS occupancy error   :  0.000000 (Ne1=   7192.0000)
               Final occupancy bounds   : [  0.0000,  1.0000]
================================================================================

    5        -1.153112810514E+04     7.7540E-05     7.0133E-05    -1.5297E-01
MG BCs: +ve charge blocks (gridpoints):     30686 (   17341788).
MG BCs: -ve charge blocks (gridpoints):      8249 (    1093452).
MG BCs:     Elided blocks (gridpoints):    169945 (  177861225).
MG BCs: Computational effort saved:  99.9802%.
MG BCs: Charge after coarse-graining:           -9.0009546.
MG DL_MG: Calling solver with defect correction order = 8
MG DL_MG: Solver finished
MG Hartree energy from (\int phi*rho dr):              1432.107995
MG Hartree energy from (\int eps (grad phi)^2 dr):     1431.456939
MG Discrepancy due to finite box and discretization:     -0.651056 (  -0.04546%)
MG Correction to account for finite box:                  0.469862
MG Remaining discrepancy, due to discretization:         -0.181193 (  -0.01265%)
      ideal mu1:      -0.760034863846
             Q0:  -11531.230352958431
             G0:      -0.321468126255
   RMS gradient:       0.000088134112
MG BCs: +ve charge blocks (gridpoints):     30684 (   17340769).
MG BCs: -ve charge blocks (gridpoints):      8249 (    1094078).
MG BCs:     Elided blocks (gridpoints):    169947 (  177861618).
MG BCs: Computational effort saved:  99.9802%.
MG BCs: Charge after coarse-graining:           -9.0009544.
MG DL_MG: Calling solver with defect correction order = 8
MG DL_MG: Solver finished
MG Hartree energy from (\int phi*rho dr):              1430.173870
MG Hartree energy from (\int eps (grad phi)^2 dr):     1429.523064
MG Discrepancy due to finite box and discretization:     -0.650806 (  -0.04551%)
MG Correction to account for finite box:                  0.469642
MG Remaining discrepancy, due to discretization:         -0.181164 (  -0.01267%)
     Trial step:       0.642191470571
             Q1:  -11531.383704392123
 Quadratic coef:       0.053092655049
 Linear coef   :      -0.206444088741
           Qmin:  -11531.431035904767
Quadratic minimum step length (  1.248540243626) accepted
    Initial Ne1:    7191.99917913
      Final Ne1:    7192.00000000

=================== Penalty functional idempotency correction ==================
 RMS occupancy error at iteration   1:  0.007923 (step -0.2746 Ne1=   7192.0000)
 RMS occupancy error at iteration   2:  0.001001 (step -0.4890 Ne1=   7192.0000)
 RMS occupancy error at iteration   3:  0.000068 (step -0.5041 Ne1=   7192.0000)
            Final RMS occupancy error   :  0.000000 (Ne1=   7192.0000)
               Final occupancy bounds   : [  0.0000,  1.0000]
================================================================================

    6        -1.153123035296E+04     8.8134E-05     7.9715E-05    -1.0225E-01
MG BCs: +ve charge blocks (gridpoints):     30686 (   17339958).
MG BCs: -ve charge blocks (gridpoints):      8249 (    1094647).
MG BCs:     Elided blocks (gridpoints):    169945 (  177861860).
MG BCs: Computational effort saved:  99.9802%.
MG BCs: Charge after coarse-graining:           -9.0009543.
MG DL_MG: Calling solver with defect correction order = 8
MG DL_MG: Solver finished
MG Hartree energy from (\int phi*rho dr):              1428.412374
MG Hartree energy from (\int eps (grad phi)^2 dr):     1427.761731
MG Discrepancy due to finite box and discretization:     -0.650643 (  -0.04555%)
MG Correction to account for finite box:                  0.469502
MG Remaining discrepancy, due to discretization:         -0.181141 (  -0.01268%)
      ideal mu1:      -0.760330788869
             Q0:  -11531.383770076907
             G0:      -0.755103332433
   RMS gradient:       0.000133584446
MG BCs: +ve charge blocks (gridpoints):     30689 (   17343065).
MG BCs: -ve charge blocks (gridpoints):      8241 (    1092827).
MG BCs:     Elided blocks (gridpoints):    169942 (  177860573).
MG BCs: Computational effort saved:  99.9802%.
MG BCs: Charge after coarse-graining:           -9.0009554.
MG DL_MG: Calling solver with defect correction order = 8
MG DL_MG: Solver finished
MG Hartree energy from (\int phi*rho dr):              1433.042983
MG Hartree energy from (\int eps (grad phi)^2 dr):     1432.392768
MG Discrepancy due to finite box and discretization:     -0.650214 (  -0.04537%)
MG Correction to account for finite box:                  0.469408
MG Remaining discrepancy, due to discretization:         -0.180807 (  -0.01262%)
     Trial step:       0.895433914435
             Q1:  -11531.645168473246
 Quadratic coef:       0.414746736426
 Linear coef   :      -0.676145132764
           Qmin:  -11531.659343216132
Quadratic minimum step length (  0.729895174312) accepted
    Initial Ne1:    7191.99889281
      Final Ne1:    7192.00000000

=================== Penalty functional idempotency correction ==================
 RMS occupancy error at iteration   1:  0.000585 (step -0.4650 Ne1=   7192.0000)
 RMS occupancy error at iteration   2:  0.000014 (step -0.4998 Ne1=   7192.0000)
            Final RMS occupancy error   :  0.000000 (Ne1=   7192.0000)
               Final occupancy bounds   : [ -0.0000,  1.0000]
================================================================================

    7        -1.153138377008E+04     1.3358E-04     1.2082E-04    -1.5342E-01
MG BCs: +ve charge blocks (gridpoints):     30690 (   17342537).
MG BCs: -ve charge blocks (gridpoints):      8244 (    1093159).
MG BCs:     Elided blocks (gridpoints):    169941 (  177860769).
MG BCs: Computational effort saved:  99.9802%.
MG BCs: Charge after coarse-graining:           -9.0009551.
MG DL_MG: Calling solver with defect correction order = 8
MG DL_MG: Solver finished
MG Hartree energy from (\int phi*rho dr):              1432.183761
MG Hartree energy from (\int eps (grad phi)^2 dr):     1431.533468
MG Discrepancy due to finite box and discretization:     -0.650293 (  -0.04541%)
MG Correction to account for finite box:                  0.469426
MG Remaining discrepancy, due to discretization:         -0.180867 (  -0.01263%)
      ideal mu1:      -0.762168585757
             Q0:  -11531.660399707849
             G0:      -0.688804064151
   RMS gradient:       0.000127540449
MG BCs: +ve charge blocks (gridpoints):     30680 (   17342244).
MG BCs: -ve charge blocks (gridpoints):      8241 (    1093306).
MG BCs:     Elided blocks (gridpoints):    169951 (  177860915).
MG BCs: Computational effort saved:  99.9802%.
MG BCs: Charge after coarse-graining:           -9.0009552.
MG DL_MG: Calling solver with defect correction order = 8
MG DL_MG: Solver finished
MG Hartree energy from (\int phi*rho dr):              1431.473826
MG Hartree energy from (\int eps (grad phi)^2 dr):     1430.823956
MG Discrepancy due to finite box and discretization:     -0.649870 (  -0.04540%)
MG Correction to account for finite box:                  0.469355
MG Remaining discrepancy, due to discretization:         -0.180515 (  -0.01261%)
     Trial step:       0.808438552434
             Q1:  -11531.919861532049
 Quadratic coef:       0.297393936333
 Linear coef   :      -0.556855760533
           Qmin:  -11531.921071076828
Quadratic minimum step length (  0.756881042214) accepted
    Initial Ne1:    7191.99901065
      Final Ne1:    7192.00000000

=================== Penalty functional idempotency correction ==================
 RMS occupancy error at iteration   1:  0.003570 (step -0.3429 Ne1=   7192.0000)
 RMS occupancy error at iteration   2:  0.000326 (step -0.4899 Ne1=   7192.0000)
 RMS occupancy error at iteration   3:  0.000006 (step -0.5003 Ne1=   7192.0000)
            Final RMS occupancy error   :  0.000000 (Ne1=   7192.0000)
               Final occupancy bounds   : [  0.0000,  1.0000]
================================================================================

    8        -1.153166039971E+04     1.2754E-04     1.1536E-04    -2.7663E-01
MG BCs: +ve charge blocks (gridpoints):     30681 (   17342280).
MG BCs: -ve charge blocks (gridpoints):      8240 (    1093260).
MG BCs:     Elided blocks (gridpoints):    169950 (  177860925).
MG BCs: Computational effort saved:  99.9802%.
MG BCs: Charge after coarse-graining:           -9.0009552.
MG DL_MG: Calling solver with defect correction order = 8
MG DL_MG: Solver finished
MG Hartree energy from (\int phi*rho dr):              1431.525592
MG Hartree energy from (\int eps (grad phi)^2 dr):     1430.875689
MG Discrepancy due to finite box and discretization:     -0.649903 (  -0.04540%)
MG Correction to account for finite box:                  0.469367
MG Remaining discrepancy, due to discretization:         -0.180536 (  -0.01261%)
      ideal mu1:      -0.761506241562
             Q0:  -11531.931389094680
             G0:      -0.583446750492
   RMS gradient:       0.000113170730
MG BCs: +ve charge blocks (gridpoints):     30681 (   17340808).
MG BCs: -ve charge blocks (gridpoints):      8242 (    1094067).
MG BCs:     Elided blocks (gridpoints):    169950 (  177861590).
MG BCs: Computational effort saved:  99.9802%.
MG BCs: Charge after coarse-graining:           -9.0009546.
MG DL_MG: Calling solver with defect correction order = 8
MG DL_MG: Solver finished
MG Hartree energy from (\int phi*rho dr):              1429.089092
MG Hartree energy from (\int eps (grad phi)^2 dr):     1428.439246
MG Discrepancy due to finite box and discretization:     -0.649846 (  -0.04547%)
MG Correction to account for finite box:                  0.469305
MG Remaining discrepancy, due to discretization:         -0.180541 (  -0.01263%)
     Trial step:       0.782235139924
             Q1:  -11532.067158178659
 Quadratic coef:       0.320623466530
 Linear coef   :      -0.456392550510
           Qmin:  -11532.093802471978
Quadratic minimum step length (  0.556737618852) accepted
    Initial Ne1:    7191.99940772
      Final Ne1:    7192.00000000

=================== Penalty functional idempotency correction ==================
 RMS occupancy error at iteration   1:  0.004499 (step -0.3255 Ne1=   7192.0000)
 RMS occupancy error at iteration   2:  0.000464 (step -0.4880 Ne1=   7192.0000)
 RMS occupancy error at iteration   3:  0.000014 (step -0.5009 Ne1=   7192.0000)
            Final RMS occupancy error   :  0.000000 (Ne1=   7192.0000)
               Final occupancy bounds   : [  0.0000,  1.0000]
================================================================================

    9        -1.153193138909E+04     1.1317E-04     1.0236E-04    -2.7099E-01
MG BCs: +ve charge blocks (gridpoints):     30682 (   17341139).
MG BCs: -ve charge blocks (gridpoints):      8237 (    1093835).
MG BCs:     Elided blocks (gridpoints):    169949 (  177861491).
MG BCs: Computational effort saved:  99.9802%.
MG BCs: Charge after coarse-graining:           -9.0009548.
MG DL_MG: Calling solver with defect correction order = 8
MG DL_MG: Solver finished
MG Hartree energy from (\int phi*rho dr):              1429.760149
MG Hartree energy from (\int eps (grad phi)^2 dr):     1429.110279
MG Discrepancy due to finite box and discretization:     -0.649870 (  -0.04545%)
MG Correction to account for finite box:                  0.469352
MG Remaining discrepancy, due to discretization:         -0.180518 (  -0.01263%)
      ideal mu1:      -0.760708527540
   10        -1.153212231005E+04     8.5488E-05     7.7322E-05    -1.9092E-01
Finished density kernel iterations (  10)

Writing density kernel to file "host_33161.vacuum_dkn" ... done


>>> Density kernel optimised for the current NGWF basis:
     ~~~~~~~~~~~~~~~~~~~~~~~~~~~~~~~~~~~~~~~~~~~~~~~~~~~~~~~~~~~
     Total energy                =  -1.15321223100461E+04  Eh
     Estimated bandgap           =  -3.6030E-01  Eh
     RMS occupancy error         =   8.5516E-09
     [H,K] commutator            =   7.7322E-05
     Occupancy bounds            = [  0.000:  1.000]
     ~~~~~~~~~~~~~~~~~~~~~~~~~~~~~~~~~~~~~~~~~~~~~~~~~~~~~~~~~~~




################################################################################
########################### NGWF CG iteration  001 #############################
################################################################################
****** Reciprocal space K.E. preconditioning with k_zero =  3.5000 a0^-1 *******

>>> Checking for convergence of NGWFs:   NOT CONVERGED
  ========================================================================
         NGWF RMS gradient =  1.5919E-03 >  2.0000E-06  | above tolerance
  ========================================================================

>>> Improving NGWFs using line search:
============ Calculation of NGWF S^-1 using Hotelling algorithm ================ 
         Iteration  |  Frobenius norm and Maximum abs value    (of I-S*S_n^-1)   
               1       0.19653879E+00     0.51286145E-02
               2       0.89988625E-03     0.37083537E-04
               3       0.32135782E-07     0.20543365E-08
               4       0.12882788E-12     0.56621374E-14
================================================================================
MG BCs: +ve charge blocks (gridpoints):     30273 (   17295022).
MG BCs: -ve charge blocks (gridpoints):      8268 (    1093662).
MG BCs:     Elided blocks (gridpoints):    170359 (  177907781).
MG BCs: Computational effort saved:  99.9804%.
MG BCs: Charge after coarse-graining:           -9.0009559.
MG DL_MG: Calling solver with defect correction order = 8
MG DL_MG: Solver finished
MG Hartree energy from (\int phi*rho dr):              1398.138393
MG Hartree energy from (\int eps (grad phi)^2 dr):     1397.489319
MG Discrepancy due to finite box and discretization:     -0.649073 (  -0.04642%)
MG Correction to account for finite box:                  0.469289
MG Remaining discrepancy, due to discretization:         -0.179784 (  -0.01286%)
============ Calculation of NGWF S^-1 using Hotelling algorithm ================ 
         Iteration  |  Frobenius norm and Maximum abs value    (of I-S*S_n^-1)   
               1       0.18396776E+01     0.39813268E-01
               2       0.70384629E-01     0.20695609E-02
               3       0.13925848E-03     0.68062516E-05
               4       0.96001209E-09     0.88949625E-10
               5       0.10988350E-12     0.64392935E-14
================================================================================
------------------------------- NGWF line search -------------------------------
RMS gradient                =       0.00159193825451
Trial step length           =               0.122474
Gradient along search dir.  =       -275.21739308401
Functional at step 0        =  -11532.12231004610658
Functional at step 1        =  -11563.25123380497098
Functional predicted        =  -11642.29371598096441
Selected quadratic step     =               0.800614
--------------------------- NGWF line search finished --------------------------
                                               
Writing NGWFs to file "host_33161.vacuum_tightbox_ngwfs"....  done

>>> Optimising kernel for current NGWFs:
   Initial electron number for spin 1:    7226.38675147
     Final electron number for spin 1:    7192.00000000

=================== Penalty functional idempotency correction ==================
 RMS occupancy error at iteration   1:  0.004278 (step -0.4859 Ne1=   7192.0000)
 RMS occupancy error at iteration   2:  0.000072 (step -0.5003 Ne1=   7192.0000)
            Final RMS occupancy error   :  0.000000 (Ne1=   7192.0000)
               Final occupancy bounds   : [  0.0000,  1.0000]
================================================================================

................................................................................
<<<<<<<<<<<<<< LNV (Original version) density kernel optimisation >>>>>>>>>>>>>>
~~~~~~~~~~~~~~~~~~~~~~~~~~~~~~~~~~~~~~~~~~~~~~~~~~~~~~~~~~~~~~~~~~~~~~~~~~~~~~~~
   iter  |      energy (Eh)       | rms gradient |  commutator  |   dE (Eh)
MG BCs: +ve charge blocks (gridpoints):     24739 (   17021518).
MG BCs: -ve charge blocks (gridpoints):      8426 (    1077190).
MG BCs:     Elided blocks (gridpoints):    175901 (  178197757).
MG BCs: Computational effort saved:  99.9831%.
MG BCs: Charge after coarse-graining:           -9.0006641.
MG DL_MG: Calling solver with defect correction order = 8
MG DL_MG: Solver finished
MG Hartree energy from (\int phi*rho dr):              1245.004507
MG Hartree energy from (\int eps (grad phi)^2 dr):     1244.355234
MG Discrepancy due to finite box and discretization:     -0.649273 (  -0.05215%)
MG Correction to account for finite box:                  0.469009
MG Remaining discrepancy, due to discretization:         -0.180264 (  -0.01448%)
      ideal mu1:      -0.702812026887
             Q0:  -11641.503623495693
             G0:      -9.934720458016
   RMS gradient:       0.000484540993
MG BCs: +ve charge blocks (gridpoints):     24808 (   17033991).
MG BCs: -ve charge blocks (gridpoints):      8414 (    1074225).
MG BCs:     Elided blocks (gridpoints):    175832 (  178188249).
MG BCs: Computational effort saved:  99.9831%.
MG BCs: Charge after coarse-graining:           -9.0006606.
MG DL_MG: Calling solver with defect correction order = 8
MG DL_MG: Solver finished
MG Hartree energy from (\int phi*rho dr):              1259.037630
MG Hartree energy from (\int eps (grad phi)^2 dr):     1258.383552
MG Discrepancy due to finite box and discretization:     -0.654078 (  -0.05195%)
MG Correction to account for finite box:                  0.468324
MG Remaining discrepancy, due to discretization:         -0.185755 (  -0.01475%)
     Trial step:       0.659924032888
             Q1:  -11641.626419817447
 Quadratic coef:       6.433364468519
 Linear coef   :      -6.556160790273
           Qmin:  -11643.173948739905
Quadratic minimum step length (  0.336260139632) accepted
    Initial Ne1:    7191.99955609
      Final Ne1:    7192.00000000

=================== Penalty functional idempotency correction ==================
 RMS occupancy error at iteration   1:  0.000372 (step -0.4985 Ne1=   7192.0000)
 RMS occupancy error at iteration   2:  0.000000 (step -0.5000 Ne1=   7192.0000)
            Final RMS occupancy error   :  0.000000 (Ne1=   7192.0000)
               Final occupancy bounds   : [  0.0000,  1.0000]
================================================================================

    1        -1.164150362350E+04     4.8454E-04     4.3826E-04
MG BCs: +ve charge blocks (gridpoints):     24776 (   17027992).
MG BCs: -ve charge blocks (gridpoints):      8421 (    1075667).
MG BCs:     Elided blocks (gridpoints):    175864 (  178192806).
MG BCs: Computational effort saved:  99.9831%.
MG BCs: Charge after coarse-graining:           -9.0006622.
MG DL_MG: Calling solver with defect correction order = 8
MG DL_MG: Solver finished
MG Hartree energy from (\int phi*rho dr):              1251.376732
MG Hartree energy from (\int eps (grad phi)^2 dr):     1250.725092
MG Discrepancy due to finite box and discretization:     -0.651639 (  -0.05207%)
MG Correction to account for finite box:                  0.468638
MG Remaining discrepancy, due to discretization:         -0.183001 (  -0.01462%)
      ideal mu1:      -0.709116761504
             Q0:  -11643.152306004078
             G0:      -1.118537618447
   RMS gradient:       0.000163027392
MG BCs: +ve charge blocks (gridpoints):     24781 (   17027083).
MG BCs: -ve charge blocks (gridpoints):      8424 (    1076696).
MG BCs:     Elided blocks (gridpoints):    175859 (  178192686).
MG BCs: Computational effort saved:  99.9831%.
MG BCs: Charge after coarse-graining:           -9.0006623.
MG DL_MG: Calling solver with defect correction order = 8
MG DL_MG: Solver finished
MG Hartree energy from (\int phi*rho dr):              1252.212794
MG Hartree energy from (\int eps (grad phi)^2 dr):     1251.560914
MG Discrepancy due to finite box and discretization:     -0.651879 (  -0.05206%)
MG Correction to account for finite box:                  0.468477
MG Remaining discrepancy, due to discretization:         -0.183402 (  -0.01465%)
     Trial step:       0.471069153571
             Q1:  -11643.402738773613
 Quadratic coef:       0.276475799623
 Linear coef   :      -0.526908569159
           Qmin:  -11643.403352063653
Quadratic minimum step length (  0.448882640038) accepted
    Initial Ne1:    7191.99993290
      Final Ne1:    7192.00000000

=================== Penalty functional idempotency correction ==================
 RMS occupancy error at iteration   1:  0.000201 (step -0.4978 Ne1=   7192.0000)
 RMS occupancy error at iteration   2:  0.000001 (step -0.5000 Ne1=   7192.0000)
            Final RMS occupancy error   :  0.000000 (Ne1=   7192.0000)
               Final occupancy bounds   : [  0.0000,  1.0000]
================================================================================

    2        -1.164315230600E+04     1.6303E-04     1.4745E-04    -1.6487E+00
MG BCs: +ve charge blocks (gridpoints):     24781 (   17027118).
MG BCs: -ve charge blocks (gridpoints):      8424 (    1076649).
MG BCs:     Elided blocks (gridpoints):    175859 (  178192698).
MG BCs: Computational effort saved:  99.9831%.
MG BCs: Charge after coarse-graining:           -9.0006623.
MG DL_MG: Calling solver with defect correction order = 8
MG DL_MG: Solver finished
MG Hartree energy from (\int phi*rho dr):              1252.173461
MG Hartree energy from (\int eps (grad phi)^2 dr):     1251.521594
MG Discrepancy due to finite box and discretization:     -0.651868 (  -0.05206%)
MG Correction to account for finite box:                  0.468485
MG Remaining discrepancy, due to discretization:         -0.183383 (  -0.01465%)
      ideal mu1:      -0.709835331429
             Q0:  -11643.403931346955
             G0:      -0.249538719548
   RMS gradient:       0.000076706011
MG BCs: +ve charge blocks (gridpoints):     24778 (   17026288).
MG BCs: -ve charge blocks (gridpoints):      8425 (    1077117).
MG BCs:     Elided blocks (gridpoints):    175862 (  178193060).
MG BCs: Computational effort saved:  99.9831%.
MG BCs: Charge after coarse-graining:           -9.0006623.
MG DL_MG: Calling solver with defect correction order = 8
MG DL_MG: Solver finished
MG Hartree energy from (\int phi*rho dr):              1251.547516
MG Hartree energy from (\int eps (grad phi)^2 dr):     1250.895815
MG Discrepancy due to finite box and discretization:     -0.651701 (  -0.05207%)
MG Correction to account for finite box:                  0.468335
MG Remaining discrepancy, due to discretization:         -0.183366 (  -0.01465%)
     Trial step:       0.459842109093
             Q1:  -11643.490468396922
 Quadratic coef:       0.028211361130
 Linear coef   :      -0.114748411098
           Qmin:  -11643.520614815263
Quadratic minimum step length (  0.935193291999) accepted
    Initial Ne1:    7191.99996892
      Final Ne1:    7192.00000000

=================== Penalty functional idempotency correction ==================
 RMS occupancy error at iteration   1:  0.000618 (step -0.4683 Ne1=   7192.0000)
 RMS occupancy error at iteration   2:  0.000016 (step -0.5000 Ne1=   7192.0000)
            Final RMS occupancy error   :  0.000000 (Ne1=   7192.0000)
               Final occupancy bounds   : [  0.0000,  1.0000]
================================================================================

    3        -1.164340393135E+04     7.6706E-05     6.9379E-05    -2.5163E-01
MG BCs: +ve charge blocks (gridpoints):     24778 (   17025407).
MG BCs: -ve charge blocks (gridpoints):      8429 (    1077581).
MG BCs:     Elided blocks (gridpoints):    175862 (  178193477).
MG BCs: Computational effort saved:  99.9831%.
MG BCs: Charge after coarse-graining:           -9.0006624.
MG DL_MG: Calling solver with defect correction order = 8
MG DL_MG: Solver finished
MG Hartree energy from (\int phi*rho dr):              1250.900725
MG Hartree energy from (\int eps (grad phi)^2 dr):     1250.249205
MG Discrepancy due to finite box and discretization:     -0.651520 (  -0.05208%)
MG Correction to account for finite box:                  0.468169
MG Remaining discrepancy, due to discretization:         -0.183351 (  -0.01466%)
      ideal mu1:      -0.708916142696
             Q0:  -11643.519243950723
             G0:      -0.189303883672
   RMS gradient:       0.000067287868
MG BCs: +ve charge blocks (gridpoints):     24773 (   17025576).
MG BCs: -ve charge blocks (gridpoints):      8430 (    1077505).
MG BCs:     Elided blocks (gridpoints):    175867 (  178193384).
MG BCs: Computational effort saved:  99.9831%.
MG BCs: Charge after coarse-graining:           -9.0006624.
MG DL_MG: Calling solver with defect correction order = 8
MG DL_MG: Solver finished
MG Hartree energy from (\int phi*rho dr):              1250.967372
MG Hartree energy from (\int eps (grad phi)^2 dr):     1250.316397
MG Discrepancy due to finite box and discretization:     -0.650975 (  -0.05204%)
MG Correction to account for finite box:                  0.467833
MG Remaining discrepancy, due to discretization:         -0.183142 (  -0.01464%)
     Trial step:       0.655775308931
             Q1:  -11643.601830333471
 Quadratic coef:       0.041554430049
 Linear coef   :      -0.124140812796
           Qmin:  -11643.611959344627
Quadratic minimum step length (  0.979540325392) accepted
    Initial Ne1:    7191.99993004
      Final Ne1:    7192.00000000

=================== Penalty functional idempotency correction ==================
 RMS occupancy error at iteration   1:  0.002172 (step -0.3949 Ne1=   7192.0000)
 RMS occupancy error at iteration   2:  0.000145 (step -0.4966 Ne1=   7192.0000)
 RMS occupancy error at iteration   3:  0.000001 (step -0.5000 Ne1=   7192.0000)
            Final RMS occupancy error   :  0.000000 (Ne1=   7192.0000)
               Final occupancy bounds   : [  0.0000,  1.0000]
================================================================================

    4        -1.164351924395E+04     6.7288E-05     6.0860E-05    -1.1531E-01
MG BCs: +ve charge blocks (gridpoints):     24771 (   17025750).
MG BCs: -ve charge blocks (gridpoints):      8431 (    1077419).
MG BCs:     Elided blocks (gridpoints):    175869 (  178193296).
MG BCs: Computational effort saved:  99.9831%.
MG BCs: Charge after coarse-graining:           -9.0006624.
MG DL_MG: Calling solver with defect correction order = 8
MG DL_MG: Solver finished
MG Hartree energy from (\int phi*rho dr):              1251.011955
MG Hartree energy from (\int eps (grad phi)^2 dr):     1250.361229
MG Discrepancy due to finite box and discretization:     -0.650726 (  -0.05202%)
MG Correction to account for finite box:                  0.467685
MG Remaining discrepancy, due to discretization:         -0.183041 (  -0.01463%)
      ideal mu1:      -0.710397923277
             Q0:  -11643.610707681393
             G0:      -0.243208187409
   RMS gradient:       0.000075385808
MG BCs: +ve charge blocks (gridpoints):     24775 (   17029176).
MG BCs: -ve charge blocks (gridpoints):      8427 (    1076205).
MG BCs:     Elided blocks (gridpoints):    175865 (  178191084).
MG BCs: Computational effort saved:  99.9831%.
MG BCs: Charge after coarse-graining:           -9.0006617.
MG DL_MG: Calling solver with defect correction order = 8
MG DL_MG: Solver finished
MG Hartree energy from (\int phi*rho dr):              1252.946603
MG Hartree energy from (\int eps (grad phi)^2 dr):     1252.296522
MG Discrepancy due to finite box and discretization:     -0.650081 (  -0.05188%)
MG Correction to account for finite box:                  0.467139
MG Remaining discrepancy, due to discretization:         -0.182941 (  -0.01460%)
     Trial step:       0.801472619304
             Q1:  -11643.672845026711
 Quadratic coef:       0.132787357681
 Linear coef   :      -0.194924702999
           Qmin:  -11643.682242427816
Quadratic minimum step length (  0.588259360710) accepted
    Initial Ne1:    7191.99994712
      Final Ne1:    7192.00000000

=================== Penalty functional idempotency correction ==================
 RMS occupancy error at iteration   1:  0.003477 (step -0.3526 Ne1=   7192.0000)
 RMS occupancy error at iteration   2:  0.000309 (step -0.4921 Ne1=   7192.0000)
 RMS occupancy error at iteration   3:  0.000006 (step -0.5004 Ne1=   7192.0000)
            Final RMS occupancy error   :  0.000000 (Ne1=   7192.0000)
               Final occupancy bounds   : [  0.0000,  1.0000]
================================================================================

    5        -1.164361070768E+04     7.5386E-05     6.8185E-05    -9.1464E-02
MG BCs: +ve charge blocks (gridpoints):     24774 (   17028265).
MG BCs: -ve charge blocks (gridpoints):      8426 (    1076496).
MG BCs:     Elided blocks (gridpoints):    175866 (  178191704).
MG BCs: Computational effort saved:  99.9831%.
MG BCs: Charge after coarse-graining:           -9.0006619.
MG DL_MG: Calling solver with defect correction order = 8
MG DL_MG: Solver finished
MG Hartree energy from (\int phi*rho dr):              1252.406142
MG Hartree energy from (\int eps (grad phi)^2 dr):     1251.755930
MG Discrepancy due to finite box and discretization:     -0.650211 (  -0.05192%)
MG Correction to account for finite box:                  0.467255
MG Remaining discrepancy, due to discretization:         -0.182956 (  -0.01461%)
      ideal mu1:      -0.712430364558
             Q0:  -11643.693347937660
             G0:      -0.179941945614
   RMS gradient:       0.000058668624
MG BCs: +ve charge blocks (gridpoints):     24774 (   17028673).
MG BCs: -ve charge blocks (gridpoints):      8426 (    1076469).
MG BCs:     Elided blocks (gridpoints):    175866 (  178191323).
MG BCs: Computational effort saved:  99.9831%.
MG BCs: Charge after coarse-graining:           -9.0006618.
MG DL_MG: Calling solver with defect correction order = 8
MG DL_MG: Solver finished
MG Hartree energy from (\int phi*rho dr):              1252.322016
MG Hartree energy from (\int eps (grad phi)^2 dr):     1251.672013
MG Discrepancy due to finite box and discretization:     -0.650002 (  -0.05190%)
MG Correction to account for finite box:                  0.466937
MG Remaining discrepancy, due to discretization:         -0.183065 (  -0.01462%)
     Trial step:       0.686639476478
             Q1:  -11643.765942317434
 Quadratic coef:       0.050960863560
 Linear coef   :      -0.123555243333
           Qmin:  -11643.768238241162
Quadratic minimum step length (  0.832382947140) accepted
    Initial Ne1:    7191.99993833
      Final Ne1:    7192.00000000

=================== Penalty functional idempotency correction ==================
 RMS occupancy error at iteration   1:  0.004593 (step -0.3317 Ne1=   7192.0000)
 RMS occupancy error at iteration   2:  0.000423 (step -0.4922 Ne1=   7192.0000)
 RMS occupancy error at iteration   3:  0.000013 (step -0.5008 Ne1=   7192.0000)
            Final RMS occupancy error   :  0.000000 (Ne1=   7192.0000)
               Final occupancy bounds   : [  0.0000,  1.0000]
================================================================================

    6        -1.164369334794E+04     5.8669E-05     5.3064E-05    -8.2640E-02
MG BCs: +ve charge blocks (gridpoints):     24773 (   17028726).
MG BCs: -ve charge blocks (gridpoints):      8425 (    1076462).
MG BCs:     Elided blocks (gridpoints):    175867 (  178191277).
MG BCs: Computational effort saved:  99.9831%.
MG BCs: Charge after coarse-graining:           -9.0006618.
MG DL_MG: Calling solver with defect correction order = 8
MG DL_MG: Solver finished
MG Hartree energy from (\int phi*rho dr):              1252.295637
MG Hartree energy from (\int eps (grad phi)^2 dr):     1251.645671
MG Discrepancy due to finite box and discretization:     -0.649966 (  -0.05190%)
MG Correction to account for finite box:                  0.466886
MG Remaining discrepancy, due to discretization:         -0.183080 (  -0.01462%)
      ideal mu1:      -0.713205354549
             Q0:  -11643.781302200747
             G0:      -0.180515705388
   RMS gradient:       0.000065314589
MG BCs: +ve charge blocks (gridpoints):     24768 (   17025640).
MG BCs: -ve charge blocks (gridpoints):      8432 (    1077403).
MG BCs:     Elided blocks (gridpoints):    175872 (  178193422).
MG BCs: Computational effort saved:  99.9831%.
MG BCs: Charge after coarse-graining:           -9.0006625.
MG DL_MG: Calling solver with defect correction order = 8
MG DL_MG: Solver finished
MG Hartree energy from (\int phi*rho dr):              1250.586563
MG Hartree energy from (\int eps (grad phi)^2 dr):     1249.936807
MG Discrepancy due to finite box and discretization:     -0.649756 (  -0.05196%)
MG Correction to account for finite box:                  0.466706
MG Remaining discrepancy, due to discretization:         -0.183049 (  -0.01464%)
     Trial step:       0.756007269180
             Q1:  -11643.841607867973
 Quadratic coef:       0.076165518249
 Linear coef   :      -0.136471185474
           Qmin:  -11643.842433487229
Quadratic minimum step length (  0.677296043042) accepted
    Initial Ne1:    7191.99997114
      Final Ne1:    7192.00000000

=================== Penalty functional idempotency correction ==================
 RMS occupancy error at iteration   1:  0.000231 (step -0.4823 Ne1=   7192.0000)
 RMS occupancy error at iteration   2:  0.000002 (step -0.5000 Ne1=   7192.0000)
            Final RMS occupancy error   :  0.000000 (Ne1=   7192.0000)
               Final occupancy bounds   : [  0.0000,  1.0000]
================================================================================

    7        -1.164378130220E+04     6.5315E-05     5.9076E-05    -8.7954E-02
MG BCs: +ve charge blocks (gridpoints):     24769 (   17025955).
MG BCs: -ve charge blocks (gridpoints):      8431 (    1077322).
MG BCs:     Elided blocks (gridpoints):    175871 (  178193188).
MG BCs: Computational effort saved:  99.9831%.
MG BCs: Charge after coarse-graining:           -9.0006624.
MG DL_MG: Calling solver with defect correction order = 8
MG DL_MG: Solver finished
MG Hartree energy from (\int phi*rho dr):              1250.761841
MG Hartree energy from (\int eps (grad phi)^2 dr):     1250.112060
MG Discrepancy due to finite box and discretization:     -0.649781 (  -0.05195%)
MG Correction to account for finite box:                  0.466729
MG Remaining discrepancy, due to discretization:         -0.183052 (  -0.01464%)
      ideal mu1:      -0.712575811882
             Q0:  -11643.842427001451
             G0:      -0.241859295294
   RMS gradient:       0.000075729536
MG BCs: +ve charge blocks (gridpoints):     24772 (   17025026).
MG BCs: -ve charge blocks (gridpoints):      8434 (    1077509).
MG BCs:     Elided blocks (gridpoints):    175868 (  178193930).
MG BCs: Computational effort saved:  99.9831%.
MG BCs: Charge after coarse-graining:           -9.0006626.
MG DL_MG: Calling solver with defect correction order = 8
MG DL_MG: Solver finished
MG Hartree energy from (\int phi*rho dr):              1250.141898
MG Hartree energy from (\int eps (grad phi)^2 dr):     1249.492553
MG Discrepancy due to finite box and discretization:     -0.649346 (  -0.05194%)
MG Correction to account for finite box:                  0.466158
[...]
MG DL_MG: Calling solver with defect correction order = 8
MG DL_MG: Solver finished
MG Hartree energy from (\int phi*rho dr):              1209.415186
MG Hartree energy from (\int eps (grad phi)^2 dr):     1209.226176
MG Discrepancy due to finite box and discretization:     -0.189010 (  -0.01563%)
MG Correction to account for finite box:                  0.006457
MG Remaining discrepancy, due to discretization:         -0.182553 (  -0.01509%)
             Q2:  -11678.758750149515
  Cubic LS coeff:       1.018220545306
Predicted energy:  -11678.758750149518
Cubic minimum step length accepted
    Initial Ne1:    7192.00000000
      Final Ne1:    7192.00000000

=================== Penalty functional idempotency correction ==================
 RMS occupancy error at iteration   1:  0.000000 (step -0.5000 Ne1=   7192.0000)
            Final RMS occupancy error   :  0.000000 (Ne1=   7192.0000)
               Final occupancy bounds   : [  0.0000,  1.0000]
================================================================================

    7        -1.167875875014E+04     9.6565E-09     8.7340E-09    -2.7940E-09

Reusing previously generated solute cavity.
MG BCs: +ve charge blocks (gridpoints):     29063 (   19220183).
MG BCs: -ve charge blocks (gridpoints):      8436 (    1046496).
MG BCs:     Elided blocks (gridpoints):    171577 (  176029786).
MG BCs: Computational effort saved:  99.9809%.
MG BCs: Charge after coarse-graining:           -9.0009369.
MG DL_MG: Calling solver with defect correction order = 8
MG DL_MG: Solver finished
MG Hartree energy from (\int phi*rho dr):              1209.415186
MG Hartree energy from (\int eps (grad phi)^2 dr):     1209.226176
MG Discrepancy due to finite box and discretization:     -0.189010 (  -0.01563%)
MG Correction to account for finite box:                  0.006457
MG Remaining discrepancy, due to discretization:         -0.182553 (  -0.01509%)
      ideal mu1:      -0.481240132215
             Q0:  -11678.758750149398
             G0:      -0.000000005259
   RMS gradient:       0.000000011813

Reusing previously generated solute cavity.
MG BCs: +ve charge blocks (gridpoints):     29063 (   19220183).
MG BCs: -ve charge blocks (gridpoints):      8436 (    1046496).
MG BCs:     Elided blocks (gridpoints):    171577 (  176029786).
MG BCs: Computational effort saved:  99.9809%.
MG BCs: Charge after coarse-graining:           -9.0009369.
MG DL_MG: Calling solver with defect correction order = 8
MG DL_MG: Solver finished
MG Hartree energy from (\int phi*rho dr):              1209.415147
MG Hartree energy from (\int eps (grad phi)^2 dr):     1209.226138
MG Discrepancy due to finite box and discretization:     -0.189010 (  -0.01563%)
MG Correction to account for finite box:                  0.006457
MG Remaining discrepancy, due to discretization:         -0.182553 (  -0.01509%)
     Trial step:       0.722532317144
             Q1:  -11678.758750151726
 Quadratic coef:       0.000000001472
 Linear coef   :      -0.000000003800
           Qmin:  -11678.758750151852
Quadratic minimum step length (  0.932867292302) accepted
    Initial Ne1:    7192.00000000
      Final Ne1:    7192.00000000

=================== Penalty functional idempotency correction ==================
 RMS occupancy error at iteration   1:  0.000000 (step -0.5000 Ne1=   7192.0000)
            Final RMS occupancy error   :  0.000000 (Ne1=   7192.0000)
               Final occupancy bounds   : [  0.0000,  1.0000]
================================================================================

    8        -1.167875875015E+04     1.1813E-08     1.0685E-08    -4.4238E-09

Reusing previously generated solute cavity.
MG BCs: +ve charge blocks (gridpoints):     29063 (   19220183).
MG BCs: -ve charge blocks (gridpoints):      8436 (    1046496).
MG BCs:     Elided blocks (gridpoints):    171577 (  176029786).
MG BCs: Computational effort saved:  99.9809%.
MG BCs: Charge after coarse-graining:           -9.0009369.
MG DL_MG: Calling solver with defect correction order = 8
MG DL_MG: Solver finished
MG Hartree energy from (\int phi*rho dr):              1209.415136
MG Hartree energy from (\int eps (grad phi)^2 dr):     1209.226126
MG Discrepancy due to finite box and discretization:     -0.189010 (  -0.01563%)
MG Correction to account for finite box:                  0.006457
MG Remaining discrepancy, due to discretization:         -0.182553 (  -0.01509%)
      ideal mu1:      -0.481240073764
             Q0:  -11678.758750151843
             G0:      -0.000000003322
   RMS gradient:       0.000000008453

Reusing previously generated solute cavity.
MG BCs: +ve charge blocks (gridpoints):     29063 (   19220183).
MG BCs: -ve charge blocks (gridpoints):      8436 (    1046496).
MG BCs:     Elided blocks (gridpoints):    171577 (  176029786).
MG BCs: Computational effort saved:  99.9809%.
MG BCs: Charge after coarse-graining:           -9.0009369.
MG DL_MG: Calling solver with defect correction order = 8
MG DL_MG: Solver finished
MG Hartree energy from (\int phi*rho dr):              1209.415136
MG Hartree energy from (\int eps (grad phi)^2 dr):     1209.226126
MG Discrepancy due to finite box and discretization:     -0.189010 (  -0.01563%)
MG Correction to account for finite box:                  0.006457
MG Remaining discrepancy, due to discretization:         -0.182553 (  -0.01509%)
     Trial step:       0.820991331437
             Q1:  -11678.758750152192
 Quadratic coef:       0.000000002377
 Linear coef   :      -0.000000002728
           Qmin:  -11678.758750152625
Quadratic minimum step length (  0.470952633522) accepted
    Initial Ne1:    7192.00000000
      Final Ne1:    7192.00000000

=================== Penalty functional idempotency correction ==================
 RMS occupancy error at iteration   1:  0.000000 (step -0.5000 Ne1=   7192.0000)
            Final RMS occupancy error   :  0.000000 (Ne1=   7192.0000)
               Final occupancy bounds   : [  0.0000,  1.0000]
================================================================================

    9        -1.167875875015E+04     8.4525E-09     7.6451E-09    -2.4447E-09

Reusing previously generated solute cavity.
MG BCs: +ve charge blocks (gridpoints):     29063 (   19220183).
MG BCs: -ve charge blocks (gridpoints):      8436 (    1046496).
MG BCs:     Elided blocks (gridpoints):    171577 (  176029786).
MG BCs: Computational effort saved:  99.9809%.
MG BCs: Charge after coarse-graining:           -9.0009369.
MG DL_MG: Calling solver with defect correction order = 8
MG DL_MG: Solver finished
MG Hartree energy from (\int phi*rho dr):              1209.415136
MG Hartree energy from (\int eps (grad phi)^2 dr):     1209.226126
MG Discrepancy due to finite box and discretization:     -0.189010 (  -0.01563%)
MG Correction to account for finite box:                  0.006457
MG Remaining discrepancy, due to discretization:         -0.182553 (  -0.01509%)
      ideal mu1:      -0.481240083476
   10        -1.167875875015E+04     4.6248E-09     4.1830E-09    -6.9849E-10
Finished density kernel iterations (  10)

Writing density kernel to file "host_33161.dkn" ... done


>>> Density kernel optimised for the current NGWF basis:
     ~~~~~~~~~~~~~~~~~~~~~~~~~~~~~~~~~~~~~~~~~~~~~~~~~~~~~~~~~~~
     Total energy                =  -1.16787587501525E+04  Eh
     Estimated bandgap           =   8.1692E-02  Eh
     RMS occupancy error         =   6.2259E-16
     [H,K] commutator            =   4.1830E-09
     Occupancy bounds            = [  0.000:  1.000]
     ~~~~~~~~~~~~~~~~~~~~~~~~~~~~~~~~~~~~~~~~~~~~~~~~~~~~~~~~~~~




################################################################################
########################### NGWF CG iteration  004 #############################
################################################################################
****** Reciprocal space K.E. preconditioning with k_zero =  3.5000 a0^-1 *******

>>> Checking for convergence of NGWFs: 
           ........................................................
           |         *** NGWF optimisation converged ***          |
           | RMS NGWF gradient =    0.00000188912660              |
           | Criteria satisfied:                                  |
           | -> RMS NGWF gradient lower than set threshold.       |
           ========================================================

Reusing previously generated solute cavity.
MG BCs: +ve charge blocks (gridpoints):     29063 (   19220183).
MG BCs: -ve charge blocks (gridpoints):      8436 (    1046496).
MG BCs:     Elided blocks (gridpoints):    171577 (  176029786).
MG BCs: Computational effort saved:  99.9809%.
MG BCs: Charge after coarse-graining:           -9.0009369.
MG DL_MG: Calling solver with defect correction order = 8
MG DL_MG: Solver finished
MG Hartree energy from (\int phi*rho dr):              1209.415136
MG Hartree energy from (\int eps (grad phi)^2 dr):     1209.226126
MG Discrepancy due to finite box and discretization:     -0.189010 (  -0.01563%)
MG Correction to account for finite box:                  0.006457
MG Remaining discrepancy, due to discretization:         -0.182553 (  -0.01509%)

================================================================================
           ---------------- ENERGY COMPONENTS (Eh) ----------------
           | Kinetic                    :     8525.87296844263619 |
           | Pseudo. (local,OBC,corr'd) :    -5048.83279295940429 |
           | Pseudopotential (non-local):     1403.55460174790846 |
           | Hartree (molecular)        :     1209.41513621610989 |
           | Exchange-correlation       :    -3356.86867583676303 |
           | Ion-ion (open BC)          :   825176.78401227318682 |
           | Dispersion Correction      :       -3.22740729526690 |
           | Smeared ion non-self corr. :  -825128.95416454144288 |
           | Smeared ion self corr.     :   -14457.16956389741972 |
           | Solvent cavitation energy  :        2.37351489098213 |
           | Solute-solvent dis-rep en. :       -1.70637919299933 |
           | Total                      :   -11678.75875015247584 |
           --------------------------------------------------------
           ------ LOCAL ENERGY COMPONENTS FROM MATRIX TRACES ------
           | Pseudopotential (local)    :    -5048.83279295939883 |
           | Hartree                    :    -1990.67651146581625 |
           --------------------------------------------------------
           Integrated density           :     7191.99999999812371
           Integrated density tr(KS)    :     7192.00000000000000
================================================================================


                        <<<<< CALCULATION SUMMARY >>>>>                         
|ITER|    RMS GRADIENT   |     TOTAL ENERGY    |   step   |     Epredicted              
   0     0.00004236918674 -11678.68607609579340   0.644937 -11678.74894144271457        
   1     0.00000907440579 -11678.75836080091540   0.071709 -11678.75868142916988        
   2     0.00000412126041 -11678.75873540737666   0.013995 -11678.75874831413239        
   3     0.00000188912660 -11678.75875015254132  <-- CG                                 

=================== Finished the calculation in solvent ========================
= Adjusting the following parameters: 
= read_denskern: F
= read_tightbox_ngwfs: F
= maxit_pen: 0 (restored to user-specified value)
= restart read filename prefix: ""
= restart write filename prefix: ""
================================================================================

================================================================================
IS: Calculation in solvent completed (NGWFs converged).      

Individual components of total energy in solvent:     hartree           kcal/mol
- Usual non-electrostatic DFT terms:    -12888.84102206663374    -8087869.675573
- Electrostatic fixed charge energy:      1209.41513621610989      758919.439586
- Apolar cavitation energy:                  2.37351489098213        1489.403049
- Apolar dispersion-repulsion energy:       -1.70637919299933       -1070.769087
 -------------------------------------------------------------------------------
- Total energy in solvent:              -11678.75875015254132    -7328531.602025

Components of total energy in solvent:                hartree           kcal/mol
- Usual non-electrostatic DFT terms:    -12888.84102206663374    -8087869.675573
- Electrostatic energy:                   1209.41513621610989      758919.439586
- Apolar energy terms:                       0.66713569798280         418.633962
 -------------------------------------------------------------------------------
- Total energy in solvent:              -11678.75875015254132    -7328531.602025

Calculation of free energy of solvation:              hartree           kcal/mol
- Total energy in solvent:         (+)  -11678.75875015254132    -7328531.602025
- Total energy in vacuum:          (-)  -11674.76973914203700    -7326028.459878
 -------------------------------------------------------------------------------
- Total free energy of solvation:           -3.98901101050433       -2503.142147

Components of polar term in f.e. of solvation:        hartree           kcal/mol
- Electrostatic:                            -4.74353821665886       -2976.615107
- Change in nonelectrostatic DFT terms:      0.08739150817200          54.838998
 -------------------------------------------------------------------------------
- Polar term in f.e. of solvation:          -4.65614670848686       -2921.776109

Components of free energy of solvation:               hartree           kcal/mol
- Polar term in f.e. of solvation: (+)      -4.65614670848686       -2921.776109
- Apolar (cavitation, dis., rep.): (+)       0.66713569798280         418.633962
 -------------------------------------------------------------------------------
- Total free energy of solvation:           -3.98901101050406       -2503.142147
================================================================================


------------------------------ TIMING INFORMATION ------------------------------
AVERAGE TIME:   27845.443s on     40 node(s)                                    
TOTAL TIME:     27845.444s on     40 node(s)                                    
================= AVERAGE TIMINGS FROM ALL NODES (CUMULATIVE) ==================
|| TAG                                    #calls    cpu time   %total  Gflops ||
|| work_imbalance                       :     1        0.00s   0.000%  ------ ||
|| parallel_prepare_fd_halos_request    :  1947        0.02s   0.000%  ------ ||
|| sparse_set_to_garbage                :   176        0.05s   0.000%  ------ ||
|| parallel_prepare_fd_halos_satisfy    :  1947        0.06s   0.000%  ------ ||
|| ngwfs_initialise_from_radial         :     1        0.17s   0.001%  ------ ||
|| basis_extract_function_from_box      :  5366        0.18s   0.001%  ------ ||
|| parallel_prepare_fd_halos_alloc      :  1947        0.19s   0.001%  ------ ||
|| restart_ngwfs_tightbox_input         :     1        0.98s   0.004%  ------ ||
|| pseudopotentials_nonlocal_mat        :    30        1.41s   0.005%  ------ ||
|| parallel_prepare_fd_halos_comms_imbal:  1947        3.31s   0.012%  ------ ||
|| density_init_guess_real              :     1        4.05s   0.015%  ------ ||
|| openbc_locps_radial                  :     1        4.69s   0.017%  ------ ||
|| restart_kernel_read                  :     1        4.96s   0.018%  ------ ||
|| restart_kernel_write                 :    17       11.69s   0.042%  ------ ||
|| parallel_prepare_fd_halos_clear      :  1947       21.03s   0.076%  ------ ||
|| sparse_init                          :     2       23.45s   0.084%  ------ ||
|| projectors_func_ovlp_box             :    30       23.97s   0.086%  ------ ||
|| parallel_prepare_fd_halos_comms_wait :  1947       25.04s   0.090%  ------ ||
|| function_ops_brappd_ketppd           :    30       27.98s   0.100%  ------ ||
|| projectors_init_fftbox_recip         :   206       31.66s   0.114%  ------ ||
|| palser_mano_kernel_optimise          :     1       40.52s   0.145%  ------ ||
|| parallel_prepare_fd_halos            :  1947       49.67s   0.178%  ------ ||
|| fourier_apply_box_pair               :  7652       53.66s   0.193% 550.384 ||
|| pseudo_make_structure_factor         :     2       58.50s   0.210%  ------ ||
|| ngwf_gradient_coeffs                 :    16       65.76s   0.236%  ------ ||
|| basis_copy_function_to_box           : 87167       74.25s   0.267%  ------ ||
|| restart_ngwfs_tightbox_output        :    14       83.48s   0.300%  ------ ||
|| sparse_embed_hotelling_invert_embed  :    30       97.91s   0.352%  ------ ||
|| finite_difference_derivative         :  1947      120.65s   0.433%  ------ ||
|| integrals_kinetic                    :    30      166.30s   0.597%  ------ ||
|| openbc_locps_on_grid                 :     2      193.69s   0.696%  ------ ||
|| projectors_gradient_batch            :   176      220.25s   0.791%  ------ ||
|| fourier_apply_cell_backward          :  1299      227.45s   0.817%  78.886 ||
|| fourier_apply_cell_forward           :  1297      236.87s   0.851%  75.634 ||
|| basis_dot_function_with_box          : 13.09M     253.70s   0.911%  ------ ||
|| sparse_trace                         :  5718      280.61s   1.008%  ------ ||
|| kernel_purify                        :   495      362.72s   1.303%  ------ ||
|| hamiltonian_energy_components        :     4      441.45s   1.585%  ------ ||
|| xc_energy_potential                  :   324      554.19s   1.990%  ------ ||
|| basis_add_function_to_box            : 27.29M     565.20s   2.030%  ------ ||
|| lnv_gradient_norm                    :   160      597.01s   2.144%  ------ ||
|| kernel_fix                           :   160      760.75s   2.732%  ------ ||
|| ngwf_gradient_build_batch            :   176      782.02s   2.808%  ------ ||
|| cell_grid_deposit_box_real           : 54660      796.59s   2.861%  ------ ||
|| integrals_locpot_mat_els_batch       :  1859      988.93s   3.552%  ------ ||
|| cell_grid_extract_box_real           : 51060      994.24s   3.571%  ------ ||
|| ngwf_gradient_batch                  :   176     1095.93s   3.936%  ------ ||
|| ngwf_gradient_lnv                    :    16     1262.99s   4.536%  ------ ||
|| density_batch_row_sums               :  3553     1336.60s   4.800%  ------ ||
|| density_fftbox_deposit_to_cell       : 52649     1381.21s   4.960%  ------ ||
|| sparse_product                       :  6867     2327.79s   8.360%  ------ ||
|| multigrid_prepare_bound_cond         :   324     2558.71s   9.189%  ------ ||
|| potential_apply_to_ngwf_batch        :  1859     3415.70s  12.267%  ------ ||
|| fourier_apply_box                    : 181.9k    3420.37s  12.283% 995.350 ||
|| density_fftbox_interpolate_multiply  : 52649     3789.72s  13.610%  ------ ||
|| integrals_locpot_dbl_grid            :   169     4422.29s  15.882%  ------ ||
|| density_batch_interp_deposit         :  3553     5869.55s  21.079%  ------ ||
|| dl_mg_solver_calls                   :   324     7070.36s  25.391%  ------ ||
|| density_on_dbl_grid                  :   323     7718.07s  27.718%  ------ ||
|| multigrid_calculate_hartree          :   324     9793.29s  35.170%  ------ ||
|| hamiltonian_lhxc_calculate           :   319    18069.06s  64.891%  ------ ||
|| lnv_denskernel_optimise_cg           :    16    23977.52s  86.109%  ------ ||
|| ngwf_cg_optimise                     :     2    27022.75s  97.045%  ------ ||
|| total_time                           :     1    27845.44s 100.000%  ------ ||
================================================================================
Overhead of generating timer report: 
- 0 ms averaging over threads,
- 6 ms ensuring consistency across MPI ranks,
- 2 ms printing in order.

Job completed: 21-07-2020 23:06 (+0100)

