 +---------------------------------------------------------------+
 |                                                               |
 |        ####### #     # ####### ####### ####### ######         |
 |        #     # ##    # #          #    #       #     #        |
 |        #     # # #   # #          #    #       #     #        |
 |        #     # #  #  # #####      #    #####   ######         |
 |        #     # #   # # #          #    #       #              |
 |        #     # #    ## #          #    #       #              |
 |        ####### #     # #######    #    ####### #              |
 |                                                               |
 |        Linear-Scaling Ab Initio Total Energy Program          |
 |                                                               |
 |          Release for academic collaborators of ODG            |
 |                                             Version 5.3.2.6.  |
 |                                                               |
 +---------------------------------------------------------------+
 |                                                               |
 |  Authors:                                                     |
 |  Jacek Dziedzic, Peter D. Haynes, Nicholas D. M. Hine,        |
 |  Arash. A. Mostofi, Mike C. Payne and Chris-Kriton Skylaris   |
 |                                                               |
 |  Contributors:                                                |
 |  J. Aarons, L. Andrinopoulos, P. W. Avraam, R. A. Bell,       |
 |  A. Bhandari, G. A. Bramley, R. J. Charlton, S. J. Clark,     |
 |  R. J. Clements, G. C. Constantinescu, F. Corsetti,           |
 |  N. Corsini, O. Dieguez, S. M. M. Dubois, K. K. B. Duff,      |
 |  J. M. Escartin, A. Greco, H. Helal, Q. O. Hill, L. P. Lee,   |
 |  J.-H. Li, E. B. Linscott, G. Moynihan, D. D. O`Regan,        |
 |  O. K. Okan, M. J. S. Phipps, C. J. Pickard,                  |
 |  J. C. A. Prentice, M. I. J. Probert, L. E. Ratcliff,         |
 |  M. Robinson, A. Ruiz Serrano, J. S. Spencer, E. W. Tait,     |
 |  G. Teobaldi, D. Turban, V. Vitale, K. A. Wilkinson,          |
 |  C. Weber, J. C. Womack, N. Yeung and T. J. Zuehlsdorff       |
 |                                                               |
 |                                   Copyright (c) 2004-2019     |
 |                                                               |
 |  Please cite:                                                 |
 |  "Introducing ONETEP: Linear-scaling density functional       |
 |   simulations on parallel computers".                         |
 |   C.-K. Skylaris, P. D. Haynes, A. A. Mostofi, M. C. Payne.   |
 |   J. Chem. Phys. 122 084119 (2005).                           |
 |                                                               |
 |          in all publications arising from your use of ONETEP. |
 |                                                               |
 +---------------------------------------------------------------+
 |                                                               |
 |   ONETEP is based on developments described in the following  |
 |   publications:                                               |
 |                                                               |
 |  "Nonorthogonal generalized Wannier function pseudopotential  |
 |   plane-wave method".                                         |
 |   C.-K. Skylaris, A. A. Mostofi, P. D. Haynes, O. Dieguez,    |
 |   M. C. Payne.                                                |
 |   Phys. Rev. B 66 035119 (2002).                              |
 |                                                               |
 |  "Preconditioned iterative minimization for linear-scaling    |
 |   electronic structure calculations".                         |
 |   A. A. Mostofi, P. D. Haynes, C.-K. Skylaris, M. C. Payne.   |
 |   J. Chem. Phys. 119(17), pp.8842-8848 (2003).                |
 |                                                               |
 |  "Total-energy calculations on a real space grid with         |
 |   localized functions and a plane-wave basis".                |
 |   A. A. Mostofi, C.-K. Skylaris, P. D. Haynes, M. C. Payne.   |
 |   Comput. Phys. Commun. 147, pp.788-802 (2002).               |
 |                                                               |
 |  "Accurate kinetic energy evaluation in electronic structure  |
 |   calculations with localized functions on real space grids"  |
 |   C.-K. Skylaris, A. A. Mostofi, P. D. Haynes, C. J. Pickard, |
 |   M. C. Payne.                                                |
 |   Comput. Phys. Commun. 140, pp.315-322 (2001).               |
 |                                                               |
 |  "Accurate ionic forces and geometry optimization in linear-  |
 |   scaling density-functional theory with local orbitals"      |
 |   N. D. M. Hine, M. Robinson, P. D. Haynes, C.-K. Skylaris,   |
 |   M. C. Payne, and A. A. Mostofi.                             |
 |   Phys. Rev. B 83 195102 (2011).                              |
 |                                                               |
 +---------------------------------------------------------------+

Job started: 06-07-2020 14:42 (+0100)
 
Reading parameters from file "host_13401.dat" ...... done

If your calculation crashes here, before "Checking processes and threads..."
is displayed, then your stack size is insufficient.
If so, use "ulimit -s unlimited" at runtime.
You can disable this check with "check_stack_size F".

Checking processes and threads...
   Determining the default number of threads...
      No default threads set at compilation time: defaulting to 1.
      OpenMP library call suggests 4 threads.
      Hybrid MPI-OpenMP compilation detected.
      Number of MPI processes > 1.
      OMP_NUM_THREADS environment variable present and
      its value matches the one obtained from the OpenMP library call.
      Using this value as default.
      Default threads: 4
      Default applies to threads_max and threads_num_fftboxes.
      Settings in the input file override this default.
   ... done

   Running with 40 MPI processes.
   There are 10 MPI processes running on the same node as the root process.
   Each MPI process is using: 
               1 threads for simulation cell FFTs.
               1 threads for parallel FFT box operations.
               4 threads for loops over batched FFT box operations.
               4 threads in other parallel regions.
... done

Basic input checks...... done

Reading geometry and species blocks from file "host_13401.dat" ...
  <species_atomic_set> block not found: NGWF initialisation set to SOLVE
IS: Dielectric excluded regions:
    - NONE.
    
  Number of PPD points along a3 set to 1.  This is 
  the default value, it may have been provided also in the input file.
... done
 Writing xyz coordinates to file "host_13401.xyz" ... done


--------------------------------------------------------------------------------
---------------------------------- INPUT FILE ----------------------------------
--------------------------------------------------------------------------------

cutoff_energy       : 800 eV                                                    
xc_functional PBE                                                               
task SINGLEPOINT                                                                
write_xyz true                                                                  
output_detail VERBOSE                                                           
ngwf_threshold_orig : 0.000002                                                  
kernel_cutoff       : 1000                                                      
k_zero              : 3.5                                                       
elec_cg_max 0                                                                   
occ_mix 1.0                                                                     
dispersion 1                                                                    
maxit_ngwf_cg 40                                                                
minit_lnv 10                                                                    
maxit_lnv 10                                                                    
write_denskern T                                                                
write_tightbox_ngwfs T                                                          
charge 9                                                                        
is_implicit_solvent T                                                           
is_auto_solvation T                                                             
is_include_apolar T                                                             
is_smeared_ion_rep T                                                            
is_solvent_surf_tension 4.7624E-5 Ha/bohr**2                                    
is_apolar_scaling_factor 0.281075                                               
is_solvation_beta 1.3                                                           
is_density_threshold 0.00035                                                    
is_bulk_permittivity 78.54                                                      
is_dielectric_model fix_initial                                                 
is_smeared_ion_width 0.8                                                        
mg_defco_fd_order 8                                                             
is_bc_coarseness 10                                                             
is_bc_surface_coarseness 1                                                      
fine_grid_scale 2.0                                                             
%block species                                                                  
N   N   7 4 8.0                                                                 
H   H   1 1 8.0                                                                 
C   C   6 4 8.0                                                                 
S   S  16 9 8.0                                                                 
O   O   8 4 8.0                                                                 
%endblock species                                                               
%block species_pot                                                              
N   N_00.recpot                                                                 
H   H_04.recpot                                                                 
C   C_01.recpot                                                                 
S   S_00.recpot                                                                 
O   O_02.recpot                                                                 
%endblock species_pot                                                           
%block lattice_cart                                                             
137.793   0.000   0.000                                                         
0.000 143.498   0.000                                                           
0.000   0.000   162.326                                                         
%endblock lattice_cart                                                          
%block positions_abs                                                            
     Hash =  -000009134627831995376132
%endblock positions_abs                                                         

--------------------------------------------------------------------------------
-------------------------------- END INPUT FILE --------------------------------
--------------------------------------------------------------------------------


 
 ESDF WARNING(1): "kernelcutoff" (esdf_physical) has no units. Assume "bohr".
 ESDF WARNING(2): "kzero" (esdf_physical) has no units. Assume "1/bohr".
 ESDF WARNING(3
 ): "issmearedionwidth" (esdf_physical) has no units. Assume "bohr".
<<<<<<<<<<<<<<<<<<<<<<<<<<<<<<<<< Full system >>>>>>>>>>>>>>>>>>>>>>>>>>>>>>>>>>
<<<<<<<<<<<<<<<<<<<<<<<<< Pseudopotential information >>>>>>>>>>>>>>>>>>>>>>>>>>
File: N_00.recpot [ 2001 points up to Gmax=  52.9 (1/bohr)]
  Atomic number:  7;  ionic charge:  5.000000
    Shell 1: l = 0; rc = 1.48 bohr
File: H_04.recpot [ 2001 points up to Gmax=  52.9 (1/bohr)]
  Atomic number:  1;  ionic charge:  1.000000
    Local potential
File: C_01.recpot [ 2001 points up to Gmax=  52.9 (1/bohr)]
  Atomic number:  6;  ionic charge:  4.000000
    Shell 1: l = 0; rc = 1.48 bohr
File: S_00.recpot [ 2001 points up to Gmax=  52.9 (1/bohr)]
  Atomic number: 16;  ionic charge:  6.000000
    Shell 1: l = 0; rc = 1.90 bohr
    Shell 2: l = 2; rc = 1.84 bohr
File: O_02.recpot [ 2001 points up to Gmax=  52.9 (1/bohr)]
  Atomic number:  8;  ionic charge:  6.000000
    Shell 1: l = 0; rc = 1.31 bohr
<<<<<<<<<<<<<<<<<<<<<<<<<<<<<<<<<<<<<<<<>>>>>>>>>>>>>>>>>>>>>>>>>>>>>>>>>>>>>>>>

-------------------------- Atom counting information ---------------------------
Symbol    Natoms    Nngwfs    Nprojs
  N        236       944       236
  H       1311      1311         0
  C        810      3240       810
  S          6        54        36
  O        239       956       239
.......   ......    ......    ......
Totals:   2602      6505      1321
--------------------------------------------------------------------------------

=============================== PSINC grid sizes ===============================
                      Simulation cell:  273 x 286 x 320
                              FFT-box:   99 x  99 x  99
                                  PPD:    7 x  11 x   1
Grid space d1=  0.504736263736a0 (KE cutoff=  29.81776Eh = 811.38248eV)
Grid space d2=  0.501741258741a0 (KE cutoff=  30.17480Eh = 821.09803eV)
Grid space d3=  0.507268750000a0 (KE cutoff=  29.52078Eh = 803.30122eV)
================================================================================

********************* Fourier parallelisation information **********************
       Coarse grid (whole simulation cell) dimensions:    273   286   320
          Real-space ('12') slabs/node (min max mean):      8     8     8
         Recip-space ('23') slabs/node (min max mean):      3     4     3
********************************************************************************

********************* Fourier parallelisation information **********************
       Double grid (whole simulation cell) dimensions:    546   572   640
          Real-space ('12') slabs/node (min max mean):     16    16    16
         Recip-space ('23') slabs/node (min max mean):      6     7     6
********************************************************************************
ONETEP fine grid is 546 x 572 x 640 gridpoints, 137.7930 x 143.4980 x 162.3260 bohr.
FD multigrid is     545 x 569 x 633 gridpoints, 137.5406 x 142.7454 x 160.5506 bohr.


Calculating local pseudopotential in open BC on a radial grid ...
Discrepancy between calculated realspace psloc and -Z/x on [5a0,256.765a0]:
max |rel. diff| # avg |rel. diff| #  avg rel. diff #  f # pseudopotential file
 0.000264355666    0.000005356805   0.000000075547   55  'N_00.recpot'
 0.000427657517    0.000018087302  -0.000000066616   55  'H_04.recpot'
 0.000358839426    0.000016594043   0.000000139912   55  'C_01.recpot'
 0.000443229003    0.000019135969   0.000000483695   55  'S_00.recpot'
 0.000720897146    0.000029350350   0.000000143497   55  'O_02.recpot'
... done

Atom SCF Calculation for N  : Z (AE atom) =   7 : Z (PS atom) =   5
Config String:
Orbitals (num,occ):  2     2.00 3.00
Orbitals   (num,l):  2        0    1
Real-space Grid (nr,dr,rmax): 1203    0.0066555740    8.0000000000
Spherical Bessel Basis (nsws,lmax,cutoff):   47    1  176.3951722778
Confining potential (l,width,scale):  0    3.0000000000  100.0000000000
Confining potential (l,width,scale):  1    3.0000000000  100.0000000000
  1         -4.7312375307   -3.4155304497    7.0523828109   -1.9351020946
  2         -9.7309464766   -2.0532547791    8.2966052865   -2.2494486027
  3         -9.6627394379   -2.1124926340    8.2327997121   -2.2369778124
  4         -9.6814993499   -2.1215521045    8.2229805960   -2.2365178421
  5         -9.6843326483   -2.1250939529    8.2191374534   -2.2362718126
  6         -9.6859628709   -2.1267894855    8.2172963573   -2.2362066344
  7         -9.6867347035   -2.1276425665    8.2163697352   -2.2361903369
  8         -9.6870802100   -2.1280764625    8.2158983890   -2.2361891460
  9         -9.6872290423   -2.1282977424    8.2156580222   -2.2361920435
 10         -9.6872901988   -2.1284107021    8.2155353368   -2.2361953393
 11         -9.6873135296   -2.1284684031    8.2154726809   -2.2361979819
 12         -9.6873212476   -2.1284978948    8.2154406648   -2.2361998431
 13         -9.6873229586   -2.1285129774    8.2154242957   -2.2362010676
 14         -9.6873226456   -2.1285206957    8.2154159216   -2.2362018403
 15         -9.6873218534   -2.1285246479    8.2154116349   -2.2362023142
 16         -9.6873212599   -2.1285262679    8.2154098784   -2.2362025420
 17         -9.6873207834   -2.1285272564    8.2154088068   -2.2362026955
 18         -9.6873204210   -2.1285278597    8.2154081529   -2.2362027982
 19         -9.6873201550   -2.1285282280    8.2154077538   -2.2362028667
 20         -9.6873199645   -2.1285284529    8.2154075102   -2.2362029121
 21         -9.6873198305   -2.1285285903    8.2154073614   -2.2362029421
 22         -9.6873197377   -2.1285286742    8.2154072705   -2.2362029618
Atom SCF converged after  22 iterations to a total energy of     -9.68731974

Atom SCF Calculation for H  : Z (AE atom) =   1 : Z (PS atom) =   1
Config String:
Orbitals (num,occ):  1     1.00
Orbitals   (num,l):  1        0
Real-space Grid (nr,dr,rmax): 1203    0.0066555740    8.0000000000
Spherical Bessel Basis (nsws,lmax,cutoff):   47    0  176.3951722778
Confining potential (l,width,scale):  0    3.0000000000  100.0000000000
  1         -0.3194257691   -0.2393854593    0.2820953124   -0.2424203209
  2         -0.3951823392   -0.2377116493    0.2886404059   -0.2475147891
  3         -0.4317044583   -0.2352244387    0.2921333887   -0.2514046172
  4         -0.4470703708   -0.2341892222    0.2934391879   -0.2531009782
  5         -0.4532132900   -0.2338556667    0.2938388426   -0.2537313520
  6         -0.4556579251   -0.2337612552    0.2939448584   -0.2539550462
  7         -0.4566418315   -0.2337377355    0.2939680120   -0.2540342273
  8         -0.4570437922   -0.2337331116    0.2939708287   -0.2540627372
  9         -0.4572102946   -0.2337328328    0.2939698291   -0.2540732650
 10         -0.4572800424   -0.2337332404    0.2939687193   -0.2540772588
 11         -0.4573095100   -0.2337335791    0.2939680317   -0.2540788122
 12         -0.4573220379   -0.2337337762    0.2939676699   -0.2540794294
 13         -0.4573273880   -0.2337338775    0.2939674931   -0.2540796787
 14         -0.4573296803   -0.2337339266    0.2939674099   -0.2540797808
 15         -0.4573306647   -0.2337339495    0.2939673718   -0.2540798230
 16         -0.4573310882   -0.2337339601    0.2939673545   -0.2540798406
 17         -0.4573312706   -0.2337339649    0.2939673467   -0.2540798479
 18         -0.4573313493   -0.2337339670    0.2939673433   -0.2540798510
Atom SCF converged after  18 iterations to a total energy of     -0.45733135

Atom SCF Calculation for C  : Z (AE atom) =   6 : Z (PS atom) =   4
Config String:
Orbitals (num,occ):  2     2.00 2.00
Orbitals   (num,l):  2        0    1
Real-space Grid (nr,dr,rmax): 1203    0.0066555740    8.0000000000
Spherical Bessel Basis (nsws,lmax,cutoff):   47    1  176.3951722778
Confining potential (l,width,scale):  0    3.0000000000  100.0000000000
Confining potential (l,width,scale):  1    3.0000000000  100.0000000000
  1         -5.2976922011   -1.3069684169    4.5135249990   -1.4493313817
  2         -5.3721716256   -1.3429755895    4.4750154450   -1.4361613026
  3         -5.3809959565   -1.3617365618    4.4541655428   -1.4305930207
  4         -5.3918938866   -1.3667928461    4.4484735100   -1.4294652294
  5         -5.3956096428   -1.3688539142    4.4461376126   -1.4290734646
  6         -5.3968271862   -1.3696852393    4.4451910874   -1.4289366866
  7         -5.3972028401   -1.3700178062    4.4448112275   -1.4288900460
  8         -5.3973067903   -1.3701500158    4.4446598370   -1.4288749220
  9         -5.3973286940   -1.3702023868    4.4445997329   -1.4288704293
 10         -5.3973289850   -1.3702230869    4.4445759233   -1.4288693188
 11         -5.3973254264   -1.3702312560    4.4445665049   -1.4288691775
 12         -5.3973224003   -1.3702344755    4.4445627836   -1.4288692549
 13         -5.3973208708   -1.3702354890    4.4445616088   -1.4288693270
 14         -5.3973198783   -1.3702360102    4.4445610034   -1.4288693814
 15         -5.3973192535   -1.3702362780    4.4445606917   -1.4288694190
 16         -5.3973188684   -1.3702364155    4.4445605313   -1.4288694437
 17         -5.3973186349   -1.3702364860    4.4445604489   -1.4288694595
 18         -5.3973184951   -1.3702365221    4.4445604065   -1.4288694693
 19         -5.3973184122   -1.3702365405    4.4445603848   -1.4288694753
Atom SCF converged after  19 iterations to a total energy of     -5.39731841

Atom SCF Calculation for S  : Z (AE atom) =  16 : Z (PS atom) =   6
Config String:
Orbitals (num,occ):  3     2.00 4.00 0.00
Orbitals   (num,l):  3        0    1    2
Real-space Grid (nr,dr,rmax): 1203    0.0066555740    8.0000000000
Spherical Bessel Basis (nsws,lmax,cutoff):   47    2  176.3951722778
Confining potential (l,width,scale):  0    3.0000000000  100.0000000000
Confining potential (l,width,scale):  1    3.0000000000  100.0000000000
Confining potential (l,width,scale):  2    3.0000000000  100.0000000000
  1        -12.4735062396   -1.0328741412   10.1554312477   -2.4512393157
  2         -9.9458301913   -2.4607392455    8.3041325857   -2.0306994528
  3        -10.1450417646   -2.2931184565    8.4831893826   -2.0812538287
  4        -10.1528335592   -2.2733105793    8.5050388867   -2.0896035179
  5        -10.1571940363   -2.2633716629    8.5160794258   -2.0939370707
  6        -10.1594380571   -2.2584938667    8.5215163935   -2.0961289008
  7        -10.1605856507   -2.2561081821    8.5241804044   -2.0972291378
  8        -10.1611799191   -2.2549395235    8.5254868240   -2.0977806248
  9        -10.1614918752   -2.2543658586    8.5261285885   -2.0980571586
 10        -10.1616572884   -2.2540839121    8.5264441898   -2.0981959233
 11        -10.1617455602   -2.2539453058    8.5265994231   -2.0982656006
 12        -10.1617928447   -2.2538772062    8.5266757320   -2.0983006047
 13        -10.1618182292   -2.2538437891    8.5267131983   -2.0983181961
 14        -10.1618318741   -2.2538274201    8.5267315620   -2.0983270391
 15        -10.1618392144   -2.2538194197    8.5267405433   -2.0983314852
 16        -10.1618431651   -2.2538155200    8.5267449245   -2.0983337210
 17        -10.1618452923   -2.2538136252    8.5267470551   -2.0983348455
 18        -10.1618464380   -2.2538127080    8.5267480875   -2.0983354110
 19        -10.1618470552   -2.2538122659    8.5267485856   -2.0983356955
 20        -10.1618473878   -2.2538120540    8.5267488248   -2.0983358386
 21        -10.1618475670   -2.2538119530    8.5267489389   -2.0983359106
 22        -10.1618476637   -2.2538119053    8.5267489929   -2.0983359468
Atom SCF converged after  22 iterations to a total energy of    -10.16184766

Atom SCF Calculation for O  : Z (AE atom) =   8 : Z (PS atom) =   6
Config String:
Orbitals (num,occ):  2     2.00 4.00
Orbitals   (num,l):  2        0    1
Real-space Grid (nr,dr,rmax): 1203    0.0066555740    8.0000000000
Spherical Bessel Basis (nsws,lmax,cutoff):   47    1  176.3951722778
Confining potential (l,width,scale):  0    3.0000000000  100.0000000000
Confining potential (l,width,scale):  1    3.0000000000  100.0000000000
  1         -1.8735052164   -7.5539365035   10.1554312477   -2.4512393157
  2        -16.0318313751   -3.1285771268   13.6395848164   -3.2358799643
  3        -15.9524020423   -3.0762819706   13.6967272503   -3.2536856837
  4        -15.8521515939   -3.0781493909   13.6951909330   -3.2561700440
  5        -15.8357139793   -3.0748501933   13.6988803334   -3.2580493133
  6        -15.8246052853   -3.0740779781   13.6997881576   -3.2588327446
  7        -15.8189019501   -3.0737449687   13.7001869911   -3.2592378801
  8        -15.8159785510   -3.0736026016   13.7003615168   -3.2594475790
  9        -15.8144776168   -3.0735437994   13.7004360379   -3.2595560735
 10        -15.8137058024   -3.0735207882   13.7004667348   -3.2596122456
 11        -15.8133083127   -3.0735125946   13.7004786868   -3.2596413656
 12        -15.8131032938   -3.0735102195   13.7004828997   -3.2596564858
 13        -15.8129973902   -3.0735099286   13.7004840891   -3.2596643505
 14        -15.8129426040   -3.0735102506   13.7004842061   -3.2596684489
 15        -15.8129142203   -3.0735106556   13.7004840157   -3.2596705887
 16        -15.8128994940   -3.0735109855   13.7004837906   -3.2596717080
 17        -15.8128918425   -3.0735112169   13.7004836103   -3.2596722946
 18        -15.8128878614   -3.0735113674   13.7004834848   -3.2596726026
 19        -15.8128857871   -3.0735114608   13.7004834035   -3.2596727646
 20        -15.8128847048   -3.0735115170   13.7004833533   -3.2596728500
 21        -15.8128841394   -3.0735115501   13.7004833231   -3.2596728951
 22        -15.8128838436   -3.0735115693   13.7004833054   -3.2596729190
 23        -15.8128836887   -3.0735115802   13.7004832951   -3.2596729316
 24        -15.8128836074   -3.0735115864   13.7004832893   -3.2596729383
Atom SCF converged after  24 iterations to a total energy of    -15.81288361

========================== Calculation in vacuum ==============================
= Adjusting the following parameters: 
= is_implicit_solvent: F
= is_include_apolar: F
= write_denskern: T
= write_tightbox_ngwfs: T
= restart read filename prefix: ""
= restart write filename prefix: "vacuum_"
===============================================================================

Determining parallel strategy ...
... using space-filling curve
... NGWF load balancing: max    163;  min    162;  average    163
... Projector load balancing: max     36;  min     32;  average     33
... done
Calculating direct Ion-Ion energy ...
Ion-Ion Energy        :    822525.79579589783680
======================= Empirical dispersion information =======================
Model : Elstner
Dispersion Correction Energy: -0.32464716E+01 Hartree
================================================================================
Basis initialisation ...... NGWF spheres initialised
... Projector spheres initialised
... NGWF tight boxes initialised
... Tight-boxes gathered
... NGWF basis size (local,global):    1108017  44354291
... Nonlocal pseudopotential projector initialisation
... done

========================== Sparse matrix information ===========================
                        Overlap matrix filling:   6.75%
                        Density kernel filling: 100.00%
              NGWF-Proj overlap matrix filling:   1.77%
                    Hamiltonian matrix filling:   7.59%
                  NGWF diagonal matrix filling:   0.05%
                             KS matrix filling: 100.00% 
                           KSKS matrix filling: 100.00% 
================================================================================

Sparse matrix initialisation ... done

Generating smeared ion density ... done
Smeared ion self correction:     -14457.169564
Smeared ion non-self correction: -822477.936814
NGWF initialisation ...... done
============ Calculation of NGWF S^-1 using Hotelling algorithm ================ 
         Iteration  |  Frobenius norm and Maximum abs value    (of I-S*S_n^-1)   
               1       0.78441216E+02     0.98223522E+00
               2       0.76562859E+02     0.96492084E+00
               3       0.73531472E+02     0.93157489E+00
               4       0.69239344E+02     0.86978647E+00
               5       0.63908425E+02     0.76463927E+00
               6       0.57930194E+02     0.70164394E+00
               7       0.51936837E+02     0.66761547E+00
               8       0.46396139E+02     0.64113320E+00
               9       0.40292381E+02     0.59796444E+00
              10       0.31959303E+02     0.52326529E+00
              11       0.21349354E+02     0.40995042E+00
              12       0.10795705E+02     0.26885501E+00
              13       0.34926558E+01     0.12016883E+00
              14       0.53512924E+00     0.26798032E-01
              15       0.24364955E-01     0.18786142E-02
              16       0.11819551E-03     0.10600871E-04
              17       0.45102605E-08     0.47104398E-09
              18       0.86528958E-13     0.39968029E-14
================================================================================
Calculating local pseudopotential in open BC on the fine real space grid ...
... done

MG BCs: +ve charge blocks (gridpoints):     20225 (   15919948).
MG BCs: -ve charge blocks (gridpoints):      8004 (    1077867).
MG BCs:     Elided blocks (gridpoints):    180415 (  179298650).
MG BCs: Computational effort saved:  99.9856%.
MG BCs: Charge after coarse-graining:           -9.0002223.
MG DL_MG: Calling solver with defect correction order = 8
MG DL_MG: Solver finished
MG Hartree energy from (\int phi*rho dr):              1462.337449
MG Hartree energy from (\int eps (grad phi)^2 dr):     1461.722794
MG Discrepancy due to finite box and discretization:     -0.614655 (  -0.04203%)
MG Correction to account for finite box:                  0.462206
MG Remaining discrepancy, due to discretization:         -0.152449 (  -0.01043%)
Up spin density kernel initialisation ... 
======= Optimisation of K by Palser-Manolopoulos canonical purification ======== 
         Iteration  |  Band structure energy |    c_n   
               1       -2586.51358159840765    0.5255631
               2       -2762.26735839593130    0.5161776
               3       -2941.01340974656887    0.5154241
               4       -3088.39136963168585    0.5300548
               5       -3177.28592621579992    0.5670476
               6       -3213.73139473028459    0.6104412
               7       -3226.15273725698080    0.6179409
               8       -3231.66909294805055    0.6132817
               9       -3234.34171641309786    0.6268639
              10       -3235.40995362413332    0.6539021
              11       -3235.80340681546295    0.6740146
              12       -3235.96510074492562    0.6610449
              13       -3236.04935390785704    0.6129207
              14       -3236.09938102980232    0.5416109
              15       -3236.12525610419652    0.4829660
              16       -3236.13202220041285    0.4748744
              17       -3236.13357830955010    0.4770527
              18       -3236.13412144534959    0.4886880
              19       -3236.13423441665236    0.4988626
              20       -3236.13428779014203    0.4999924
              21       -3236.13435438020679    0.5000000
              22       -3236.13443343839663    0.5000000
              23       -3236.13450463376739    0.5000000
              24       -3236.13454089668994    0.5000000
              25       -3236.13454710282349    0.5000000
              26       -3236.13454724810981    0.5000000
Termination criterion satisfied: band energy change below threshold.
Final occupancy bounds: [    0.00000000000201:    0.99999999999998]
Closest occupancy to 0.5:     0.99999999999850
================================================================================
... done

Writing density kernel to file "host_13401.vacuum_dkn" ... done

>>> Optimising kernel for current NGWFs:
   Initial electron number for spin 1:    7192.00000000
     Final electron number for spin 1:    7192.00000000

=================== Penalty functional idempotency correction ==================
 RMS occupancy error at iteration   1:  0.000000 (step -0.5000 Ne1=   7192.0000)
            Final RMS occupancy error   :  0.000000 (Ne1=   7192.0000)
               Final occupancy bounds   : [ -0.0000,  1.0000]
================================================================================

................................................................................
<<<<<<<<<<<<<< LNV (Original version) density kernel optimisation >>>>>>>>>>>>>>
~~~~~~~~~~~~~~~~~~~~~~~~~~~~~~~~~~~~~~~~~~~~~~~~~~~~~~~~~~~~~~~~~~~~~~~~~~~~~~~~
   iter  |      energy (Eh)       | rms gradient |  commutator  |   dE (Eh)
MG BCs: +ve charge blocks (gridpoints):     30460 (   17031672).
MG BCs: -ve charge blocks (gridpoints):      8321 (    1111132).
MG BCs:     Elided blocks (gridpoints):    170166 (  178153661).
MG BCs: Computational effort saved:  99.9802%.
MG BCs: Charge after coarse-graining:           -9.0009349.
MG DL_MG: Calling solver with defect correction order = 8
MG DL_MG: Solver finished
MG Hartree energy from (\int phi*rho dr):              1417.715338
MG Hartree energy from (\int eps (grad phi)^2 dr):     1417.051158
MG Discrepancy due to finite box and discretization:     -0.664180 (  -0.04685%)
MG Correction to account for finite box:                  0.469477
MG Remaining discrepancy, due to discretization:         -0.194703 (  -0.01373%)
      ideal mu1:      -0.711229399008
             Q0:  -11507.036735114059
             G0:    -143.898331330170
   RMS gradient:       0.001844083483
MG BCs: +ve charge blocks (gridpoints):     30477 (   17114680).
MG BCs: -ve charge blocks (gridpoints):      8229 (    1090487).
MG BCs:     Elided blocks (gridpoints):    170147 (  178091298).
MG BCs: Computational effort saved:  99.9803%.
MG BCs: Charge after coarse-graining:           -9.0009515.
MG DL_MG: Calling solver with defect correction order = 8
MG DL_MG: Solver finished
MG Hartree energy from (\int phi*rho dr):              1442.770366
MG Hartree energy from (\int eps (grad phi)^2 dr):     1442.123421
MG Discrepancy due to finite box and discretization:     -0.646945 (  -0.04484%)
MG Correction to account for finite box:                  0.468048
MG Remaining discrepancy, due to discretization:         -0.178897 (  -0.01240%)
     Trial step:       0.500000000000
             Q1:  -11518.481561299413
 Quadratic coef:      60.504339479730
 Linear coef   :     -71.949165665085
           Qmin:  -11528.426450646926
Quadratic minimum step length (  0.297289278272) accepted
    Initial Ne1:    7192.00000000
      Final Ne1:    7192.00000000

=================== Penalty functional idempotency correction ==================
 RMS occupancy error at iteration   1:  0.003392 (step -0.4885 Ne1=   7192.0000)
 RMS occupancy error at iteration   2:  0.000027 (step -0.5001 Ne1=   7192.0000)
            Final RMS occupancy error   :  0.000000 (Ne1=   7192.0000)
               Final occupancy bounds   : [  0.0000,  1.0000]
================================================================================

    1        -1.150703673511E+04     1.8441E-03     1.6679E-03
MG BCs: +ve charge blocks (gridpoints):     30469 (   17082832).
MG BCs: -ve charge blocks (gridpoints):      8272 (    1099219).
MG BCs:     Elided blocks (gridpoints):    170155 (  178114414).
MG BCs: Computational effort saved:  99.9803%.
MG BCs: Charge after coarse-graining:           -9.0009444.
MG DL_MG: Calling solver with defect correction order = 8
MG DL_MG: Solver finished
MG Hartree energy from (\int phi*rho dr):              1424.727164
MG Hartree energy from (\int eps (grad phi)^2 dr):     1424.074179
MG Discrepancy due to finite box and discretization:     -0.652985 (  -0.04583%)
MG Correction to account for finite box:                  0.468510
MG Remaining discrepancy, due to discretization:         -0.184475 (  -0.01295%)
      ideal mu1:      -0.753127174720
             Q0:  -11528.822027278016
             G0:     -12.028377677855
   RMS gradient:       0.000529600588
MG BCs: +ve charge blocks (gridpoints):     30473 (   17099412).
MG BCs: -ve charge blocks (gridpoints):      8243 (    1094077).
MG BCs:     Elided blocks (gridpoints):    170151 (  178102976).
MG BCs: Computational effort saved:  99.9803%.
MG BCs: Charge after coarse-graining:           -9.0009476.
MG DL_MG: Calling solver with defect correction order = 8
MG DL_MG: Solver finished
MG Hartree energy from (\int phi*rho dr):              1429.918165
MG Hartree energy from (\int eps (grad phi)^2 dr):     1429.269046
MG Discrepancy due to finite box and discretization:     -0.649119 (  -0.04540%)
MG Correction to account for finite box:                  0.467798
MG Remaining discrepancy, due to discretization:         -0.181321 (  -0.01268%)
     Trial step:       0.385544600709
             Q1:  -11531.645000189543
 Quadratic coef:       1.814503157464
 Linear coef   :      -4.637476068990
           Qmin:  -11531.785122740539
Quadratic minimum step length (  0.492684141100) accepted
    Initial Ne1:    7191.99988853
      Final Ne1:    7192.00000000

=================== Penalty functional idempotency correction ==================
 RMS occupancy error at iteration   1:  0.001802 (step -0.4930 Ne1=   7192.0000)
 RMS occupancy error at iteration   2:  0.000012 (step -0.5002 Ne1=   7192.0000)
            Final RMS occupancy error   :  0.000000 (Ne1=   7192.0000)
               Final occupancy bounds   : [  0.0000,  1.0000]
================================================================================

    2        -1.152882202728E+04     5.2960E-04     4.7901E-04    -2.1785E+01
MG BCs: +ve charge blocks (gridpoints):     30474 (   17103974).
MG BCs: -ve charge blocks (gridpoints):      8232 (    1092651).
MG BCs:     Elided blocks (gridpoints):    170150 (  178099840).
MG BCs: Computational effort saved:  99.9803%.
MG BCs: Charge after coarse-graining:           -9.0009486.
MG DL_MG: Calling solver with defect correction order = 8
MG DL_MG: Solver finished
MG Hartree energy from (\int phi*rho dr):              1431.409280
MG Hartree energy from (\int eps (grad phi)^2 dr):     1430.761158
MG Discrepancy due to finite box and discretization:     -0.648122 (  -0.04528%)
MG Correction to account for finite box:                  0.467615
MG Remaining discrepancy, due to discretization:         -0.180507 (  -0.01261%)
      ideal mu1:      -0.776247343651
             Q0:  -11531.821632224135
             G0:      -1.902209986974
   RMS gradient:       0.000210680395
MG BCs: +ve charge blocks (gridpoints):     30473 (   17103090).
MG BCs: -ve charge blocks (gridpoints):      8242 (    1093628).
MG BCs:     Elided blocks (gridpoints):    170151 (  178099747).
MG BCs: Computational effort saved:  99.9803%.
MG BCs: Charge after coarse-graining:           -9.0009483.
MG DL_MG: Calling solver with defect correction order = 8
MG DL_MG: Solver finished
MG Hartree energy from (\int phi*rho dr):              1429.202160
MG Hartree energy from (\int eps (grad phi)^2 dr):     1428.554412
MG Discrepancy due to finite box and discretization:     -0.647748 (  -0.04532%)
MG Correction to account for finite box:                  0.467428
MG Remaining discrepancy, due to discretization:         -0.180320 (  -0.01262%)
     Trial step:       0.435834498929
             Q1:  -11532.307988165645
 Quadratic coef:       0.342692795020
 Linear coef   :      -0.829048736530
           Qmin:  -11532.323044726476
Quadratic minimum step length (  0.527189433106) accepted
    Initial Ne1:    7191.99992198
      Final Ne1:    7192.00000000

=================== Penalty functional idempotency correction ==================
 RMS occupancy error at iteration   1:  0.000626 (step -0.4973 Ne1=   7192.0000)
 RMS occupancy error at iteration   2:  0.000002 (step -0.5000 Ne1=   7192.0000)
            Final RMS occupancy error   :  0.000000 (Ne1=   7192.0000)
               Final occupancy bounds   : [  0.0000,  1.0000]
================================================================================

    3        -1.153182163222E+04     2.1068E-04     1.9056E-04    -2.9996E+00
MG BCs: +ve charge blocks (gridpoints):     30474 (   17102932).
MG BCs: -ve charge blocks (gridpoints):      8242 (    1093782).
MG BCs:     Elided blocks (gridpoints):    170150 (  178099751).
MG BCs: Computational effort saved:  99.9803%.
MG BCs: Charge after coarse-graining:           -9.0009483.
MG DL_MG: Calling solver with defect correction order = 8
MG DL_MG: Solver finished
MG Hartree energy from (\int phi*rho dr):              1428.748633
MG Hartree energy from (\int eps (grad phi)^2 dr):     1428.100953
MG Discrepancy due to finite box and discretization:     -0.647680 (  -0.04533%)
MG Correction to account for finite box:                  0.467389
MG Remaining discrepancy, due to discretization:         -0.180291 (  -0.01262%)
      ideal mu1:      -0.777096477486
             Q0:  -11532.327720189816
             G0:      -0.474246255887
   RMS gradient:       0.000105321365
MG BCs: +ve charge blocks (gridpoints):     30475 (   17103746).
MG BCs: -ve charge blocks (gridpoints):      8245 (    1093708).
MG BCs:     Elided blocks (gridpoints):    170149 (  178099011).
MG BCs: Computational effort saved:  99.9803%.
MG BCs: Charge after coarse-graining:           -9.0009483.
MG DL_MG: Calling solver with defect correction order = 8
MG DL_MG: Solver finished
MG Hartree energy from (\int phi*rho dr):              1430.019910
MG Hartree energy from (\int eps (grad phi)^2 dr):     1429.372219
MG Discrepancy due to finite box and discretization:     -0.647691 (  -0.04529%)
MG Correction to account for finite box:                  0.467299
MG Remaining discrepancy, due to discretization:         -0.180392 (  -0.01261%)
     Trial step:       0.479340528662
             Q1:  -11532.442415429745
 Quadratic coef:       0.112630211084
 Linear coef   :      -0.227325451013
           Qmin:  -11532.442424895109
Quadratic minimum step length (  0.483734784913) accepted
    Initial Ne1:    7191.99998202
      Final Ne1:    7192.00000000

=================== Penalty functional idempotency correction ==================
 RMS occupancy error at iteration   1:  0.000235 (step -0.4984 Ne1=   7192.0000)
 RMS occupancy error at iteration   2:  0.000001 (step -0.5000 Ne1=   7192.0000)
            Final RMS occupancy error   :  0.000000 (Ne1=   7192.0000)
               Final occupancy bounds   : [  0.0000,  1.0000]
================================================================================

    4        -1.153232772019E+04     1.0532E-04     9.5261E-05    -5.0609E-01
MG BCs: +ve charge blocks (gridpoints):     30475 (   17103745).
MG BCs: -ve charge blocks (gridpoints):      8245 (    1093707).
MG BCs:     Elided blocks (gridpoints):    170149 (  178099013).
MG BCs: Computational effort saved:  99.9803%.
MG BCs: Charge after coarse-graining:           -9.0009483.
MG DL_MG: Calling solver with defect correction order = 8
MG DL_MG: Solver finished
MG Hartree energy from (\int phi*rho dr):              1430.031877
MG Hartree energy from (\int eps (grad phi)^2 dr):     1429.384186
MG Discrepancy due to finite box and discretization:     -0.647691 (  -0.04529%)
MG Correction to account for finite box:                  0.467298
MG Remaining discrepancy, due to discretization:         -0.180393 (  -0.01261%)
      ideal mu1:      -0.777271785371
             Q0:  -11532.442978831707
             G0:      -0.149033122347
   RMS gradient:       0.000059207787
MG BCs: +ve charge blocks (gridpoints):     30473 (   17103891).
MG BCs: -ve charge blocks (gridpoints):      8244 (    1093585).
MG BCs:     Elided blocks (gridpoints):    170153 (  178098989).
MG BCs: Computational effort saved:  99.9803%.
MG BCs: Charge after coarse-graining:           -9.0009482.
MG DL_MG: Calling solver with defect correction order = 8
MG DL_MG: Solver finished
MG Hartree energy from (\int phi*rho dr):              1430.415942
MG Hartree energy from (\int eps (grad phi)^2 dr):     1429.768093
MG Discrepancy due to finite box and discretization:     -0.647849 (  -0.04529%)
MG Correction to account for finite box:                  0.467302
MG Remaining discrepancy, due to discretization:         -0.180546 (  -0.01262%)
     Trial step:       0.481532644306
             Q1:  -11532.486843896215
 Quadratic coef:       0.027899248984
 Linear coef   :      -0.071764313493
           Qmin:  -11532.489128072983
Quadratic minimum step length (  0.619315230727) accepted
    Initial Ne1:    7191.99999273
      Final Ne1:    7192.00000000

=================== Penalty functional idempotency correction ==================
 RMS occupancy error at iteration   1:  0.000197 (step -0.4939 Ne1=   7192.0000)
 RMS occupancy error at iteration   2:  0.000002 (step -0.5000 Ne1=   7192.0000)
            Final RMS occupancy error   :  0.000000 (Ne1=   7192.0000)
               Final occupancy bounds   : [  0.0000,  1.0000]
================================================================================

    5        -1.153244297883E+04     5.9208E-05     5.3552E-05    -1.1526E-01
MG BCs: +ve charge blocks (gridpoints):     30470 (   17103945).
MG BCs: -ve charge blocks (gridpoints):      8241 (    1093522).
MG BCs:     Elided blocks (gridpoints):    170156 (  178098998).
MG BCs: Computational effort saved:  99.9803%.
MG BCs: Charge after coarse-graining:           -9.0009482.
MG DL_MG: Calling solver with defect correction order = 8
MG DL_MG: Solver finished
MG Hartree energy from (\int phi*rho dr):              1430.525021
MG Hartree energy from (\int eps (grad phi)^2 dr):     1429.877127
MG Discrepancy due to finite box and discretization:     -0.647894 (  -0.04529%)
MG Correction to account for finite box:                  0.467303
MG Remaining discrepancy, due to discretization:         -0.180590 (  -0.01262%)
      ideal mu1:      -0.777260998584
             Q0:  -11532.489180559409
             G0:      -0.103510674226
   RMS gradient:       0.000049441764
MG BCs: +ve charge blocks (gridpoints):     30471 (   17103454).
MG BCs: -ve charge blocks (gridpoints):      8244 (    1093853).
MG BCs:     Elided blocks (gridpoints):    170155 (  178099158).
MG BCs: Computational effort saved:  99.9803%.
MG BCs: Charge after coarse-graining:           -9.0009480.
MG DL_MG: Calling solver with defect correction order = 8
MG DL_MG: Solver finished
MG Hartree energy from (\int phi*rho dr):              1429.546735
MG Hartree energy from (\int eps (grad phi)^2 dr):     1428.898859
MG Discrepancy due to finite box and discretization:     -0.647877 (  -0.04532%)
MG Correction to account for finite box:                  0.467294
MG Remaining discrepancy, due to discretization:         -0.180583 (  -0.01263%)
     Trial step:       0.546095688237
             Q1:  -11532.536502258037
 Quadratic coef:       0.009205034254
 Linear coef   :      -0.056526732881
           Qmin:  -11532.575961103679
Quadratic minimum step length (  1.676745802671) accepted
    Initial Ne1:    7191.99998573
      Final Ne1:    7192.00000000

=================== Penalty functional idempotency correction ==================
 RMS occupancy error at iteration   1:  0.002330 (step -0.3951 Ne1=   7192.0000)
 RMS occupancy error at iteration   2:  0.000090 (step -0.4998 Ne1=   7192.0000)
 RMS occupancy error at iteration   3:  0.000000 (step -0.5000 Ne1=   7192.0000)
            Final RMS occupancy error   :  0.000000 (Ne1=   7192.0000)
               Final occupancy bounds   : [  0.0000,  1.0000]
================================================================================

    6        -1.153248918056E+04     4.9442E-05     4.4719E-05    -4.6202E-02
MG BCs: +ve charge blocks (gridpoints):     30476 (   17102436).
MG BCs: -ve charge blocks (gridpoints):      8245 (    1094394).
MG BCs:     Elided blocks (gridpoints):    170150 (  178099635).
MG BCs: Computational effort saved:  99.9803%.
MG BCs: Charge after coarse-graining:           -9.0009478.
MG DL_MG: Calling solver with defect correction order = 8
MG DL_MG: Solver finished
MG Hartree energy from (\int phi*rho dr):              1427.484727
MG Hartree energy from (\int eps (grad phi)^2 dr):     1426.836884
MG Discrepancy due to finite box and discretization:     -0.647843 (  -0.04538%)
MG Correction to account for finite box:                  0.467281
MG Remaining discrepancy, due to discretization:         -0.180563 (  -0.01265%)
      ideal mu1:      -0.777927747947
             Q0:  -11532.551545012277
             G0:      -0.408881163133
   RMS gradient:       0.000098299487
MG BCs: +ve charge blocks (gridpoints):     30474 (   17106320).
MG BCs: -ve charge blocks (gridpoints):      8236 (    1092381).
MG BCs:     Elided blocks (gridpoints):    170150 (  178097764).
MG BCs: Computational effort saved:  99.9803%.
MG BCs: Charge after coarse-graining:           -9.0009488.
MG DL_MG: Calling solver with defect correction order = 8
MG DL_MG: Solver finished
MG Hartree energy from (\int phi*rho dr):              1433.005282
MG Hartree energy from (\int eps (grad phi)^2 dr):     1432.357556
MG Discrepancy due to finite box and discretization:     -0.647726 (  -0.04520%)
MG Correction to account for finite box:                  0.467219
MG Remaining discrepancy, due to discretization:         -0.180508 (  -0.01260%)
     Trial step:       0.956903157644
             Q1:  -11532.621699413867
 Quadratic coef:       0.321105274512
 Linear coef   :      -0.391259676103
           Qmin:  -11532.670730328040
Quadratic minimum step length (  0.582982668364) accepted
    Initial Ne1:    7192.00000000
      Final Ne1:    7192.00000000

=================== Penalty functional idempotency correction ==================
 RMS occupancy error at iteration   1:  0.000234 (step -0.4836 Ne1=   7192.0000)
 RMS occupancy error at iteration   2:  0.000002 (step -0.5000 Ne1=   7192.0000)
            Final RMS occupancy error   :  0.000000 (Ne1=   7192.0000)
               Final occupancy bounds   : [  0.0000,  1.0000]
================================================================================

    7        -1.153255154501E+04     9.8299E-05     8.8910E-05    -6.2364E-02
MG BCs: +ve charge blocks (gridpoints):     30476 (   17104757).
MG BCs: -ve charge blocks (gridpoints):      8237 (    1093245).
MG BCs:     Elided blocks (gridpoints):    170150 (  178098463).
MG BCs: Computational effort saved:  99.9803%.
MG BCs: Charge after coarse-graining:           -9.0009484.
MG DL_MG: Calling solver with defect correction order = 8
MG DL_MG: Solver finished
MG Hartree energy from (\int phi*rho dr):              1430.831938
MG Hartree energy from (\int eps (grad phi)^2 dr):     1430.184170
MG Discrepancy due to finite box and discretization:     -0.647768 (  -0.04527%)
MG Correction to account for finite box:                  0.467242
MG Remaining discrepancy, due to discretization:         -0.180526 (  -0.01262%)
      ideal mu1:      -0.779666347178
             Q0:  -11532.671542794444
             G0:      -0.309253722552
   RMS gradient:       0.000085291017
MG BCs: +ve charge blocks (gridpoints):     30475 (   17105037).
MG BCs: -ve charge blocks (gridpoints):      8241 (    1093187).
MG BCs:     Elided blocks (gridpoints):    170149 (  178098241).
MG BCs: Computational effort saved:  99.9803%.
MG BCs: Charge after coarse-graining:           -9.0009486.
MG DL_MG: Calling solver with defect correction order = 8
MG DL_MG: Solver finished
MG Hartree energy from (\int phi*rho dr):              1430.964560
MG Hartree energy from (\int eps (grad phi)^2 dr):     1430.316980
MG Discrepancy due to finite box and discretization:     -0.647581 (  -0.04525%)
MG Correction to account for finite box:                  0.467238
MG Remaining discrepancy, due to discretization:         -0.180342 (  -0.01260%)
     Trial step:       0.746898892896
             Q1:  -11532.814367210958
 Quadratic coef:       0.088156846483
 Linear coef   :      -0.230981262998
           Qmin:  -11532.822842285024
Quadratic minimum step length (  0.978481289292) accepted
    Initial Ne1:    7191.99999913
      Final Ne1:    7192.00000000

=================== Penalty functional idempotency correction ==================
 RMS occupancy error at iteration   1:  0.002873 (step -0.3546 Ne1=   7192.0000)
 RMS occupancy error at iteration   2:  0.000177 (step -0.4888 Ne1=   7192.0000)
 RMS occupancy error at iteration   3:  0.000002 (step -0.5000 Ne1=   7192.0000)
            Final RMS occupancy error   :  0.000000 (Ne1=   7192.0000)
               Final occupancy bounds   : [  0.0000,  1.0000]
================================================================================

    8        -1.153267154279E+04     8.5291E-05     7.7144E-05    -1.2000E-01
MG BCs: +ve charge blocks (gridpoints):     30474 (   17105162).
MG BCs: -ve charge blocks (gridpoints):      8242 (    1093172).
MG BCs:     Elided blocks (gridpoints):    170150 (  178098131).
MG BCs: Computational effort saved:  99.9803%.
MG BCs: Charge after coarse-graining:           -9.0009486.
MG DL_MG: Calling solver with defect correction order = 8
MG DL_MG: Solver finished
MG Hartree energy from (\int phi*rho dr):              1431.019740
MG Hartree energy from (\int eps (grad phi)^2 dr):     1430.372217
MG Discrepancy due to finite box and discretization:     -0.647523 (  -0.04525%)
MG Correction to account for finite box:                  0.467236
MG Remaining discrepancy, due to discretization:         -0.180287 (  -0.01260%)
      ideal mu1:      -0.781842609873
             Q0:  -11532.814472684171
             G0:      -0.369359630536
   RMS gradient:       0.000095679029
MG BCs: +ve charge blocks (gridpoints):     30471 (   17103553).
MG BCs: -ve charge blocks (gridpoints):      8249 (    1094096).
MG BCs:     Elided blocks (gridpoints):    170153 (  178098816).
MG BCs: Computational effort saved:  99.9803%.
MG BCs: Charge after coarse-graining:           -9.0009482.
MG DL_MG: Calling solver with defect correction order = 8
MG DL_MG: Solver finished
MG Hartree energy from (\int phi*rho dr):              1428.160953
MG Hartree energy from (\int eps (grad phi)^2 dr):     1427.513596
MG Discrepancy due to finite box and discretization:     -0.647357 (  -0.04533%)
MG Correction to account for finite box:                  0.467208
MG Remaining discrepancy, due to discretization:         -0.180149 (  -0.01261%)
     Trial step:       0.854883963876
             Q1:  -11532.856206610915
 Quadratic coef:       0.274025698303
 Linear coef   :      -0.315759625048
           Qmin:  -11532.905435084256
Quadratic minimum step length (  0.492541103926) accepted
    Initial Ne1:    7191.99999922
      Final Ne1:    7192.00000000

=================== Penalty functional idempotency correction ==================
 RMS occupancy error at iteration   1:  0.004148 (step -0.3201 Ne1=   7192.0000)
 RMS occupancy error at iteration   2:  0.000311 (step -0.4818 Ne1=   7192.0000)
 RMS occupancy error at iteration   3:  0.000007 (step -0.5004 Ne1=   7192.0000)
            Final RMS occupancy error   :  0.000000 (Ne1=   7192.0000)
               Final occupancy bounds   : [  0.0000,  1.0000]
================================================================================

    9        -1.153281447268E+04     9.5679E-05     8.6539E-05    -1.4293E-01
MG BCs: +ve charge blocks (gridpoints):     30473 (   17104360).
MG BCs: -ve charge blocks (gridpoints):      8249 (    1093682).
MG BCs:     Elided blocks (gridpoints):    170151 (  178098423).
MG BCs: Computational effort saved:  99.9803%.
MG BCs: Charge after coarse-graining:           -9.0009484.
MG DL_MG: Calling solver with defect correction order = 8
MG DL_MG: Solver finished
MG Hartree energy from (\int phi*rho dr):              1429.351971
MG Hartree energy from (\int eps (grad phi)^2 dr):     1428.704476
MG Discrepancy due to finite box and discretization:     -0.647494 (  -0.04530%)
MG Correction to account for finite box:                  0.467293
MG Remaining discrepancy, due to discretization:         -0.180201 (  -0.01261%)
      ideal mu1:      -0.782117107157
   10        -1.153291527127E+04     7.0193E-05     6.3488E-05    -1.0080E-01
Finished density kernel iterations (  10)

Writing density kernel to file "host_13401.vacuum_dkn" ... done


>>> Density kernel optimised for the current NGWF basis:
     ~~~~~~~~~~~~~~~~~~~~~~~~~~~~~~~~~~~~~~~~~~~~~~~~~~~~~~~~~~~
     Total energy                =  -1.15329152712688E+04  Eh
     Estimated bandgap           =  -4.2157E-01  Eh
     RMS occupancy error         =   2.5756E-09
     [H,K] commutator            =   6.3488E-05
     Occupancy bounds            = [  0.000:  1.000]
     ~~~~~~~~~~~~~~~~~~~~~~~~~~~~~~~~~~~~~~~~~~~~~~~~~~~~~~~~~~~




################################################################################
########################### NGWF CG iteration  001 #############################
################################################################################
****** Reciprocal space K.E. preconditioning with k_zero =  3.5000 a0^-1 *******

>>> Checking for convergence of NGWFs:   NOT CONVERGED
  ========================================================================
         NGWF RMS gradient =  1.5916E-03 >  2.0000E-06  | above tolerance
  ========================================================================

>>> Improving NGWFs using line search:
============ Calculation of NGWF S^-1 using Hotelling algorithm ================ 
         Iteration  |  Frobenius norm and Maximum abs value    (of I-S*S_n^-1)   
               1       0.19602978E+00     0.54533570E-02
               2       0.89251609E-03     0.43869097E-04
               3       0.31746349E-07     0.28254388E-08
               4       0.12934625E-12     0.57731597E-14
================================================================================
MG BCs: +ve charge blocks (gridpoints):     30036 (   17052855).
MG BCs: -ve charge blocks (gridpoints):      8247 (    1093453).
MG BCs:     Elided blocks (gridpoints):    170596 (  178150157).
MG BCs: Computational effort saved:  99.9805%.
MG BCs: Charge after coarse-graining:           -9.0009516.
MG DL_MG: Calling solver with defect correction order = 8
MG DL_MG: Solver finished
MG Hartree energy from (\int phi*rho dr):              1397.709588
MG Hartree energy from (\int eps (grad phi)^2 dr):     1397.062812
MG Discrepancy due to finite box and discretization:     -0.646776 (  -0.04627%)
MG Correction to account for finite box:                  0.467229
MG Remaining discrepancy, due to discretization:         -0.179547 (  -0.01285%)
============ Calculation of NGWF S^-1 using Hotelling algorithm ================ 
         Iteration  |  Frobenius norm and Maximum abs value    (of I-S*S_n^-1)   
               1       0.18384370E+01     0.43529130E-01
               2       0.70216642E-01     0.25498452E-02
               3       0.13865873E-03     0.96244470E-05
               4       0.10144819E-08     0.14167123E-09
               5       0.10991910E-12     0.48849813E-14
================================================================================
------------------------------- NGWF line search -------------------------------
RMS gradient                =       0.00159157520356
Trial step length           =               0.122474
Gradient along search dir.  =       -275.09187748415
Functional at step 0        =  -11532.91527126880828
Functional at step 1        =  -11564.03099304123316
Functional predicted        =  -11643.07895305932107
Selected quadratic step     =               0.800923
--------------------------- NGWF line search finished --------------------------
                                               
Writing NGWFs to file "host_13401.vacuum_tightbox_ngwfs"....  done

>>> Optimising kernel for current NGWFs:
   Initial electron number for spin 1:    7226.15050622
     Final electron number for spin 1:    7192.00000000

=================== Penalty functional idempotency correction ==================
 RMS occupancy error at iteration   1:  0.004232 (step -0.4863 Ne1=   7192.0000)
 RMS occupancy error at iteration   2:  0.000068 (step -0.5003 Ne1=   7192.0000)
            Final RMS occupancy error   :  0.000000 (Ne1=   7192.0000)
               Final occupancy bounds   : [  0.0000,  1.0000]
================================================================================

................................................................................
<<<<<<<<<<<<<< LNV (Original version) density kernel optimisation >>>>>>>>>>>>>>
~~~~~~~~~~~~~~~~~~~~~~~~~~~~~~~~~~~~~~~~~~~~~~~~~~~~~~~~~~~~~~~~~~~~~~~~~~~~~~~~
   iter  |      energy (Eh)       | rms gradient |  commutator  |   dE (Eh)
MG BCs: +ve charge blocks (gridpoints):     24405 (   16792954).
MG BCs: -ve charge blocks (gridpoints):      8429 (    1077185).
MG BCs:     Elided blocks (gridpoints):    176235 (  178426326).
MG BCs: Computational effort saved:  99.9833%.
MG BCs: Charge after coarse-graining:           -9.0006500.
MG DL_MG: Calling solver with defect correction order = 8
MG DL_MG: Solver finished
MG Hartree energy from (\int phi*rho dr):              1244.411487
MG Hartree energy from (\int eps (grad phi)^2 dr):     1243.764134
MG Discrepancy due to finite box and discretization:     -0.647353 (  -0.05202%)
MG Correction to account for finite box:                  0.466924
MG Remaining discrepancy, due to discretization:         -0.180430 (  -0.01450%)
      ideal mu1:      -0.721723681190
             Q0:  -11642.285537467804
             G0:      -9.687956438007
   RMS gradient:       0.000478485507
MG BCs: +ve charge blocks (gridpoints):     24468 (   16806129).
MG BCs: -ve charge blocks (gridpoints):      8412 (    1074099).
MG BCs:     Elided blocks (gridpoints):    176172 (  178416237).
MG BCs: Computational effort saved:  99.9832%.
MG BCs: Charge after coarse-graining:           -9.0006466.
MG DL_MG: Calling solver with defect correction order = 8
MG DL_MG: Solver finished
MG Hartree energy from (\int phi*rho dr):              1257.916309
MG Hartree energy from (\int eps (grad phi)^2 dr):     1257.263864
MG Discrepancy due to finite box and discretization:     -0.652445 (  -0.05187%)
MG Correction to account for finite box:                  0.466671
MG Remaining discrepancy, due to discretization:         -0.185774 (  -0.01477%)
     Trial step:       0.648895593525
             Q1:  -11642.393035722896
 Quadratic coef:       6.178973987788
 Linear coef   :      -6.286472242881
           Qmin:  -11643.884497640585
Quadratic minimum step length (  0.330092353948) accepted
    Initial Ne1:    7191.99962233
      Final Ne1:    7192.00000000

=================== Penalty functional idempotency correction ==================
 RMS occupancy error at iteration   1:  0.000347 (step -0.4986 Ne1=   7192.0000)
 RMS occupancy error at iteration   2:  0.000000 (step -0.5000 Ne1=   7192.0000)
            Final RMS occupancy error   :  0.000000 (Ne1=   7192.0000)
               Final occupancy bounds   : [  0.0000,  1.0000]
================================================================================

    1        -1.164228553747E+04     4.7849E-04     4.3278E-04
MG BCs: +ve charge blocks (gridpoints):     24438 (   16799560).
MG BCs: -ve charge blocks (gridpoints):      8421 (    1075743).
MG BCs:     Elided blocks (gridpoints):    176202 (  178421162).
MG BCs: Computational effort saved:  99.9833%.
MG BCs: Charge after coarse-graining:           -9.0006482.
MG DL_MG: Calling solver with defect correction order = 8
MG DL_MG: Solver finished
MG Hartree energy from (\int phi*rho dr):              1250.499811
MG Hartree energy from (\int eps (grad phi)^2 dr):     1249.849944
MG Discrepancy due to finite box and discretization:     -0.649868 (  -0.05197%)
MG Correction to account for finite box:                  0.466779
MG Remaining discrepancy, due to discretization:         -0.183089 (  -0.01464%)
      ideal mu1:      -0.728280340553
             Q0:  -11643.865356594557
             G0:      -1.071582229517
   RMS gradient:       0.000159543865
MG BCs: +ve charge blocks (gridpoints):     24445 (   16799077).
MG BCs: -ve charge blocks (gridpoints):      8423 (    1076577).
MG BCs:     Elided blocks (gridpoints):    176195 (  178420811).
MG BCs: Computational effort saved:  99.9833%.
MG BCs: Charge after coarse-graining:           -9.0006482.
MG DL_MG: Calling solver with defect correction order = 8
MG DL_MG: Solver finished
MG Hartree energy from (\int phi*rho dr):              1251.387128
MG Hartree energy from (\int eps (grad phi)^2 dr):     1250.736849
MG Discrepancy due to finite box and discretization:     -0.650279 (  -0.05196%)
MG Correction to account for finite box:                  0.466761
MG Remaining discrepancy, due to discretization:         -0.183518 (  -0.01467%)
     Trial step:       0.462812568901
             Q1:  -11644.105966407573
 Quadratic coef:       0.255331911416
 Linear coef   :      -0.495941724431
           Qmin:  -11644.106178621725
Quadratic minimum step length (  0.449469990328) accepted
    Initial Ne1:    7191.99994282
      Final Ne1:    7192.00000000

=================== Penalty functional idempotency correction ==================
 RMS occupancy error at iteration   1:  0.000180 (step -0.4984 Ne1=   7192.0000)
 RMS occupancy error at iteration   2:  0.000001 (step -0.5000 Ne1=   7192.0000)
            Final RMS occupancy error   :  0.000000 (Ne1=   7192.0000)
               Final occupancy bounds   : [  0.0000,  1.0000]
================================================================================

    2        -1.164386535659E+04     1.5954E-04     1.4430E-04    -1.5798E+00
MG BCs: +ve charge blocks (gridpoints):     24445 (   16799089).
MG BCs: -ve charge blocks (gridpoints):      8423 (    1076555).
MG BCs:     Elided blocks (gridpoints):    176195 (  178420821).
MG BCs: Computational effort saved:  99.9833%.
MG BCs: Charge after coarse-graining:           -9.0006482.
MG DL_MG: Calling solver with defect correction order = 8
MG DL_MG: Solver finished
MG Hartree energy from (\int phi*rho dr):              1251.361716
MG Hartree energy from (\int eps (grad phi)^2 dr):     1250.711449
MG Discrepancy due to finite box and discretization:     -0.650267 (  -0.05196%)
MG Correction to account for finite box:                  0.466762
MG Remaining discrepancy, due to discretization:         -0.183505 (  -0.01466%)
      ideal mu1:      -0.729179908094
             Q0:  -11644.106671199901
             G0:      -0.198323018575
   RMS gradient:       0.000068389465
MG BCs: +ve charge blocks (gridpoints):     24443 (   16798150).
MG BCs: -ve charge blocks (gridpoints):      8424 (    1077068).
MG BCs:     Elided blocks (gridpoints):    176197 (  178421247).
MG BCs: Computational effort saved:  99.9833%.
MG BCs: Charge after coarse-graining:           -9.0006483.
MG DL_MG: Calling solver with defect correction order = 8
MG DL_MG: Solver finished
MG Hartree energy from (\int phi*rho dr):              1250.708044
MG Hartree energy from (\int eps (grad phi)^2 dr):     1250.057847
MG Discrepancy due to finite box and discretization:     -0.650196 (  -0.05199%)
MG Correction to account for finite box:                  0.466710
MG Remaining discrepancy, due to discretization:         -0.183486 (  -0.01467%)
     Trial step:       0.456092491571
             Q1:  -11644.171265906421
 Quadratic coef:       0.025858933157
 Linear coef   :      -0.090453639678
           Qmin:  -11644.185772113320
Quadratic minimum step length (  0.797697755780) accepted
    Initial Ne1:    7191.99998130
      Final Ne1:    7192.00000000

=================== Penalty functional idempotency correction ==================
 RMS occupancy error at iteration   1:  0.000326 (step -0.4797 Ne1=   7192.0000)
 RMS occupancy error at iteration   2:  0.000005 (step -0.5000 Ne1=   7192.0000)
            Final RMS occupancy error   :  0.000000 (Ne1=   7192.0000)
               Final occupancy bounds   : [ -0.0000,  1.0000]
================================================================================

    3        -1.164410667120E+04     6.8389E-05     6.1857E-05    -2.4131E-01
MG BCs: +ve charge blocks (gridpoints):     24441 (   16797409).
MG BCs: -ve charge blocks (gridpoints):      8426 (    1077512).
MG BCs:     Elided blocks (gridpoints):    176199 (  178421544).
MG BCs: Computational effort saved:  99.9833%.
MG BCs: Charge after coarse-graining:           -9.0006484.
MG DL_MG: Calling solver with defect correction order = 8
MG DL_MG: Solver finished
MG Hartree energy from (\int phi*rho dr):              1250.217785
MG Hartree energy from (\int eps (grad phi)^2 dr):     1249.567642
MG Discrepancy due to finite box and discretization:     -0.650142 (  -0.05200%)
MG Correction to account for finite box:                  0.466670
MG Remaining discrepancy, due to discretization:         -0.183472 (  -0.01468%)
      ideal mu1:      -0.728090565990
             Q0:  -11644.185434833867
             G0:      -0.113782250299
   RMS gradient:       0.000051955141
MG BCs: +ve charge blocks (gridpoints):     24439 (   16797477).
MG BCs: -ve charge blocks (gridpoints):      8424 (    1077492).
MG BCs:     Elided blocks (gridpoints):    176201 (  178421496).
MG BCs: Computational effort saved:  99.9833%.
MG BCs: Charge after coarse-graining:           -9.0006484.
MG DL_MG: Calling solver with defect correction order = 8
MG DL_MG: Solver finished
MG Hartree energy from (\int phi*rho dr):              1250.217834
MG Hartree energy from (\int eps (grad phi)^2 dr):     1249.567939
MG Discrepancy due to finite box and discretization:     -0.649895 (  -0.05198%)
MG Correction to account for finite box:                  0.466584
MG Remaining discrepancy, due to discretization:         -0.183311 (  -0.01466%)
     Trial step:       0.603178213262
             Q1:  -11644.233329429058
 Quadratic coef:       0.020736379245
 Linear coef   :      -0.068630974437
           Qmin:  -11644.242221635899
Quadratic minimum step length (  0.998166267258) accepted
    Initial Ne1:    7191.99998830
      Final Ne1:    7192.00000000

=================== Penalty functional idempotency correction ==================
 RMS occupancy error at iteration   1:  0.001259 (step -0.4194 Ne1=   7192.0000)
 RMS occupancy error at iteration   2:  0.000042 (step -0.4977 Ne1=   7192.0000)
            Final RMS occupancy error   :  0.000000 (Ne1=   7192.0000)
               Final occupancy bounds   : [ -0.0000,  1.0000]
================================================================================

    4        -1.164418543483E+04     5.1955E-05     4.6992E-05    -7.8764E-02
MG BCs: +ve charge blocks (gridpoints):     24438 (   16797551).
MG BCs: -ve charge blocks (gridpoints):      8424 (    1077461).
MG BCs:     Elided blocks (gridpoints):    176202 (  178421453).
MG BCs: Computational effort saved:  99.9833%.
MG BCs: Charge after coarse-graining:           -9.0006483.
MG DL_MG: Calling solver with defect correction order = 8
MG DL_MG: Solver finished
MG Hartree energy from (\int phi*rho dr):              1250.224418
MG Hartree energy from (\int eps (grad phi)^2 dr):     1249.574681
MG Discrepancy due to finite box and discretization:     -0.649737 (  -0.05197%)
MG Correction to account for finite box:                  0.466530
MG Remaining discrepancy, due to discretization:         -0.183206 (  -0.01465%)
      ideal mu1:      -0.729030085029
             Q0:  -11644.239538998343
             G0:      -0.178914082659
   RMS gradient:       0.000066196213
MG BCs: +ve charge blocks (gridpoints):     24435 (   16800115).
MG BCs: -ve charge blocks (gridpoints):      8422 (    1076603).
MG BCs:     Elided blocks (gridpoints):    176205 (  178419747).
MG BCs: Computational effort saved:  99.9833%.
MG BCs: Charge after coarse-graining:           -9.0006478.
MG DL_MG: Calling solver with defect correction order = 8
MG DL_MG: Solver finished
MG Hartree energy from (\int phi*rho dr):              1251.800394
MG Hartree energy from (\int eps (grad phi)^2 dr):     1251.151021
MG Discrepancy due to finite box and discretization:     -0.649373 (  -0.05188%)
MG Correction to account for finite box:                  0.466316
MG Remaining discrepancy, due to discretization:         -0.183057 (  -0.01462%)
     Trial step:       0.775933080635
             Q1:  -11644.292629593401
 Quadratic coef:       0.085734760269
 Linear coef   :      -0.138825355326
           Qmin:  -11644.295736972248
Quadratic minimum step length (  0.628211855327) accepted
    Initial Ne1:    7192.00172492
      Final Ne1:    7192.00000000

=================== Penalty functional idempotency correction ==================
 RMS occupancy error at iteration   1:  0.003539 (step -0.3245 Ne1=   7192.0000)
 RMS occupancy error at iteration   2:  0.000212 (step -0.4852 Ne1=   7192.0000)
 RMS occupancy error at iteration   3:  0.000002 (step -0.5000 Ne1=   7192.0000)
            Final RMS occupancy error   :  0.000000 (Ne1=   7192.0000)
               Final occupancy bounds   : [  0.0000,  1.0000]
================================================================================

    5        -1.164423953900E+04     6.6196E-05     5.9873E-05    -5.4104E-02
MG BCs: +ve charge blocks (gridpoints):     24435 (   16799597).
MG BCs: -ve charge blocks (gridpoints):      8423 (    1076772).
MG BCs:     Elided blocks (gridpoints):    176205 (  178420096).
MG BCs: Computational effort saved:  99.9833%.
MG BCs: Charge after coarse-graining:           -9.0006479.
MG DL_MG: Calling solver with defect correction order = 8
MG DL_MG: Solver finished
MG Hartree energy from (\int phi*rho dr):              1251.494959
MG Hartree energy from (\int eps (grad phi)^2 dr):     1250.845547
MG Discrepancy due to finite box and discretization:     -0.649412 (  -0.05189%)
MG Correction to account for finite box:                  0.466331
MG Remaining discrepancy, due to discretization:         -0.183081 (  -0.01463%)
      ideal mu1:      -0.730931131144
             Q0:  -11644.300798326731
             G0:      -0.182564332918
   RMS gradient:       0.000059851165
MG BCs: +ve charge blocks (gridpoints):     24438 (   16800548).
MG BCs: -ve charge blocks (gridpoints):      8420 (    1076555).
MG BCs:     Elided blocks (gridpoints):    176202 (  178419362).
MG BCs: Computational effort saved:  99.9833%.
MG BCs: Charge after coarse-graining:           -9.0006478.
MG DL_MG: Calling solver with defect correction order = 8
MG DL_MG: Solver finished
MG Hartree energy from (\int phi*rho dr):              1251.869802
MG Hartree energy from (\int eps (grad phi)^2 dr):     1251.220348
MG Discrepancy due to finite box and discretization:     -0.649454 (  -0.05188%)
MG Correction to account for finite box:                  0.466278
MG Remaining discrepancy, due to discretization:         -0.183176 (  -0.01463%)
     Trial step:       0.698176453481
             Q1:  -11644.339232446975
 Quadratic coef:       0.089027998245
 Linear coef   :      -0.127462118489
           Qmin:  -11644.346420467995
Quadratic minimum step length (  0.499792489969) accepted
    Initial Ne1:    7192.00112145
      Final Ne1:    7192.00000000

=================== Penalty functional idempotency correction ==================
 RMS occupancy error at iteration   1:  0.003634 (step -0.3208 Ne1=   7192.0000)
 RMS occupancy error at iteration   2:  0.000213 (step -0.4847 Ne1=   7192.0000)
 RMS occupancy error at iteration   3:  0.000002 (step -0.5000 Ne1=   7192.0000)
            Final RMS occupancy error   :  0.000000 (Ne1=   7192.0000)
               Final occupancy bounds   : [  0.0000,  1.0000]
================================================================================

    6        -1.164430079833E+04     5.9851E-05     5.4134E-05    -6.1259E-02
MG BCs: +ve charge blocks (gridpoints):     24437 (   16800295).
MG BCs: -ve charge blocks (gridpoints):      8421 (    1076621).
MG BCs:     Elided blocks (gridpoints):    176203 (  178419549).
MG BCs: Computational effort saved:  99.9833%.
MG BCs: Charge after coarse-graining:           -9.0006478.
MG DL_MG: Calling solver with defect correction order = 8
MG DL_MG: Solver finished
MG Hartree energy from (\int phi*rho dr):              1251.749167
MG Hartree energy from (\int eps (grad phi)^2 dr):     1251.099787
MG Discrepancy due to finite box and discretization:     -0.649380 (  -0.05188%)
MG Correction to account for finite box:                  0.466239
MG Remaining discrepancy, due to discretization:         -0.183141 (  -0.01463%)
      ideal mu1:      -0.731553090695
             Q0:  -11644.358002397115
             G0:      -0.159479832414
   RMS gradient:       0.000061391124
MG BCs: +ve charge blocks (gridpoints):     24438 (   16798238).
MG BCs: -ve charge blocks (gridpoints):      8425 (    1077357).
MG BCs:     Elided blocks (gridpoints):    176202 (  178420870).
MG BCs: Computational effort saved:  99.9833%.
MG BCs: Charge after coarse-graining:           -9.0006482.
MG DL_MG: Calling solver with defect correction order = 8
MG DL_MG: Solver finished
MG Hartree energy from (\int phi*rho dr):              1250.355018
MG Hartree energy from (\int eps (grad phi)^2 dr):     1249.705495
MG Discrepancy due to finite box and discretization:     -0.649523 (  -0.05195%)
MG Correction to account for finite box:                  0.466334
MG Remaining discrepancy, due to discretization:         -0.183189 (  -0.01465%)
     Trial step:       0.590714269442
             Q1:  -11644.417667485075
 Quadratic coef:       0.034541924735
 Linear coef   :      -0.094207012695
           Qmin:  -11644.422235653579
Quadratic minimum step length (  0.805534536763) accepted
    Initial Ne1:    7191.99999955
      Final Ne1:    7192.00000000

=================== Penalty functional idempotency correction ==================
 RMS occupancy error at iteration   1:  0.000385 (step -0.4695 Ne1=   7192.0000)
 RMS occupancy error at iteration   2:  0.000001 (step -0.5000 Ne1=   7192.0000)
            Final RMS occupancy error   :  0.000000 (Ne1=   7192.0000)
               Final occupancy bounds   : [  0.0000,  1.0000]
================================================================================

    7        -1.164435800240E+04     6.1391E-05     5.5527E-05    -5.7204E-02
MG BCs: +ve charge blocks (gridpoints):     24437 (   16797461).
MG BCs: -ve charge blocks (gridpoints):      8425 (    1077593).
MG BCs:     Elided blocks (gridpoints):    176203 (  178421411).
MG BCs: Computational effort saved:  99.9833%.
MG BCs: Charge after coarse-graining:           -9.0006484.
MG DL_MG: Calling solver with defect correction order = 8
MG DL_MG: Solver finished
MG Hartree energy from (\int phi*rho dr):              1249.856125
MG Hartree energy from (\int eps (grad phi)^2 dr):     1249.206545
MG Discrepancy due to finite box and discretization:     -0.649580 (  -0.05197%)
MG Correction to account for finite box:                  0.466373
MG Remaining discrepancy, due to discretization:         -0.183207 (  -0.01466%)
      ideal mu1:      -0.730636384372
             Q0:  -11644.421348118922
             G0:      -0.272000409453
   RMS gradient:       0.000080876525
MG BCs: +ve charge blocks (gridpoints):     24437 (   16796256).
MG BCs: -ve charge blocks (gridpoints):      8428 (    1077946).
MG BCs:     Elided blocks (gridpoints):    176203 (  178422263).
MG BCs: Computational effort saved:  99.9833%.
MG BCs: Charge after coarse-graining:           -9.0006487.
MG DL_MG: Calling solver with defect correction order = 8
MG DL_MG: Solver finished
MG Hartree energy from (\int phi*rho dr):              1248.914989
MG Hartree energy from (\int eps (grad phi)^2 dr):     1248.264852
[...]
MG DL_MG: Calling solver with defect correction order = 8
MG DL_MG: Solver finished
MG Hartree energy from (\int phi*rho dr):              1208.867096
MG Hartree energy from (\int eps (grad phi)^2 dr):     1208.678550
MG Discrepancy due to finite box and discretization:     -0.188547 (  -0.01560%)
MG Correction to account for finite box:                  0.006402
MG Remaining discrepancy, due to discretization:         -0.182144 (  -0.01507%)
             Q2:  -11678.835238782573
  Cubic LS coeff:       0.945956616275
Predicted energy:  -11678.835238782576
Cubic minimum step length accepted
    Initial Ne1:    7192.00000000
      Final Ne1:    7192.00000000

=================== Penalty functional idempotency correction ==================
 RMS occupancy error at iteration   1:  0.000000 (step -0.5000 Ne1=   7192.0000)
            Final RMS occupancy error   :  0.000000 (Ne1=   7192.0000)
               Final occupancy bounds   : [  0.0000,  1.0000]
================================================================================

    7        -1.167883523878E+04     9.4467E-09     8.5444E-09    -2.4447E-09

Reusing previously generated solute cavity.
MG BCs: +ve charge blocks (gridpoints):     28621 (   18962043).
MG BCs: -ve charge blocks (gridpoints):      8403 (    1045928).
MG BCs:     Elided blocks (gridpoints):    172019 (  176288494).
MG BCs: Computational effort saved:  99.9811%.
MG BCs: Charge after coarse-graining:           -9.0009224.
MG DL_MG: Calling solver with defect correction order = 8
MG DL_MG: Solver finished
MG Hartree energy from (\int phi*rho dr):              1208.867095
MG Hartree energy from (\int eps (grad phi)^2 dr):     1208.678548
MG Discrepancy due to finite box and discretization:     -0.188547 (  -0.01560%)
MG Correction to account for finite box:                  0.006402
MG Remaining discrepancy, due to discretization:         -0.182144 (  -0.01507%)
      ideal mu1:      -0.481735218769
             Q0:  -11678.835238782805
             G0:      -0.000000004455
   RMS gradient:       0.000000009609

Reusing previously generated solute cavity.
MG BCs: +ve charge blocks (gridpoints):     28621 (   18962043).
MG BCs: -ve charge blocks (gridpoints):      8403 (    1045928).
MG BCs:     Elided blocks (gridpoints):    172019 (  176288494).
MG BCs: Computational effort saved:  99.9811%.
MG BCs: Charge after coarse-graining:           -9.0009224.
MG DL_MG: Calling solver with defect correction order = 8
MG DL_MG: Solver finished
MG Hartree energy from (\int phi*rho dr):              1208.867064
MG Hartree energy from (\int eps (grad phi)^2 dr):     1208.678517
MG Discrepancy due to finite box and discretization:     -0.188546 (  -0.01560%)
MG Correction to account for finite box:                  0.006402
MG Remaining discrepancy, due to discretization:         -0.182144 (  -0.01507%)
     Trial step:       0.655415542773
             Q1:  -11678.835238784319
 Quadratic coef:       0.000000001406
 Linear coef   :      -0.000000002920
           Qmin:  -11678.835238784322
Quadratic minimum step length (  0.680591294037) accepted
    Initial Ne1:    7192.00000000
      Final Ne1:    7192.00000000

=================== Penalty functional idempotency correction ==================
 RMS occupancy error at iteration   1:  0.000000 (step -0.5000 Ne1=   7192.0000)
            Final RMS occupancy error   :  0.000000 (Ne1=   7192.0000)
               Final occupancy bounds   : [  0.0000,  1.0000]
================================================================================

    8        -1.167883523878E+04     9.6087E-09     8.6908E-09    -4.1910E-09

Reusing previously generated solute cavity.
MG BCs: +ve charge blocks (gridpoints):     28621 (   18962043).
MG BCs: -ve charge blocks (gridpoints):      8403 (    1045928).
MG BCs:     Elided blocks (gridpoints):    172019 (  176288494).
MG BCs: Computational effort saved:  99.9811%.
MG BCs: Charge after coarse-graining:           -9.0009224.
MG DL_MG: Calling solver with defect correction order = 8
MG DL_MG: Solver finished
MG Hartree energy from (\int phi*rho dr):              1208.867063
MG Hartree energy from (\int eps (grad phi)^2 dr):     1208.678516
MG Discrepancy due to finite box and discretization:     -0.188546 (  -0.01560%)
MG Correction to account for finite box:                  0.006402
MG Remaining discrepancy, due to discretization:         -0.182144 (  -0.01507%)
      ideal mu1:      -0.481735187224
             Q0:  -11678.835238784319
             G0:      -0.000000001919
   RMS gradient:       0.000000005657

Reusing previously generated solute cavity.
MG BCs: +ve charge blocks (gridpoints):     28621 (   18962043).
MG BCs: -ve charge blocks (gridpoints):      8403 (    1045928).
MG BCs:     Elided blocks (gridpoints):    172019 (  176288494).
MG BCs: Computational effort saved:  99.9811%.
MG BCs: Charge after coarse-graining:           -9.0009224.
MG DL_MG: Calling solver with defect correction order = 8
MG DL_MG: Solver finished
MG Hartree energy from (\int phi*rho dr):              1208.867084
MG Hartree energy from (\int eps (grad phi)^2 dr):     1208.678538
MG Discrepancy due to finite box and discretization:     -0.188546 (  -0.01560%)
MG Correction to account for finite box:                  0.006402
MG Remaining discrepancy, due to discretization:         -0.182144 (  -0.01507%)
     Trial step:       0.667884804729
             Q1:  -11678.835238784668
 Quadratic coef:       0.000000000933
 Linear coef   :      -0.000000001282
           Qmin:  -11678.835238784759
Quadratic minimum step length (  0.458700399949) accepted
    Initial Ne1:    7192.00000000
      Final Ne1:    7192.00000000

=================== Penalty functional idempotency correction ==================
 RMS occupancy error at iteration   1:  0.000000 (step -0.5000 Ne1=   7192.0000)
            Final RMS occupancy error   :  0.000000 (Ne1=   7192.0000)
               Final occupancy bounds   : [ -0.0000,  1.0000]
================================================================================

    9        -1.167883523878E+04     5.6573E-09     5.1169E-09    -1.5134E-09

Reusing previously generated solute cavity.
MG BCs: +ve charge blocks (gridpoints):     28621 (   18962043).
MG BCs: -ve charge blocks (gridpoints):      8403 (    1045928).
MG BCs:     Elided blocks (gridpoints):    172019 (  176288494).
MG BCs: Computational effort saved:  99.9811%.
MG BCs: Charge after coarse-graining:           -9.0009224.
MG DL_MG: Calling solver with defect correction order = 8
MG DL_MG: Solver finished
MG Hartree energy from (\int phi*rho dr):              1208.867078
MG Hartree energy from (\int eps (grad phi)^2 dr):     1208.678531
MG Discrepancy due to finite box and discretization:     -0.188546 (  -0.01560%)
MG Correction to account for finite box:                  0.006402
MG Remaining discrepancy, due to discretization:         -0.182144 (  -0.01507%)
      ideal mu1:      -0.481735200814
   10        -1.167883523878E+04     3.7476E-09     3.3897E-09    -3.4925E-10
Finished density kernel iterations (  10)

Writing density kernel to file "host_13401.dkn" ... done


>>> Density kernel optimised for the current NGWF basis:
     ~~~~~~~~~~~~~~~~~~~~~~~~~~~~~~~~~~~~~~~~~~~~~~~~~~~~~~~~~~~
     Total energy                =  -1.16788352387847E+04  Eh
     Estimated bandgap           =   9.3150E-02  Eh
     RMS occupancy error         =   3.7203E-16
     [H,K] commutator            =   3.3897E-09
     Occupancy bounds            = [ -0.000:  1.000]
     ~~~~~~~~~~~~~~~~~~~~~~~~~~~~~~~~~~~~~~~~~~~~~~~~~~~~~~~~~~~




################################################################################
########################### NGWF CG iteration  004 #############################
################################################################################
****** Reciprocal space K.E. preconditioning with k_zero =  3.5000 a0^-1 *******

>>> Checking for convergence of NGWFs: 
           ........................................................
           |         *** NGWF optimisation converged ***          |
           | RMS NGWF gradient =    0.00000198204119              |
           | Criteria satisfied:                                  |
           | -> RMS NGWF gradient lower than set threshold.       |
           ========================================================

Reusing previously generated solute cavity.
MG BCs: +ve charge blocks (gridpoints):     28621 (   18962043).
MG BCs: -ve charge blocks (gridpoints):      8403 (    1045928).
MG BCs:     Elided blocks (gridpoints):    172019 (  176288494).
MG BCs: Computational effort saved:  99.9811%.
MG BCs: Charge after coarse-graining:           -9.0009224.
MG DL_MG: Calling solver with defect correction order = 8
MG DL_MG: Solver finished
MG Hartree energy from (\int phi*rho dr):              1208.867078
MG Hartree energy from (\int eps (grad phi)^2 dr):     1208.678531
MG Discrepancy due to finite box and discretization:     -0.188546 (  -0.01560%)
MG Correction to account for finite box:                  0.006402
MG Remaining discrepancy, due to discretization:         -0.182144 (  -0.01507%)

================================================================================
           ---------------- ENERGY COMPONENTS (Eh) ----------------
           | Kinetic                    :     8527.44490671348103 |
           | Pseudo. (local,OBC,corr'd) :    -5049.56154846581012 |
           | Pseudopotential (non-local):     1403.59487082142073 |
           | Hartree (molecular)        :     1208.86707753728888 |
           | Exchange-correlation       :    -3357.27712628324298 |
           | Ion-ion (open BC)          :   822525.79579589783680 |
           | Dispersion Correction      :       -3.24647157968804 |
           | Smeared ion non-self corr. :  -822477.93681386008393 |
           | Smeared ion self corr.     :   -14457.16956389741972 |
           | Solvent cavitation energy  :        2.32548014440087 |
           | Solute-solvent dis-rep en. :       -1.67184581281340 |
           | Total                      :   -11678.83523878465530 |
           --------------------------------------------------------
           ------ LOCAL ENERGY COMPONENTS FROM MATRIX TRACES ------
           | Pseudopotential (local)    :    -5049.56154846579375 |
           | Hartree                    :    -1992.62290130829797 |
           --------------------------------------------------------
           Integrated density           :     7191.99999999806732
           Integrated density tr(KS)    :     7192.00000000000000
================================================================================


                        <<<<< CALCULATION SUMMARY >>>>>                         
|ITER|    RMS GRADIENT   |     TOTAL ENERGY    |   step   |     Epredicted              
   0     0.00004037583688 -11678.77123224560637   0.624802 -11678.82653911035413        
   1     0.00000987990791 -11678.83468535740394   0.086773 -11678.83514527881925        
   2     0.00000439699902 -11678.83521937555633   0.016146 -11678.83523632513970        
   3     0.00000198204119 -11678.83523878466804  <-- CG                                 

=================== Finished the calculation in solvent ========================
= Adjusting the following parameters: 
= read_denskern: F
= read_tightbox_ngwfs: F
= maxit_pen: 0 (restored to user-specified value)
= restart read filename prefix: ""
= restart write filename prefix: ""
================================================================================

================================================================================
IS: Calculation in solvent completed (NGWFs converged).      

Individual components of total energy in solvent:     hartree           kcal/mol
- Usual non-electrostatic DFT terms:    -12888.35595065354391    -8087565.288672
- Electrostatic fixed charge energy:      1208.86707753728888      758575.527580
- Apolar cavitation energy:                  2.32548014440087        1459.260791
- Apolar dispersion-repulsion energy:       -1.67184581281340       -1049.099064
 -------------------------------------------------------------------------------
- Total energy in solvent:              -11678.83523878466804    -7328579.599365

Components of total energy in solvent:                hartree           kcal/mol
- Usual non-electrostatic DFT terms:    -12888.35595065354391    -8087565.288672
- Electrostatic energy:                   1208.86707753728888      758575.527580
- Apolar energy terms:                       0.65363433158747         410.161727
 -------------------------------------------------------------------------------
- Total energy in solvent:              -11678.83523878466804    -7328579.599365

Calculation of free energy of solvation:              hartree           kcal/mol
- Total energy in solvent:         (+)  -11678.83523878466804    -7328579.599365
- Total energy in vacuum:          (-)  -11674.95022756676190    -7326141.718072
 -------------------------------------------------------------------------------
- Total free energy of solvation:           -3.88501121790614       -2437.881293

Components of polar term in f.e. of solvation:        hartree           kcal/mol
- Electrostatic:                            -4.69503084573989       -2946.176273
- Change in nonelectrostatic DFT terms:      0.15638529624630          98.133253
 -------------------------------------------------------------------------------
- Polar term in f.e. of solvation:          -4.53864554949359       -2848.043020

Components of free energy of solvation:               hartree           kcal/mol
- Polar term in f.e. of solvation: (+)      -4.53864554949359       -2848.043020
- Apolar (cavitation, dis., rep.): (+)       0.65363433158747         410.161727
 -------------------------------------------------------------------------------
- Total free energy of solvation:           -3.88501121790612       -2437.881293
================================================================================


------------------------------ TIMING INFORMATION ------------------------------
AVERAGE TIME:   26541.807s on     40 node(s)                                    
TOTAL TIME:     26541.944s on     40 node(s)                                    
================= AVERAGE TIMINGS FROM ALL NODES (CUMULATIVE) ==================
|| TAG                                    #calls    cpu time   %total  Gflops ||
|| work_imbalance                       :     1        0.00s   0.000%  ------ ||
|| parallel_prepare_fd_halos_request    :  1953        0.02s   0.000%  ------ ||
|| sparse_set_to_garbage                :   182        0.04s   0.000%  ------ ||
|| parallel_prepare_fd_halos_satisfy    :  1953        0.06s   0.000%  ------ ||
|| ngwfs_initialise_from_radial         :     1        0.17s   0.001%  ------ ||
|| basis_extract_function_from_box      :  5366        0.18s   0.001%  ------ ||
|| parallel_prepare_fd_halos_alloc      :  1953        0.22s   0.001%  ------ ||
|| restart_ngwfs_tightbox_input         :     1        0.77s   0.003%  ------ ||
|| pseudopotentials_nonlocal_mat        :    31        1.33s   0.005%  ------ ||
|| parallel_prepare_fd_halos_comms_imbal:  1953        2.59s   0.010%  ------ ||
|| density_init_guess_real              :     1        4.15s   0.016%  ------ ||
|| openbc_locps_radial                  :     1        4.50s   0.017%  ------ ||
|| restart_kernel_write                 :    17       12.46s   0.047%  ------ ||
|| parallel_prepare_fd_halos_clear      :  1953       14.23s   0.054%  ------ ||
|| restart_kernel_read                  :     1       20.32s   0.077%  ------ ||
|| sparse_init                          :     2       22.64s   0.085%  ------ ||
|| projectors_func_ovlp_box             :    31       23.24s   0.088%  ------ ||
|| parallel_prepare_fd_halos_comms_wait :  1953       24.66s   0.093%  ------ ||
|| projectors_init_fftbox_recip         :   207       26.40s   0.099%  ------ ||
|| function_ops_brappd_ketppd           :    31       28.76s   0.108%  ------ ||
|| parallel_prepare_fd_halos            :  1953       41.79s   0.157%  ------ ||
|| palser_mano_kernel_optimise          :     1       45.73s   0.172%  ------ ||
|| fourier_apply_box_pair               :  7734       53.57s   0.202% 557.231 ||
|| pseudo_make_structure_factor         :     2       55.06s   0.207%  ------ ||
|| basis_copy_function_to_box           : 87492       55.82s   0.210%  ------ ||
|| ngwf_gradient_coeffs                 :    16       64.09s   0.241%  ------ ||
|| restart_ngwfs_tightbox_output        :    14       86.38s   0.325%  ------ ||
|| sparse_embed_hotelling_invert_embed  :    31       96.94s   0.365%  ------ ||
|| finite_difference_derivative         :  1953      106.62s   0.402%  ------ ||
|| integrals_kinetic                    :    31      165.27s   0.623%  ------ ||
|| openbc_locps_on_grid                 :     2      185.64s   0.699%  ------ ||
|| projectors_gradient_batch            :   176      209.25s   0.788%  ------ ||
|| fourier_apply_cell_backward          :  1303      228.43s   0.861%  78.790 ||
|| fourier_apply_cell_forward           :  1301      234.78s   0.885%  76.540 ||
|| basis_dot_function_with_box          : 13.29M     247.36s   0.932%  ------ ||
|| sparse_trace                         :  5473      270.83s   1.020%  ------ ||
|| kernel_purify                        :   496      354.57s   1.336%  ------ ||
|| hamiltonian_energy_components        :     4      415.12s   1.564%  ------ ||
|| basis_add_function_to_box            : 27.70M     535.08s   2.016%  ------ ||
|| xc_energy_potential                  :   325      538.63s   2.029%  ------ ||
|| lnv_gradient_norm                    :   160      583.25s   2.197%  ------ ||
|| kernel_fix                           :   160      691.11s   2.604%  ------ ||
|| ngwf_gradient_build_batch            :   176      757.22s   2.853%  ------ ||
|| cell_grid_deposit_box_real           : 54829      825.33s   3.110%  ------ ||
|| integrals_locpot_mat_els_batch       :  1859      873.22s   3.290%  ------ ||
|| cell_grid_extract_box_real           : 51124      964.29s   3.633%  ------ ||
|| ngwf_gradient_batch                  :   176     1051.89s   3.963%  ------ ||
|| ngwf_gradient_lnv                    :    16     1212.51s   4.568%  ------ ||
|| density_batch_row_sums               :  3564     1250.94s   4.713%  ------ ||
|| density_fftbox_deposit_to_cell       : 52812     1410.98s   5.316%  ------ ||
|| sparse_product                       :  6753     2233.98s   8.417%  ------ ||
|| multigrid_prepare_bound_cond         :   325     2459.20s   9.265%  ------ ||
|| potential_apply_to_ngwf_batch        :  1859     3226.61s  12.157%  ------ ||
|| density_fftbox_interpolate_multiply  : 52812     3692.59s  13.912%  ------ ||
|| fourier_apply_box                    : 182.3k    3706.94s  13.966% 920.252 ||
|| integrals_locpot_dbl_grid            :   169     4117.43s  15.513%  ------ ||
|| density_batch_interp_deposit         :  3564     5759.06s  21.698%  ------ ||
|| dl_mg_solver_calls                   :   325     6706.94s  25.269%  ------ ||
|| density_on_dbl_grid                  :   324     7380.18s  27.806%  ------ ||
|| multigrid_calculate_hartree          :   325     9315.29s  35.097%  ------ ||
|| hamiltonian_lhxc_calculate           :   320    17242.76s  64.965%  ------ ||
|| lnv_denskernel_optimise_cg           :    16    22739.23s  85.673%  ------ ||
|| ngwf_cg_optimise                     :     2    25719.30s  96.901%  ------ ||
|| total_time                           :     1    26541.81s 100.000%  ------ ||
================================================================================
Overhead of generating timer report: 
- 0 ms averaging over threads,
- 6 ms ensuring consistency across MPI ranks,
- 0 ms printing in order.

Job completed: 06-07-2020 22:04 (+0100)

